Title
81392
    1CHL1    C3    1   5.964   5.961  10.443  0.7897 -0.1915  0.0728
    1CHL1    H3    2   5.973   5.850  10.444  0.2444 -0.2509 -0.5843
    1CHL1    O3    3   5.953   6.027  10.570 -0.1074  0.4092  0.0162
    1CHL1   H3'    4   5.924   6.118  10.562  0.0628  0.4307 -0.3816
    1CHL1    C4    5   6.084   6.020  10.371 -0.1098 -0.2182  0.1462
    1CHL1   H4A    6   6.085   6.130  10.387 -2.5079 -0.0103 -0.6519
    1CHL1   H4B    7   6.177   5.989  10.423  1.0901  0.5945 -1.4234
    1CHL1    C5    8   6.093   5.994  10.222 -0.1707  0.3738  0.4606
    1CHL1    C6    9   6.202   5.926  10.174  0.0555  0.1392 -0.5184
    1CHL1    H6   10   6.272   5.892  10.251 -0.7066 -1.1531 -0.3643
    1CHL1    C7   11   6.229   5.898  10.030 -0.3072 -0.5769  0.1950
    1CHL1   H7A   12   6.328   5.940   9.999 -1.0422  0.1092 -1.3483
    1CHL1   H7B   13   6.222   5.788  10.021  0.9738 -0.6793  0.2788
    1CHL1    C8   14   6.132   5.980   9.940 -0.1545  0.0242 -0.5132
    1CHL1    H8   15   6.166   6.085   9.930 -0.4030  0.2683  0.9983
    1CHL1   C14   16   6.131   5.914   9.799 -0.3752 -0.1736  0.5572
    1CHL1   H14   17   6.105   5.808   9.817  1.6750 -1.2709 -2.2638
    1CHL1   C15   18   6.262   5.907   9.728 -1.7992  0.1037 -0.3371
    1CHL1  H15A   19   6.328   5.992   9.755 -0.8765 -0.3987 -0.9369
    1CHL1  H15B   20   6.319   5.815   9.755  1.3455  2.6536  2.6319
    1CHL1   C16   21   6.229   5.903   9.578  0.4322  0.5989  0.5261
    1CHL1  H16A   22   6.278   5.983   9.520 -0.9709  2.5043  1.8345
    1CHL1  H16B   23   6.252   5.805   9.532  0.9467  0.5571  0.8581
    1CHL1   C17   24   6.075   5.911   9.563  0.3298 -0.4506 -0.1812
    1CHL1   H17   25   6.032   5.808   9.566  0.4754 -0.4965  0.8506
    1CHL1   C13   26   6.030   5.970   9.700 -0.5496  0.0483 -0.3769
    1CHL1   C18   27   6.060   6.122   9.682 -0.3933 -0.1472  0.1261
    1CHL1  H18A   28   6.166   6.139   9.653 -0.5554  2.3608  0.8441
    1CHL1  H18B   29   5.983   6.169   9.618  1.1775  0.9875 -1.0208
    1CHL1  H18C   30   6.057   6.174   9.780 -3.1817  0.1746 -0.0647
    1CHL1   C12   31   5.889   5.948   9.757 -0.2987  0.2246  0.4063
    1CHL1  H12A   32   5.813   5.977   9.682  1.3829 -0.2699 -1.5636
    1CHL1  H12B   33   5.877   5.838   9.768 -1.2435  0.3268  0.4685
    1CHL1   C11   34   5.880   6.014   9.898 -0.3688 -0.2093 -0.5675
    1CHL1  H11A   35   5.902   6.121   9.878  1.7378 -0.3797  0.5096
    1CHL1  H11B   36   5.775   6.000   9.934  0.0501 -2.1007  0.0144
    1CHL1    C9   37   5.986   5.962   9.996 -0.7247  0.6311  0.8377
    1CHL1    H9   38   5.968   5.853  10.006  3.5652 -0.8722 -3.4763
    1CHL1   C10   39   5.970   6.020  10.137 -0.1851  0.1254  0.0450
    1CHL1   C19   40   5.953   6.170  10.126 -0.3884 -0.2456 -0.2637
    1CHL1  H19A   41   5.949   6.223  10.223  3.2808 -1.6692  0.8273
    1CHL1  H19B   42   6.038   6.218  10.074 -0.4052 -0.3244 -0.3652
    1CHL1  H19C   43   5.865   6.204  10.068 -0.7824  0.4192  0.6947
    1CHL1    C1   44   5.853   5.957  10.210  0.3808 -0.0415  0.3430
    1CHL1   H1A   45   5.764   5.991  10.152 -2.4323 -3.8474  1.9476
    1CHL1   H1B   46   5.860   5.848  10.192 -0.1179  0.1238 -0.9504
    1CHL1    C2   47   5.837   5.990  10.362  0.0941 -0.0025 -0.7417
    1CHL1   H2A   48   5.752   5.935  10.407  1.3155 -2.9054 -1.7556
    1CHL1   H2B   49   5.815   6.099  10.366  0.0929 -0.0274  0.7369
    1CHL1   C20   50   6.034   5.981   9.433 -0.8482 -0.0183  0.7030
    1CHL1   H20   51   6.077   6.083   9.424 -0.6225 -0.0772  1.0782
    1CHL1   C21   52   5.877   5.980   9.419  0.3982  1.1304 -0.9133
    1CHL1  H21A   53   5.845   5.994   9.313  1.8693  1.0095 -1.3870
    1CHL1  H21B   54   5.837   6.070   9.471 -0.6604 -0.0471  0.3646
    1CHL1  H21C   55   5.833   5.893   9.472  0.7768  0.2621 -1.9897
    1CHL1   C22   56   6.091   5.908   9.305  0.2554 -0.4162 -0.0826
    1CHL1  H22A   57   6.200   5.887   9.310  0.8478  2.5318  1.3506
    1CHL1  H22B   58   6.025   5.819   9.286  1.2964 -1.0679 -0.7381
    1CHL1   C23   59   6.079   6.001   9.178 -0.0066  0.5516 -0.2340
    1CHL1  H23A   60   5.986   6.061   9.170  0.0546  0.9650  1.7173
    1CHL1  H23B   61   6.162   6.074   9.185 -0.0426  0.4282  2.9427
    1CHL1   C24   62   6.109   5.922   9.045  0.0095  0.1332  0.3003
    1CHL1  H24A   63   6.206   5.870   9.064  1.3006  2.6804  1.1155
    1CHL1  H24B   64   6.014   5.866   9.036 -1.2587  2.2781 -0.4987
    1CHL1   C25   65   6.115   6.009   8.923 -0.4419  0.1013  0.2578
    1CHL1   H25   66   6.024   6.074   8.924 -0.8571 -0.4462 -0.7271
    1CHL1   C26   67   6.240   6.095   8.924 -1.2118  0.5077  0.3048
    1CHL1  H26A   68   6.332   6.033   8.927 -0.5270  1.4934  0.0631
    1CHL1  H26B   69   6.241   6.149   8.827  0.0542  1.0556  0.6065
    1CHL1  H26C   70   6.246   6.166   9.009  1.3341 -1.2941  1.7669
    1CHL1   C27   71   6.115   5.921   8.790 -0.5157  0.3307 -0.1706
    1CHL1  H27A   72   6.111   5.985   8.699  1.9380  2.9253  1.3936
    1CHL1  H27B   73   6.209   5.864   8.807 -0.5647  0.8374  2.2012
    1CHL1  H27C   74   6.029   5.851   8.777  0.7559 -0.9805 -1.9631
    2CHL1    C3   75   1.490   6.494   9.955  0.0889 -1.8938  0.7311
    2CHL1    H3   76   1.382   6.522   9.957  0.5668  0.3216 -0.4254
    2CHL1    O3   77   1.537   6.499  10.090  0.2172 -0.1345  0.4099
    2CHL1   H3'   78   1.504   6.585  10.118 -0.6283 -1.0064  2.2796
    2CHL1    C4   79   1.504   6.347   9.900 -0.1955 -0.0291 -0.2094
    2CHL1   H4A   80   1.611   6.323   9.918 -0.5276 -0.1341  1.8660
    2CHL1   H4B   81   1.453   6.283   9.974 -0.6817  1.4553  0.7686
    2CHL1    C5   82   1.463   6.333   9.755 -0.7025 -0.1230  0.0415
    2CHL1    C6   83   1.366   6.250   9.721  0.2533 -0.1075  0.0399
    2CHL1    H6   84   1.313   6.200   9.803  2.8692 -1.2762  1.1179
    2CHL1    C7   85   1.306   6.247   9.582 -1.1266  0.2075  0.0276
    2CHL1   H7A   86   1.259   6.148   9.564  1.5028 -1.5367  1.9418
    2CHL1   H7B   87   1.222   6.319   9.573 -1.4422 -0.1717 -0.1064
    2CHL1    C8   88   1.414   6.287   9.480 -0.2397 -0.3672 -0.2101
    2CHL1    H8   89   1.490   6.206   9.488  0.1280 -0.0066 -0.0050
    2CHL1   C14   90   1.348   6.299   9.348 -0.6084 -0.1443  0.0557
    2CHL1   H14   91   1.265   6.373   9.352  1.1674  2.1051 -1.7637
    2CHL1   C15   92   1.282   6.170   9.293  0.4721  0.8070  0.1421
    2CHL1  H15A   93   1.337   6.076   9.314  2.1658  0.9701 -2.9438
    2CHL1  H15B   94   1.185   6.175   9.346 -0.5701 -3.9416 -0.8578
    2CHL1   C16   95   1.258   6.192   9.138 -0.5371 -0.3931 -0.5053
    2CHL1  H16A   96   1.309   6.107   9.087  1.2576 -0.7691  1.7404
    2CHL1  H16B   97   1.149   6.187   9.117 -0.2807 -0.2832 -1.9378
    2CHL1   C17   98   1.339   6.323   9.104 -0.2422  0.5719  0.0856
    2CHL1   H17   99   1.277   6.415   9.108  1.7334  1.9221  0.9559
    2CHL1   C13  100   1.432   6.349   9.228  0.1176 -0.3372  0.2703
    2CHL1   C18  101   1.555   6.249   9.208 -0.2749  0.0943 -0.1307
    2CHL1  H18A  102   1.510   6.149   9.187 -0.5356 -0.0528  1.0609
    2CHL1  H18B  103   1.619   6.281   9.124 -0.7884  0.6376 -0.3205
    2CHL1  H18C  104   1.613   6.249   9.303  1.1961  0.9159 -1.0037
    2CHL1   C12  105   1.470   6.494   9.264 -0.4392 -0.1437 -0.2140
    2CHL1  H12A  106   1.538   6.526   9.182  1.9043  0.7811  1.9450
    2CHL1  H12B  107   1.373   6.548   9.254 -0.6786 -0.5475 -0.0893
    2CHL1   C11  108   1.548   6.495   9.396 -0.1355  0.1022 -0.1841
    2CHL1  H11A  109   1.647   6.447   9.381 -0.4187 -0.5570  0.0430
    2CHL1  H11B  110   1.561   6.604   9.414 -0.8268  0.2029 -0.2799
    2CHL1    C9  111   1.470   6.422   9.515 -0.9345 -0.4912 -0.5219
    2CHL1    H9  112   1.380   6.486   9.526 -1.2612 -1.1515  0.9649
    2CHL1   C10  113   1.530   6.437   9.663 -0.0294  0.5353  0.3701
    2CHL1   C19  114   1.681   6.408   9.643 -0.3421  0.2358  0.3527
    2CHL1  H19A  115   1.724   6.488   9.579 -1.6265 -1.2206 -2.5049
    2CHL1  H19B  116   1.732   6.412   9.742  0.4143  0.6511 -0.0390
    2CHL1  H19C  117   1.687   6.305   9.601 -1.2148 -0.3057  1.5110
    2CHL1    C1  118   1.513   6.576   9.721 -0.6195 -1.1000  0.0952
    2CHL1   H1A  119   1.575   6.649   9.666  0.0150 -1.4279  0.3632
    2CHL1   H1B  120   1.409   6.612   9.708 -0.5170 -1.5757 -2.5431
    2CHL1    C2  121   1.567   6.584   9.863 -0.0764  0.3651 -0.5509
    2CHL1   H2A  122   1.565   6.690   9.897  0.3785  0.5636 -1.1298
    2CHL1   H2B  123   1.677   6.567   9.860 -0.0693  0.4000 -0.4984
    2CHL1   C20  124   1.399   6.319   8.957  0.6154 -0.2065 -0.4819
    2CHL1   H20  125   1.470   6.235   8.947  1.8710  0.5046  1.6883
    2CHL1   C21  126   1.481   6.445   8.924 -0.2225  0.2604 -0.4942
    2CHL1  H21A  127   1.427   6.533   8.966  0.0974 -0.5399  1.7227
    2CHL1  H21B  128   1.516   6.446   8.818 -1.1899  0.0850 -0.8346
    2CHL1  H21C  129   1.571   6.436   8.988 -0.2586  1.8751 -0.1963
    2CHL1   C22  130   1.281   6.295   8.860  0.2918 -0.0907  0.2488
    2CHL1  H22A  131   1.231   6.196   8.872  2.1435 -0.9741  1.0832
    2CHL1  H22B  132   1.205   6.374   8.878  0.2778 -0.0431 -0.0148
    2CHL1   C23  133   1.317   6.295   8.711  0.3949 -0.1065  0.2892
    2CHL1  H23A  134   1.219   6.314   8.662  1.7532  2.6147 -1.6788
    2CHL1  H23B  135   1.380   6.382   8.685 -0.9442  1.0721  0.8381
    2CHL1   C24  136   1.383   6.169   8.678  0.0073  0.7490 -0.0894
    2CHL1  H24A  137   1.484   6.185   8.721  0.3730  1.0298 -1.0335
    2CHL1  H24B  138   1.344   6.083   8.736  0.2770  0.1775 -0.7523
    2CHL1   C25  139   1.388   6.120   8.535 -0.0651 -0.3140  0.5536
    2CHL1   H25  140   1.284   6.083   8.523  0.7243 -3.1400  1.5817
    2CHL1   C26  141   1.406   6.238   8.437 -0.1805  1.2752 -0.6020
    2CHL1  H26A  142   1.322   6.308   8.457 -0.7678  0.5466 -0.4301
    2CHL1  H26B  143   1.505   6.281   8.462  0.9514 -2.8319  3.4240
    2CHL1  H26C  144   1.413   6.198   8.334  0.3087 -1.9035  0.5451
    2CHL1   C27  145   1.500   6.014   8.525  0.8714 -0.5737  0.9664
    2CHL1  H27A  146   1.478   5.947   8.438 -0.8340  0.6365  0.4061
    2CHL1  H27B  147   1.598   6.064   8.515  0.5716 -0.1864 -0.1833
    2CHL1  H27C  148   1.507   5.959   8.621  0.8382  2.3812  2.7656
    3CHL1    C3  149   1.028   0.008  10.013 -0.0022 -0.2638  0.0996
    3CHL1    H3  150   0.988   0.110   9.993 -0.3942 -0.6930 -1.4597
    3CHL1    O3  151   1.064  -0.019  10.151 -0.5051 -0.2886  0.3198
    3CHL1   H3'  152   1.139   0.035  10.176  1.0400 -2.2257  0.1390
    3CHL1    C4  153   0.934  -0.105   9.956  0.0228  0.0429 -0.2462
    3CHL1   H4A  154   0.988  -0.200   9.976  0.0240 -0.1898 -1.3017
    3CHL1   H4B  155   0.842  -0.109  10.019 -0.3704 -1.2904 -0.8626
    3CHL1    C5  156   0.906  -0.089   9.812 -0.2439  0.3877  0.2913
    3CHL1    C6  157   0.789  -0.068   9.763 -0.1941  1.2108  0.4755
    3CHL1    H6  158   0.707  -0.055   9.835 -1.7398  0.2393 -1.0293
    3CHL1    C7  159   0.753  -0.078   9.613 -0.2257  0.2718  0.8601
    3CHL1   H7A  160   0.675  -0.157   9.605  1.7889 -1.8815  1.3670
    3CHL1   H7B  161   0.716   0.018   9.571 -3.3465 -0.6005  1.3056
    3CHL1    C8  162   0.872  -0.131   9.523 -0.0763 -0.1841  0.7279
    3CHL1    H8  163   0.873  -0.241   9.537  1.0202 -0.0007  2.3553
    3CHL1   C14  164   0.846  -0.096   9.377 -0.3752 -0.0704 -0.7113
    3CHL1   H14  165   0.843   0.015   9.378 -0.4350 -0.0691  0.9739
    3CHL1   C15  166   0.716  -0.145   9.309  0.2535 -0.4009  0.0280
    3CHL1  H15A  167   0.689  -0.249   9.338 -1.0980 -0.0500  0.1188
    3CHL1  H15B  168   0.630  -0.078   9.328 -1.3348 -2.1768 -0.5691
    3CHL1   C16  169   0.749  -0.149   9.163  0.0974 -0.0249 -0.0410
    3CHL1  H16A  170   0.722  -0.251   9.131  0.3890 -0.6578  1.6443
    3CHL1  H16B  171   0.698  -0.071   9.103  0.1699 -2.4798 -3.5359
    3CHL1   C17  172   0.902  -0.120   9.155 -0.1703 -0.4386 -0.2153
    3CHL1   H17  173   0.915  -0.010   9.141  0.4402 -0.7396 -2.3385
    3CHL1   C13  174   0.963  -0.154   9.287  0.2949  0.0830  0.3021
    3CHL1   C18  175   0.973  -0.316   9.304  0.2844 -0.1469 -0.5635
    3CHL1  H18A  176   1.057  -0.341   9.235  0.1430  2.1282 -1.6855
    3CHL1  H18B  177   1.000  -0.348   9.406  0.3562  2.2587  0.2409
    3CHL1  H18C  178   0.879  -0.364   9.269  0.3066  0.7575 -1.9706
    3CHL1   C12  179   1.093  -0.084   9.329 -0.1256  0.4393 -0.3376
    3CHL1  H12A  180   1.185  -0.108   9.271 -0.7270  0.6236 -1.3782
    3CHL1  H12B  181   1.077   0.025   9.313  1.6508  0.6482 -0.9277
    3CHL1   C11  182   1.126  -0.114   9.471  0.4601  0.6839  0.2772
    3CHL1  H11A  183   1.155  -0.221   9.478  0.5341  0.7220  0.5699
    3CHL1  H11B  184   1.216  -0.054   9.497  0.7708  0.6607 -0.7170
    3CHL1    C9  185   1.008  -0.071   9.566 -0.2996 -0.2646  0.7497
    3CHL1    H9  186   1.005   0.040   9.558  4.8344  0.1204  1.3210
    3CHL1   C10  187   1.032  -0.095   9.720 -0.2583  0.3575 -0.0690
    3CHL1   C19  188   1.100  -0.238   9.724 -0.3868  0.3026 -0.3331
    3CHL1  H19A  189   1.209  -0.237   9.702 -0.5637 -2.2740 -1.7035
    3CHL1  H19B  190   1.094  -0.276   9.828  0.5467  0.3135 -0.2664
    3CHL1  H19C  191   1.057  -0.314   9.656  0.0381 -1.2251  1.0468
    3CHL1    C1  192   1.129   0.014   9.779  0.1665 -0.1900  0.5329
    3CHL1   H1A  193   1.226   0.003   9.725  0.8437  0.9406  1.4902
    3CHL1   H1B  194   1.099   0.118   9.755 -0.4849 -0.1307  1.5632
    3CHL1    C2  195   1.164   0.006   9.928  0.0684 -0.2252  0.2174
    3CHL1   H2A  196   1.216   0.099   9.962 -1.6227  0.4235  1.1751
    3CHL1   H2B  197   1.224  -0.083   9.955 -0.0747 -0.4915 -0.3344
    3CHL1   C20  198   0.956  -0.187   9.028  0.3205 -0.7016  0.0918
    3CHL1   H20  199   0.953  -0.297   9.046  2.3588 -0.7374  0.3804
    3CHL1   C21  200   1.109  -0.145   9.005  0.1592  0.0965 -0.3147
    3CHL1  H21A  201   1.154  -0.171   8.907  1.2921 -0.0588  0.2331
    3CHL1  H21B  202   1.171  -0.199   9.079 -0.2844 -0.0819 -0.0735
    3CHL1  H21C  203   1.123  -0.036   9.025 -1.1185  0.2471 -0.1238
    3CHL1   C22  204   0.863  -0.153   8.912 -0.6055 -0.2744  0.6487
    3CHL1  H22A  205   0.775  -0.221   8.918  1.5342 -3.1871  0.9099
    3CHL1  H22B  206   0.827  -0.049   8.929  0.0873  0.1271 -0.2216
    3CHL1   C23  207   0.922  -0.164   8.769  0.1202 -0.4004  0.0448
    3CHL1  H23A  208   1.011  -0.098   8.757 -0.5253  0.4018 -0.4747
    3CHL1  H23B  209   0.952  -0.267   8.741  2.1043 -0.3840  1.8323
    3CHL1   C24  210   0.822  -0.098   8.670 -0.3437  0.4118  0.5378
    3CHL1  H24A  211   0.738  -0.170   8.658 -1.1856  1.0764  2.0845
    3CHL1  H24B  212   0.794   0.000   8.714  0.8223  0.8660  0.3075
    3CHL1   C25  213   0.894  -0.069   8.535 -0.0731  1.1681  1.3871
    3CHL1   H25  214   0.974   0.005   8.559  2.1300 -0.8252  0.6088
    3CHL1   C26  215   0.964  -0.200   8.471  0.0726  1.2034  0.4127
    3CHL1  H26A  216   0.886  -0.275   8.447  2.1906 -0.6943 -0.9638
    3CHL1  H26B  217   1.026  -0.172   8.383 -1.7410 -1.3467 -1.8113
    3CHL1  H26C  218   1.029  -0.259   8.539 -0.4507  0.0582 -0.0548
    3CHL1   C27  219   0.792  -0.015   8.428 -0.6833 -0.1124 -0.2043
    3CHL1  H27A  220   0.857   0.008   8.342  0.5253 -2.5329 -0.0368
    3CHL1  H27B  221   0.718  -0.093   8.398 -0.0077 -1.0852  0.5614
    3CHL1  H27C  222   0.745   0.077   8.469  2.7252  1.3625  0.7167
    4CHL1    C3  223   5.299   5.785  10.475 -0.8533 -0.5571  0.2610
    4CHL1    H3  224   5.241   5.692  10.460  1.2435 -2.6315  3.7043
    4CHL1    O3  225   5.317   5.815  10.613  0.4704 -0.2243 -0.3441
    4CHL1   H3'  226   5.350   5.905  10.619 -1.2329  0.4379 -0.2815
    4CHL1    C4  227   5.442   5.773  10.428 -0.2570 -0.1342  0.1046
    4CHL1   H4A  228   5.505   5.861  10.450 -1.5268  0.7265  0.3984
    4CHL1   H4B  229   5.491   5.694  10.489 -0.1977 -0.2150 -0.0457
    4CHL1    C5  230   5.444   5.746  10.279  0.0380  0.1682 -0.1272
    4CHL1    C6  231   5.504   5.639  10.228 -0.0571 -0.0102 -0.1857
    4CHL1    H6  232   5.547   5.575  10.307 -1.3252 -1.2207 -0.4379
    4CHL1    C7  233   5.529   5.599  10.090  0.0340  0.7082  0.2113
    4CHL1   H7A  234   5.628   5.550  10.075 -0.7614 -0.5811 -1.1105
    4CHL1   H7B  235   5.450   5.524  10.067  0.9594 -0.1977 -0.1528
    4CHL1    C8  236   5.496   5.724  10.004 -0.4514  0.3097  0.4888
    4CHL1    H8  237   5.586   5.790  10.003  0.1445 -0.4612 -1.2973
    4CHL1   C14  238   5.481   5.679   9.856  0.2302 -0.6921 -0.2296
    4CHL1   H14  239   5.405   5.598   9.856  2.2885 -2.8249 -2.7043
    4CHL1   C15  240   5.599   5.615   9.780  1.2621 -0.4394 -0.1848
    4CHL1  H15A  241   5.694   5.668   9.802  1.7264 -1.1730 -0.3605
    4CHL1  H15B  242   5.611   5.511   9.818 -0.8155 -0.9880 -0.9053
    4CHL1   C16  243   5.566   5.629   9.632  0.0145  0.0955  0.1901
    4CHL1  H16A  244   5.658   5.662   9.579 -1.0783  0.7838 -1.3645
    4CHL1  H16B  245   5.522   5.532   9.602 -1.8459  0.4336  1.6545
    4CHL1   C17  246   5.451   5.739   9.625  0.2567 -0.5611  0.1236
    4CHL1   H17  247   5.354   5.687   9.614  0.2282 -0.5331  0.2378
    4CHL1   C13  248   5.442   5.804   9.766  0.1534  0.2283  0.6968
    4CHL1   C18  249   5.545   5.913   9.779 -0.1207 -0.0826  0.1878
    4CHL1  H18A  250   5.631   5.874   9.720 -0.0877 -0.3179  0.3909
    4CHL1  H18B  251   5.502   6.000   9.725  0.7117  1.6566  2.2105
    4CHL1  H18C  252   5.573   5.934   9.884 -0.2379 -3.1628  0.9540
    4CHL1   C12  253   5.306   5.841   9.811  0.0571  0.4658 -0.1006
    4CHL1  H12A  254   5.268   5.915   9.737 -2.0397  1.1572  1.5776
    4CHL1  H12B  255   5.236   5.755   9.807  0.5915  0.0570 -1.0804
    4CHL1   C11  256   5.304   5.895   9.954 -0.3601  0.3345 -0.2550
    4CHL1  H11A  257   5.358   5.992   9.952 -1.5788  1.0440 -0.2954
    4CHL1  H11B  258   5.200   5.918   9.988  0.3848  0.0299  2.4315
    4CHL1    C9  259   5.359   5.793  10.051 -0.3587  0.1826  0.5807
    4CHL1    H9  260   5.289   5.708  10.060  0.4130 -0.3341  1.9702
    4CHL1   C10  261   5.366   5.853  10.194  0.1072 -0.2320 -0.6997
    4CHL1   C19  262   5.446   5.988  10.190 -0.0567 -0.1912  0.2878
    4CHL1  H19A  263   5.489   6.016  10.289 -3.5390 -0.3790  2.0283
    4CHL1  H19B  264   5.529   5.978  10.117 -0.7054  1.7651 -0.7939
    4CHL1  H19C  265   5.385   6.075  10.158 -1.6343 -0.8130  1.4447
    4CHL1    C1  266   5.230   5.877  10.255 -0.0128  0.0483 -0.2216
    4CHL1   H1A  267   5.186   5.960  10.195 -1.3862 -0.6762 -0.2492
    4CHL1   H1B  268   5.168   5.789  10.231 -1.2192  0.5864  0.8087
    4CHL1    C2  269   5.233   5.904  10.406  0.4432 -0.2707  0.3431
    4CHL1   H2A  270   5.126   5.904  10.435 -0.4081 -0.3863 -2.4806
    4CHL1   H2B  271   5.281   6.003  10.424  0.4458 -0.1340 -0.3857
    4CHL1   C20  272   5.458   5.829   9.501  0.1947 -0.4200 -0.3759
    4CHL1   H20  273   5.556   5.883   9.500 -0.9971  1.8590 -1.5743
    4CHL1   C21  274   5.353   5.941   9.488 -0.5715  0.4576 -0.4858
    4CHL1  H21A  275   5.377   6.025   9.556  0.6393  1.8446 -2.5275
    4CHL1  H21B  276   5.254   5.899   9.516  0.5012 -0.9565  1.4161
    4CHL1  H21C  277   5.353   5.990   9.388  0.6875 -0.1987 -0.8248
    4CHL1   C22  278   5.436   5.738   9.386 -0.2912 -0.3955  0.6533
    4CHL1  H22A  279   5.493   5.643   9.385  1.6067  0.6882 -1.3545
    4CHL1  H22B  280   5.326   5.724   9.376 -0.4436  1.4815 -0.9439
    4CHL1   C23  281   5.480   5.811   9.254  0.3219 -0.6811 -0.2409
    4CHL1  H23A  282   5.405   5.877   9.206  0.5291  0.7029  1.2351
    4CHL1  H23B  283   5.565   5.879   9.279  1.8016 -3.1434  1.8939
    4CHL1   C24  284   5.539   5.710   9.163 -0.6066  0.4545  0.0993
    4CHL1  H24A  285   5.638   5.688   9.207 -2.0924 -1.0670  2.9939
    4CHL1  H24B  286   5.475   5.619   9.156  1.5673 -1.0872 -0.9199
    4CHL1   C25  287   5.549   5.760   9.020 -0.1843  0.4546  0.0650
    4CHL1   H25  288   5.447   5.771   8.977 -0.2916  2.3552  0.6852
    4CHL1   C26  289   5.630   5.883   9.000 -0.4258 -0.8231 -0.0857
    4CHL1  H26A  290   5.631   5.935   8.902  2.3685  0.2053  0.3994
    4CHL1  H26B  291   5.599   5.963   9.070  2.9615 -1.7279  2.7704
    4CHL1  H26C  292   5.737   5.855   9.017 -0.3746 -0.6871 -0.1762
    4CHL1   C27  293   5.612   5.645   8.926  0.0689  0.3726 -0.0652
    4CHL1  H27A  294   5.629   5.690   8.826 -0.9744  0.2065 -0.3235
    4CHL1  H27B  295   5.711   5.610   8.962 -1.1842 -2.5134  0.8368
    4CHL1  H27C  296   5.536   5.565   8.918  0.3501  0.1950 -1.0493
    5CHL1    C3  297   0.600   4.043  10.097 -1.3567 -0.0164 -0.2342
    5CHL1    H3  298   0.684   4.114  10.117 -1.4888  0.1510 -0.2754
    5CHL1    O3  299   0.570   4.002  10.231  0.1879  0.0806  0.1995
    5CHL1   H3'  300   0.565   4.081  10.285  5.0868  0.3207  0.7208
    5CHL1    C4  301   0.479   4.109  10.034  0.1547  0.4859 -0.4245
    5CHL1   H4A  302   0.388   4.049  10.057  0.4619 -0.8813 -2.4786
    5CHL1   H4B  303   0.471   4.211  10.076 -1.1654  0.2984 -0.1834
    5CHL1    C5  304   0.484   4.141   9.888 -1.0581  0.1809 -0.8219
    5CHL1    C6  305   0.459   4.259   9.830  0.8929 -0.5014 -0.2104
    5CHL1    H6  306   0.427   4.340   9.896  2.2573 -0.6630  0.6885
    5CHL1    C7  307   0.475   4.286   9.684  0.5022 -0.0723 -0.3618
    5CHL1   H7A  308   0.383   4.340   9.652  0.1289  0.8649  2.0623
    5CHL1   H7B  309   0.558   4.358   9.668  0.6084 -0.3952 -1.3624
    5CHL1    C8  310   0.470   4.156   9.602  0.3872 -0.6056 -0.1266
    5CHL1    H8  311   0.367   4.116   9.594  0.5245 -1.1537  0.7189
    5CHL1   C14  312   0.529   4.189   9.464 -0.2371  0.8195  0.4186
    5CHL1   H14  313   0.633   4.221   9.488  0.2880 -0.7955  0.4436
    5CHL1   C15  314   0.466   4.310   9.385 -0.1055 -0.7876  0.6454
    5CHL1  H15A  315   0.359   4.324   9.413 -0.2036 -0.6743  0.2178
    5CHL1  H15B  316   0.510   4.406   9.417 -0.5047 -0.2836 -0.2721
    5CHL1   C16  317   0.493   4.281   9.236  0.3282 -0.4121 -0.6990
    5CHL1  H16A  318   0.401   4.272   9.173  0.9102  0.7574 -1.7771
    5CHL1  H16B  319   0.562   4.356   9.192  0.3246 -1.0782 -1.8810
    5CHL1   C17  320   0.572   4.147   9.231 -0.1277  0.3380  0.8666
    5CHL1   H17  321   0.679   4.169   9.255 -0.0554 -0.0860  0.9533
    5CHL1   C13  322   0.527   4.077   9.364  0.0913 -0.2823 -0.5761
    5CHL1   C18  323   0.387   4.030   9.337  0.0068 -0.0786 -0.3558
    5CHL1  H18A  324   0.315   4.112   9.318 -1.3767 -1.2035 -0.1982
    5CHL1  H18B  325   0.391   3.949   9.261  1.1797  0.3693 -0.7796
    5CHL1  H18C  326   0.344   3.984   9.429 -2.8096  2.2830 -0.3490
    5CHL1   C12  327   0.613   3.960   9.428  0.2533  0.3646  0.0580
    5CHL1  H12A  328   0.598   3.872   9.362  2.9843 -1.2322  1.4257
    5CHL1  H12B  329   0.719   3.991   9.419 -0.2917  1.9160 -1.5677
    5CHL1   C11  330   0.574   3.928   9.570 -0.3102 -0.8530 -0.5666
    5CHL1  H11A  331   0.474   3.883   9.557 -0.1902 -1.3648  0.2472
    5CHL1  H11B  332   0.650   3.855   9.603 -1.3364 -1.2063  1.1090
    5CHL1    C9  333   0.559   4.055   9.665  0.2574  0.7486  0.0942
    5CHL1    H9  334   0.662   4.093   9.675 -0.0477  1.6293 -0.0239
    5CHL1   C10  335   0.530   4.013   9.807 -0.0259  0.5926  0.2537
    5CHL1   C19  336   0.414   3.914   9.816 -0.6195 -0.2058  0.6601
    5CHL1  H19A  337   0.439   3.826   9.753  0.2655  0.8562 -0.5286
    5CHL1  H19B  338   0.384   3.874   9.915  1.2997  0.5557  1.5927
    5CHL1  H19C  339   0.325   3.958   9.765  0.2845  0.5393 -0.3331
    5CHL1    C1  340   0.659   3.953   9.872  0.1374  0.7877  0.7197
    5CHL1   H1A  341   0.675   3.853   9.827 -1.7898  0.8057 -0.1141
    5CHL1   H1B  342   0.749   4.013   9.851 -0.5399  1.4549 -0.4122
    5CHL1    C2  343   0.651   3.925  10.025 -0.4360 -0.1118  0.5350
    5CHL1   H2A  344   0.750   3.893  10.063 -0.3373 -0.8120 -0.2732
    5CHL1   H2B  345   0.580   3.841  10.040  0.3522 -0.8549  0.1561
    5CHL1   C20  346   0.561   4.070   9.095  0.1604 -0.1371  0.3684
    5CHL1   H20  347   0.456   4.037   9.076  0.1262 -0.5800  1.2849
    5CHL1   C21  348   0.660   3.947   9.095  0.2498 -0.5614  0.1954
    5CHL1  H21A  349   0.634   3.867   9.168  4.0269 -1.3150  0.9584
    5CHL1  H21B  350   0.764   3.971   9.126  0.4500  1.7770 -2.0178
    5CHL1  H21C  351   0.671   3.911   8.991 -0.5479  1.7846 -0.7456
    5CHL1   C22  352   0.608   4.155   8.978 -0.2835  0.8000 -0.3233
    5CHL1  H22A  353   0.652   4.249   9.017 -0.3355  1.1013 -0.9752
    5CHL1  H22B  354   0.684   4.096   8.923  0.6808 -0.0162  1.7698
    5CHL1   C23  355   0.502   4.191   8.871  0.3949 -0.2378 -0.3111
    5CHL1  H23A  356   0.472   4.099   8.816  1.0016  0.2442 -1.4876
    5CHL1  H23B  357   0.414   4.245   8.911  2.3523  0.3152  3.6830
    5CHL1   C24  358   0.564   4.289   8.779  0.2434  0.5047 -0.5228
    5CHL1  H24A  359   0.598   4.379   8.835 -1.1478  1.3309 -0.9523
    5CHL1  H24B  360   0.650   4.244   8.725 -1.2228 -1.0715 -1.6664
    5CHL1   C25  361   0.463   4.339   8.673  0.0379  0.6167 -0.9235
    5CHL1   H25  362   0.366   4.368   8.720 -0.4931 -1.1791 -0.8192
    5CHL1   C26  363   0.527   4.446   8.585 -1.0846 -0.4008 -0.3949
    5CHL1  H26A  364   0.621   4.420   8.533 -0.7383  0.7953 -0.3950
    5CHL1  H26B  365   0.450   4.480   8.513 -2.2913  1.1073  1.4991
    5CHL1  H26C  366   0.561   4.535   8.642  1.7525 -1.7583  0.2161
    5CHL1   C27  367   0.416   4.224   8.573 -0.1054 -0.0462 -0.4912
    5CHL1  H27A  368   0.506   4.209   8.509  1.0409 -1.0578  1.2837
    5CHL1  H27B  369   0.393   4.130   8.626 -0.2610  1.4378  2.2635
    5CHL1  H27C  370   0.334   4.268   8.513  0.7001 -0.5604 -2.0290
    6CHL1    C3  371   4.439   2.273   9.976 -0.1692 -0.7267  0.4065
    6CHL1    H3  372   4.360   2.331   9.923  0.6858  1.3296  1.2735
    6CHL1    O3  373   4.389   2.249  10.105 -0.1240 -0.2765 -0.3813
    6CHL1   H3'  374   4.463   2.220  10.158 -1.7376  1.2245  2.9826
    6CHL1    C4  375   4.476   2.147   9.901 -0.7404  0.1882 -0.1843
    6CHL1   H4A  376   4.572   2.120   9.950 -1.1468 -3.5869 -1.1854
    6CHL1   H4B  377   4.401   2.065   9.911  0.9298 -1.7017 -2.2237
    6CHL1    C5  378   4.504   2.180   9.753  0.0167 -0.1818  0.4012
    6CHL1    C6  379   4.438   2.125   9.649  0.1232  0.5133 -0.3248
    6CHL1    H6  380   4.354   2.055   9.663  0.2638 -0.0732 -2.2073
    6CHL1    C7  381   4.465   2.151   9.503 -0.4784 -0.2947 -0.6647
    6CHL1   H7A  382   4.474   2.059   9.441 -1.8354  0.1381 -1.5562
    6CHL1   H7B  383   4.372   2.199   9.466 -0.4537 -0.8901 -1.5285
    6CHL1    C8  384   4.589   2.254   9.482  0.4215  0.0211 -0.4547
    6CHL1    H8  385   4.674   2.183   9.469 -0.5290 -1.0851 -0.8053
    6CHL1   C14  386   4.575   2.341   9.355  0.5377  0.3683  0.0574
    6CHL1   H14  387   4.494   2.415   9.368 -0.4616 -0.7093  0.1767
    6CHL1   C15  388   4.527   2.268   9.229 -0.0798 -0.3835 -0.7756
    6CHL1  H15A  389   4.579   2.173   9.252  0.2534  0.6402  3.6896
    6CHL1  H15B  390   4.421   2.236   9.222 -0.3042 -0.1401  1.0607
    6CHL1   C16  391   4.580   2.350   9.118  0.3559  0.7251  0.6111
    6CHL1  H16A  392   4.652   2.287   9.060  0.0322 -0.2028  1.2078
    6CHL1  H16B  393   4.497   2.397   9.061  1.1600  1.4819  0.0377
    6CHL1   C17  394   4.667   2.461   9.174 -0.2919  0.1280  0.3334
    6CHL1   H17  395   4.597   2.542   9.203 -2.0583 -1.4604  0.6768
    6CHL1   C13  396   4.706   2.412   9.312  0.2133  0.4385 -0.3236
    6CHL1   C18  397   4.823   2.305   9.289 -0.0942 -0.4482  0.3997
    6CHL1  H18A  398   4.797   2.244   9.199  1.9435  0.4253 -0.8628
    6CHL1  H18B  399   4.917   2.360   9.264 -1.0700  1.7896  1.3867
    6CHL1  H18C  400   4.858   2.248   9.378  0.7840 -2.1255 -0.9541
    6CHL1   C12  401   4.735   2.501   9.428  0.4145 -0.4633 -0.1080
    6CHL1  H12A  402   4.839   2.541   9.421 -0.0939  0.8681 -0.2120
    6CHL1  H12B  403   4.666   2.588   9.432  0.0860 -0.7725  1.1622
    6CHL1   C11  404   4.743   2.429   9.570  0.5321 -0.3599 -0.7911
    6CHL1  H11A  405   4.841   2.380   9.585  0.5471 -0.1965 -0.3327
    6CHL1  H11B  406   4.737   2.517   9.638  1.0006 -1.3425  0.5703
    6CHL1    C9  407   4.615   2.347   9.595 -0.0528 -0.6547 -0.2198
    6CHL1    H9  408   4.528   2.417   9.590  0.0078 -0.5152  0.5207
    6CHL1   C10  409   4.614   2.288   9.739  0.2719 -0.5470  0.7605
    6CHL1   C19  410   4.756   2.223   9.774  0.3359 -0.4307 -0.4390
    6CHL1  H19A  411   4.756   2.164   9.868  1.0300 -2.5877 -1.7375
    6CHL1  H19B  412   4.790   2.154   9.694 -0.4748  0.8479 -1.9280
    6CHL1  H19C  413   4.840   2.296   9.780  0.3964 -0.4439 -1.1048
    6CHL1    C1  414   4.598   2.406   9.848 -0.1918  0.0299 -0.5757
    6CHL1   H1A  415   4.685   2.475   9.840  0.9981 -1.0457  1.9843
    6CHL1   H1B  416   4.510   2.463   9.812 -0.7070  1.5557  2.7395
    6CHL1    C2  417   4.559   2.363   9.990 -0.2876 -0.1754 -0.4777
    6CHL1   H2A  418   4.531   2.458  10.038  2.4019  1.1273 -1.2851
    6CHL1   H2B  419   4.640   2.319  10.052  1.4181  3.5785  0.1808
    6CHL1   C20  420   4.762   2.531   9.090 -0.1996  0.5392 -0.1216
    6CHL1   H20  421   4.851   2.465   9.082 -1.3707 -1.0513 -0.6888
    6CHL1   C21  422   4.801   2.664   9.158 -0.4566 -0.0309  0.1394
    6CHL1  H21A  423   4.714   2.734   9.162  0.4348  1.1409 -0.4379
    6CHL1  H21B  424   4.876   2.719   9.098  1.4467 -0.3287  2.1165
    6CHL1  H21C  425   4.850   2.654   9.257  1.1751 -4.1415 -0.8693
    6CHL1   C22  426   4.716   2.554   8.945 -0.3958 -0.1143  0.5108
    6CHL1  H22A  427   4.708   2.449   8.909  0.9072 -1.1512  3.0061
    6CHL1  H22B  428   4.617   2.604   8.940 -0.6785 -0.7286 -0.3294
    6CHL1   C23  429   4.816   2.629   8.856  0.2660  0.7566 -0.0414
    6CHL1  H23A  430   4.816   2.735   8.890  1.4598  0.5486  0.6665
    6CHL1  H23B  431   4.917   2.587   8.873 -0.6995 -1.9274 -0.4125
    6CHL1   C24  432   4.784   2.625   8.702 -0.3529  0.7376  0.5031
    6CHL1  H24A  433   4.796   2.526   8.654 -4.0585 -0.4858  1.7514
    6CHL1  H24B  434   4.678   2.658   8.701 -0.4277  0.5375  1.3143
    6CHL1   C25  435   4.863   2.720   8.614 -0.1148 -0.1291 -0.6783
    6CHL1   H25  436   4.964   2.717   8.661 -0.2343 -0.0667 -0.4141
    6CHL1   C26  437   4.890   2.678   8.472 -0.2639  0.0569 -0.3755
    6CHL1  H26A  438   4.937   2.762   8.418 -1.9467 -0.6289 -3.0751
    6CHL1  H26B  439   4.942   2.581   8.455 -1.4615 -0.2904 -2.2763
    6CHL1  H26C  440   4.793   2.658   8.421 -0.2072 -0.0555 -0.4399
    6CHL1   C27  441   4.817   2.863   8.636  0.2467 -0.0727 -0.2322
    6CHL1  H27A  442   4.790   2.900   8.737  2.1520 -1.5127  0.8596
    6CHL1  H27B  443   4.908   2.927   8.631 -0.7819  1.6778  1.8593
    6CHL1  H27C  444   4.737   2.887   8.562  0.5222  1.7800  0.0187
    7CHL1    C3  445   1.627   0.331  10.068  0.1227 -0.2927  0.2889
    7CHL1    H3  446   1.603   0.223  10.074 -0.3393 -0.1263  2.4070
    7CHL1    O3  447   1.653   0.386  10.199  0.6520  0.3289 -0.1860
    7CHL1   H3'  448   1.744   0.364  10.220  0.5174  0.6933  0.8400
    7CHL1    C4  449   1.743   0.360   9.975 -0.3909  0.0722 -0.3613
    7CHL1   H4A  450   1.761   0.469   9.964 -1.3198  0.3833  0.9935
    7CHL1   H4B  451   1.840   0.320  10.013 -0.8294  0.8938  1.7665
    7CHL1    C5  452   1.706   0.296   9.840 -1.0608  0.3604 -0.2337
    7CHL1    C6  453   1.789   0.202   9.785  0.2605 -1.6768  0.3394
    7CHL1    H6  454   1.879   0.172   9.840  1.2814 -0.4432 -0.6188
    7CHL1    C7  455   1.771   0.141   9.645 -0.5936 -1.0766 -0.0982
    7CHL1   H7A  456   1.871   0.142   9.596 -0.6340  1.0115 -0.2362
    7CHL1   H7B  457   1.750   0.033   9.658 -0.0544 -1.2879 -0.8933
    7CHL1    C8  458   1.668   0.223   9.566 -0.2274 -0.2728  1.2595
    7CHL1    H8  459   1.716   0.319   9.537 -0.6219  0.0432  1.6298
    7CHL1   C14  460   1.613   0.152   9.448  0.0513  0.4090 -0.1130
    7CHL1   H14  461   1.553   0.073   9.498 -0.5964  2.1673  2.0437
    7CHL1   C15  462   1.718   0.093   9.349  0.0148 -0.3227 -0.3469
    7CHL1  H15A  463   1.801   0.165   9.333  0.1842 -0.3355  0.4298
    7CHL1  H15B  464   1.765  -0.001   9.387 -0.3632  0.6813  2.8954
    7CHL1   C16  465   1.647   0.065   9.217  0.0079 -0.6002 -0.1673
    7CHL1  H16A  466   1.707   0.103   9.132  1.2423  0.9909  1.3226
    7CHL1  H16B  467   1.646  -0.044   9.195  0.4563 -0.9548  1.4222
    7CHL1   C17  468   1.505   0.129   9.231 -0.1257  0.4704 -0.4851
    7CHL1   H17  469   1.435   0.053   9.272  0.4605  0.4806  0.5586
    7CHL1   C13  470   1.520   0.227   9.351  0.2314  0.4333  0.4368
    7CHL1   C18  471   1.581   0.362   9.315  0.2198  0.2925 -0.6522
    7CHL1  H18A  472   1.509   0.430   9.263  0.5013  1.4775  0.4551
    7CHL1  H18B  473   1.628   0.424   9.394  0.7249 -0.2217 -0.5508
    7CHL1  H18C  474   1.661   0.339   9.242 -0.1505 -1.3579 -0.5750
    7CHL1   C12  475   1.390   0.246   9.440  0.4212 -0.3672  1.0367
    7CHL1  H12A  476   1.334   0.327   9.388 -0.7065 -1.5514  0.3448
    7CHL1  H12B  477   1.331   0.153   9.454 -1.1094  0.5693  1.0610
    7CHL1   C11  478   1.421   0.314   9.565  0.3814  0.2869 -0.1480
    7CHL1  H11A  479   1.449   0.418   9.535 -1.9797  1.0542  0.0871
    7CHL1  H11B  480   1.331   0.310   9.630 -0.1327 -0.0427 -0.8747
    7CHL1    C9  481   1.544   0.259   9.652  0.0575  0.2244  0.0930
    7CHL1    H9  482   1.512   0.161   9.694  0.6131 -0.3306 -0.7501
    7CHL1   C10  483   1.582   0.342   9.773  0.9297  0.3269 -0.0513
    7CHL1   C19  484   1.609   0.493   9.730 -0.4870  0.5186  0.8318
    7CHL1  H19A  485   1.668   0.490   9.636  0.1628  2.3048  1.1302
    7CHL1  H19B  486   1.514   0.546   9.707  0.3902  1.2299 -1.4222
    7CHL1  H19C  487   1.656   0.550   9.813 -0.2253 -1.5748  2.1721
    7CHL1    C1  488   1.470   0.346   9.880 -0.0698 -0.6839  0.2752
    7CHL1   H1A  489   1.392   0.413   9.838  2.4567  2.0786 -0.3399
    7CHL1   H1B  490   1.429   0.245   9.899 -0.9029 -0.4125 -0.0283
    7CHL1    C2  491   1.511   0.413  10.015 -0.0498  0.0332 -0.5447
    7CHL1   H2A  492   1.421   0.419  10.079 -0.0407  1.9010 -0.6663
    7CHL1   H2B  493   1.540   0.520  10.003 -1.0237  0.5218  1.1745
    7CHL1   C20  494   1.457   0.184   9.099 -0.5423 -0.0465 -0.3068
    7CHL1   H20  495   1.523   0.269   9.070 -0.4811 -0.3081 -0.9441
    7CHL1   C21  496   1.313   0.249   9.107 -0.4339 -0.1219  0.1331
    7CHL1  H21A  497   1.228   0.180   9.126 -1.2491  1.2701  1.7927
    7CHL1  H21B  498   1.289   0.300   9.012  0.2675 -0.5751 -0.2929
    7CHL1  H21C  499   1.308   0.333   9.180 -0.0799 -1.2513  1.5148
    7CHL1   C22  500   1.472   0.083   8.995  1.1364  0.3904  0.0972
    7CHL1  H22A  501   1.579   0.055   8.983  1.1840  0.9108 -0.7596
    7CHL1  H22B  502   1.416  -0.007   9.028  0.5255  0.1041 -1.6088
    7CHL1   C23  503   1.414   0.102   8.855  0.1781  0.2031 -0.5575
    7CHL1  H23A  504   1.311   0.143   8.859 -0.1083 -0.2573 -2.2027
    7CHL1  H23B  505   1.479   0.183   8.815  0.9733 -0.9414 -1.6712
    7CHL1   C24  506   1.429  -0.020   8.758  0.2043 -0.4392 -0.1270
    7CHL1  H24A  507   1.520  -0.072   8.796 -1.1298 -2.3506  0.5992
    7CHL1  H24B  508   1.350  -0.097   8.767 -0.4714 -0.0820 -2.3773
    7CHL1   C25  509   1.435   0.013   8.610 -0.4160 -0.4520 -0.1896
    7CHL1   H25  510   1.361   0.092   8.583  2.6177  2.3519 -1.0198
    7CHL1   C26  511   1.572   0.071   8.563  0.6985  0.6327 -0.5179
    7CHL1  H26A  512   1.596   0.164   8.618 -0.5305  0.2220  0.7684
    7CHL1  H26B  513   1.661   0.006   8.580  1.0946  1.4109  0.5085
    7CHL1  H26C  514   1.578   0.089   8.454 -1.1612 -1.8760 -1.1254
    7CHL1   C27  515   1.425  -0.109   8.522 -0.0583 -0.3563 -0.0286
    7CHL1  H27A  516   1.498  -0.179   8.568 -1.2073 -2.0321 -0.6741
    7CHL1  H27B  517   1.324  -0.151   8.545 -0.6253  2.4209  3.6809
    7CHL1  H27C  518   1.445  -0.080   8.417 -0.3961 -0.2225 -0.0585
    8CHL1    C3  519   2.927   0.522   9.595  0.0453  0.7375  0.5493
    8CHL1    H3  520   2.981   0.614   9.625 -0.1361  0.8473  0.5347
    8CHL1    O3  521   2.934   0.430   9.709 -0.2957 -0.7980 -0.3190
    8CHL1   H3'  522   3.029   0.414   9.718  0.3315  1.6725 -1.6529
    8CHL1    C4  523   2.782   0.545   9.551  0.1595  0.4494 -0.9514
    8CHL1   H4A  524   2.751   0.441   9.528  0.7251 -0.3228  1.4605
    8CHL1   H4B  525   2.721   0.575   9.639  0.7234  2.2947 -1.1516
    8CHL1    C5  526   2.769   0.632   9.434 -1.2213  0.5221  0.1957
    8CHL1    C6  527   2.702   0.745   9.446  0.3783  0.5469  0.1664
    8CHL1    H6  528   2.648   0.768   9.539  1.0205 -0.8501  0.9111
    8CHL1    C7  529   2.683   0.839   9.331 -0.0485 -0.7849  0.3747
    8CHL1   H7A  530   2.585   0.891   9.334  0.3412  0.0191 -0.2844
    8CHL1   H7B  531   2.753   0.923   9.349 -0.7957 -0.0011 -0.2582
    8CHL1    C8  532   2.726   0.789   9.191 -0.1805  0.7047 -0.0207
    8CHL1    H8  533   2.659   0.707   9.158 -0.5706  1.0892 -0.1914
    8CHL1   C14  534   2.742   0.898   9.086  0.2909  0.5798  0.2866
    8CHL1   H14  535   2.805   0.980   9.126  2.5945 -1.1009  0.2631
    8CHL1   C15  536   2.621   0.982   9.043 -0.5530 -0.1447 -0.1851
    8CHL1  H15A  537   2.526   0.925   9.032  0.6432 -2.3403  0.4306
    8CHL1  H15B  538   2.590   1.052   9.124 -2.4230 -0.9409 -0.1592
    8CHL1   C16  539   2.649   1.045   8.907  0.8726 -0.8978  0.2049
    8CHL1  H16A  540   2.575   1.031   8.825  0.9975  0.7308 -0.2247
    8CHL1  H16B  541   2.656   1.156   8.901  2.2691 -0.9626  0.3532
    8CHL1   C17  542   2.791   0.982   8.870 -0.3346  0.3408  0.1077
    8CHL1   H17  543   2.873   1.043   8.915 -1.4734  2.1183 -0.1037
    8CHL1   C13  544   2.799   0.851   8.950 -1.1609  0.6039  0.1040
    8CHL1   C18  545   2.712   0.741   8.879 -0.6480 -0.3295  0.0345
    8CHL1  H18A  546   2.679   0.669   8.956  0.3030 -0.0280  0.7492
    8CHL1  H18B  547   2.622   0.793   8.840  1.6061  2.0737 -2.3295
    8CHL1  H18C  548   2.763   0.696   8.792 -1.0421  0.6949 -0.7457
    8CHL1   C12  549   2.933   0.794   8.985 -0.0037 -0.5555 -0.5497
    8CHL1  H12A  550   2.991   0.773   8.892 -0.3036 -4.0279 -0.0949
    8CHL1  H12B  551   2.997   0.870   9.034  1.9140 -2.6131  0.3237
    8CHL1   C11  552   2.935   0.674   9.076 -0.0007  0.4739 -0.5221
    8CHL1  H11A  553   2.870   0.593   9.034  0.6944 -0.9513  1.0369
    8CHL1  H11B  554   3.037   0.636   9.097 -0.2331  0.8103  1.3832
    8CHL1    C9  555   2.864   0.714   9.209  0.2281 -0.2265  0.6531
    8CHL1    H9  556   2.933   0.782   9.263  0.5924 -0.5063  0.5486
    8CHL1   C10  557   2.851   0.593   9.310  0.3873 -0.4468  0.0021
    8CHL1   C19  558   2.788   0.471   9.242 -0.1026  0.0837 -0.2222
    8CHL1  H19A  559   2.686   0.472   9.197 -1.0948  0.6487  1.8982
    8CHL1  H19B  560   2.865   0.439   9.169  2.3879  0.1640  2.2128
    8CHL1  H19C  561   2.789   0.390   9.317 -0.2298  1.0813  0.8853
    8CHL1    C1  562   2.983   0.550   9.356  0.0488 -0.4083  0.1749
    8CHL1   H1A  563   3.041   0.505   9.272  1.7645 -0.2392  1.2207
    8CHL1   H1B  564   3.049   0.635   9.383  1.8655 -1.7208  0.0965
    8CHL1    C2  565   2.996   0.460   9.480 -0.0583  0.4775  0.1088
    8CHL1   H2A  566   3.103   0.434   9.489 -0.0656 -0.3390 -1.7671
    8CHL1   H2B  567   2.954   0.360   9.456  0.1955  0.5876 -0.8404
    8CHL1   C20  568   2.829   0.961   8.722  0.3355  0.2242 -0.2751
    8CHL1   H20  569   2.886   0.866   8.709  0.0541  0.3163 -2.8896
    8CHL1   C21  570   2.926   1.072   8.693 -0.0305 -0.0002  0.2378
    8CHL1  H21A  571   2.878   1.172   8.695  1.3046  0.7582 -1.8740
    8CHL1  H21B  572   2.956   1.067   8.586  0.4411  1.1572  0.3011
    8CHL1  H21C  573   3.017   1.067   8.756  0.4201 -1.0525 -0.4653
    8CHL1   C22  574   2.719   0.963   8.621  0.1018  0.1092  0.5777
    8CHL1  H22A  575   2.626   0.925   8.667 -0.9847  2.5918  0.6127
    8CHL1  H22B  576   2.700   1.071   8.599 -0.1803  0.7029  3.3204
    8CHL1   C23  577   2.741   0.898   8.488  0.4136  0.4800  0.1470
    8CHL1  H23A  578   2.824   0.942   8.428  0.3607 -0.1311 -0.3864
    8CHL1  H23B  579   2.761   0.788   8.487  0.5423  0.5052 -0.3570
    8CHL1   C24  580   2.619   0.924   8.391  0.2343  0.1152 -0.0994
    8CHL1  H24A  581   2.540   0.863   8.439 -0.5319  0.5077 -0.8557
    8CHL1  H24B  582   2.593   1.030   8.413  0.1365  0.4288 -1.6456
    8CHL1   C25  583   2.647   0.890   8.251 -0.3738  0.2213  0.3411
    8CHL1   H25  584   2.732   0.955   8.223 -1.0508  0.8053 -0.4007
    8CHL1   C26  585   2.683   0.741   8.225 -1.1564  0.0488  0.0189
    8CHL1  H26A  586   2.778   0.713   8.274 -1.4120 -2.2254 -0.6619
    8CHL1  H26B  587   2.599   0.686   8.273 -1.1879  1.7857  2.0975
    8CHL1  H26C  588   2.689   0.721   8.116 -1.4351  1.0452 -0.1962
    8CHL1   C27  589   2.533   0.928   8.165  0.0175 -0.4283  0.5903
    8CHL1  H27A  590   2.446   0.861   8.180 -0.5745  0.5688  1.7343
    8CHL1  H27B  591   2.510   1.035   8.185  1.0146 -0.0070 -0.3860
    8CHL1  H27C  592   2.545   0.921   8.055 -2.4118  2.2775  0.0351
    9CHL1    C3  593   3.828   2.879   9.735  0.3493 -0.4260 -0.4319
    9CHL1    H3  594   3.906   2.958   9.738  0.8050 -0.8307 -1.2109
    9CHL1    O3  595   3.798   2.823   9.862  0.1677  0.1089  0.0271
    9CHL1   H3'  596   3.790   2.729   9.841 -1.7366  0.3490 -0.5796
    9CHL1    C4  597   3.700   2.927   9.670  0.4757 -0.4298 -0.3197
    9CHL1   H4A  598   3.620   2.855   9.696  1.7917 -2.1881 -0.9102
    9CHL1   H4B  599   3.669   3.021   9.720  2.3398 -0.9733  2.0270
    9CHL1    C5  600   3.707   2.951   9.524  0.7271  0.2419  0.6545
    9CHL1    C6  601   3.657   3.065   9.471 -0.1358  0.5975  0.3080
    9CHL1    H6  602   3.608   3.141   9.534  2.8071  3.6086 -0.7026
    9CHL1    C7  603   3.671   3.098   9.321  0.0506  0.0454  0.1248
    9CHL1   H7A  604   3.572   3.130   9.282 -0.0984 -1.9749 -1.3236
    9CHL1   H7B  605   3.747   3.177   9.307  1.0717 -0.9556 -0.1944
    9CHL1    C8  606   3.714   2.980   9.230  0.1836  0.1912  0.0238
    9CHL1    H8  607   3.625   2.913   9.226  0.6551 -0.6040  1.9677
    9CHL1   C14  608   3.760   3.025   9.090 -0.0230  0.1224  0.2419
    9CHL1   H14  609   3.849   3.090   9.100 -0.1111  0.3566 -0.4334
    9CHL1   C15  610   3.668   3.121   9.008 -0.6928  0.2288 -0.8593
    9CHL1  H15A  611   3.567   3.077   9.016 -0.5404  0.0687  0.3705
    9CHL1  H15B  612   3.657   3.223   9.052  0.2291 -0.4199  0.9263
    9CHL1   C16  613   3.725   3.114   8.863  0.5317  0.6740  0.3563
    9CHL1  H16A  614   3.651   3.103   8.781  1.7928  0.6003 -0.7984
    9CHL1  H16B  615   3.777   3.208   8.837 -0.3028  0.7943 -0.9775
    9CHL1   C17  616   3.809   2.983   8.858  1.0126  0.2680 -0.2654
    9CHL1   H17  617   3.914   3.017   8.857  1.5593 -1.3484 -0.6632
    9CHL1   C13  618   3.795   2.915   8.998 -0.3512  0.3075 -0.1893
    9CHL1   C18  619   3.681   2.807   8.986  0.2051  0.0192  0.3667
    9CHL1  H18A  620   3.596   2.852   8.931  0.9866 -0.7290 -1.5318
    9CHL1  H18B  621   3.720   2.714   8.939  2.4128  1.5556 -1.0420
    9CHL1  H18C  622   3.637   2.762   9.077  0.7535 -0.0927  0.5838
    9CHL1   C12  623   3.923   2.853   9.062  0.2981  0.9377  0.4665
    9CHL1  H12A  624   3.963   2.766   9.006  1.0571  1.1739  0.6356
    9CHL1  H12B  625   4.010   2.921   9.064  0.7624  0.7983 -4.1339
    9CHL1   C11  626   3.890   2.799   9.201  0.3323  0.0674 -0.0589
    9CHL1  H11A  627   3.827   2.708   9.193 -0.1074  0.4187 -0.6545
    9CHL1  H11B  628   3.992   2.779   9.240  0.7905  0.4580 -1.0154
    9CHL1    C9  629   3.832   2.909   9.297 -0.4727 -0.1879  0.5148
    9CHL1    H9  630   3.915   2.981   9.306 -0.6167 -0.0536  0.7874
    9CHL1   C10  631   3.793   2.853   9.437 -0.8400  0.0276  0.3191
    9CHL1   C19  632   3.705   2.729   9.425  0.2940 -0.6962  0.6715
    9CHL1  H19A  633   3.617   2.751   9.361  1.3790  1.3074 -0.2127
    9CHL1  H19B  634   3.769   2.652   9.376  1.2147  0.6161 -0.2519
    9CHL1  H19C  635   3.675   2.688   9.523  3.1033  0.8042  2.2811
    9CHL1    C1  636   3.931   2.814   9.507  0.2922 -0.0602  0.0546
    9CHL1   H1A  637   3.982   2.725   9.464  1.0873  0.3221  0.1936
    9CHL1   H1B  638   3.993   2.906   9.507 -2.4397  1.8975 -0.2180
    9CHL1    C2  639   3.900   2.773   9.655 -0.1489 -0.4322  0.7609
    9CHL1   H2A  640   3.993   2.749   9.710  0.2678  1.7835  1.1057
    9CHL1   H2B  641   3.845   2.677   9.654  0.0459 -0.5465  0.3208
    9CHL1   C20  642   3.797   2.897   8.735  0.0206  0.1577  0.1646
    9CHL1   H20  643   3.705   2.835   8.740  0.2991 -0.2427  0.4540
    9CHL1   C21  644   3.908   2.788   8.725  0.1379  0.0799  0.6507
    9CHL1  H21A  645   3.905   2.708   8.802 -0.9072 -0.5636 -0.0328
    9CHL1  H21B  646   4.010   2.831   8.737 -0.0421  0.2253  1.7982
    9CHL1  H21C  647   3.892   2.738   8.628 -1.2079  2.7249 -0.5964
    9CHL1   C22  648   3.787   2.972   8.607 -0.8485  0.4741 -0.3779
    9CHL1  H22A  649   3.712   3.054   8.609 -3.4609 -1.7238 -1.8601
    9CHL1  H22B  650   3.876   3.033   8.579 -1.4069  1.0201 -1.0292
    9CHL1   C23  651   3.724   2.887   8.498 -0.2457 -0.4612  0.9667
    9CHL1  H23A  652   3.794   2.807   8.464  1.7443  1.8536 -0.7622
    9CHL1  H23B  653   3.637   2.833   8.542  0.0471 -2.9240 -1.2211
    9CHL1   C24  654   3.686   2.962   8.367 -0.2219  0.0913 -1.1336
    9CHL1  H24A  655   3.632   3.054   8.399  0.8745  0.7080 -1.0184
    9CHL1  H24B  656   3.783   2.994   8.324 -0.1240 -0.4893 -1.3568
    9CHL1   C25  657   3.609   2.881   8.262  0.3112 -0.5692  0.5676
    9CHL1   H25  658   3.673   2.791   8.249 -1.0563 -1.3948 -0.7678
    9CHL1   C26  659   3.471   2.821   8.317  0.0857  0.3912  0.2261
    9CHL1  H26A  660   3.397   2.902   8.336  0.1763  0.3868  0.5851
    9CHL1  H26B  661   3.436   2.748   8.240  1.9391  1.9669 -2.2951
    9CHL1  H26C  662   3.492   2.769   8.413 -0.4258  0.4436  0.3690
    9CHL1   C27  663   3.589   2.967   8.135  0.7483 -0.0774 -0.0808
    9CHL1  H27A  664   3.682   3.003   8.086 -0.0759  0.0339 -1.6206
    9CHL1  H27B  665   3.516   2.919   8.067  0.9261 -1.8527  0.9192
    9CHL1  H27C  666   3.532   3.059   8.162  1.5056  0.3886 -0.0302
   10CHL1    C3  667   4.707   0.627  10.079  0.9900  0.7261  0.4234
   10CHL1    H3  668   4.703   0.737  10.071  0.6371  0.7817  1.2255
   10CHL1    O3  669   4.705   0.600  10.217 -0.6068 -1.0801 -0.3707
   10CHL1   H3'  670   4.647   0.524  10.227 -0.7172 -1.1407 -1.3512
   10CHL1    C4  671   4.579   0.562  10.012  0.2299 -0.8432  0.0138
   10CHL1   H4A  672   4.582   0.452  10.032  2.1760 -0.6193  1.2839
   10CHL1   H4B  673   4.491   0.599  10.068  0.4924 -0.8495  0.4418
   10CHL1    C5  674   4.582   0.591   9.869  0.6150  0.0278  0.4653
   10CHL1    C6  675   4.469   0.632   9.806  0.5368 -0.1001 -0.1398
   10CHL1    H6  676   4.371   0.660   9.849 -0.5823 -0.8227 -2.0612
   10CHL1    C7  677   4.468   0.657   9.659 -0.3454 -0.4664 -0.2093
   10CHL1   H7A  678   4.377   0.612   9.614  0.0622 -0.7367 -0.7843
   10CHL1   H7B  679   4.466   0.765   9.634  0.2124 -0.1638  0.9815
   10CHL1    C8  680   4.587   0.601   9.574  0.0232  0.3366 -0.1999
   10CHL1    H8  681   4.555   0.497   9.553  0.9434 -0.2987  1.3640
   10CHL1   C14  682   4.589   0.670   9.442  0.0291 -0.1292  0.1393
   10CHL1   H14  683   4.608   0.777   9.461  3.4874 -0.3835 -1.1620
   10CHL1   C15  684   4.459   0.666   9.358  0.0862 -0.2737 -0.1623
   10CHL1  H15A  685   4.433   0.558   9.368 -1.2221  0.1490  1.4046
   10CHL1  H15B  686   4.382   0.738   9.390 -0.3395  0.0122 -1.7595
   10CHL1   C16  687   4.499   0.699   9.215 -0.3152 -0.0512  0.2653
   10CHL1  H16A  688   4.471   0.617   9.145 -0.6310  0.9460 -0.8235
   10CHL1  H16B  689   4.451   0.797   9.194 -0.6308 -0.1024  0.7407
   10CHL1   C17  690   4.658   0.702   9.224  0.0806  0.1781 -0.6564
   10CHL1   H17  691   4.684   0.809   9.242  1.2072 -0.0293 -0.9566
   10CHL1   C13  692   4.703   0.630   9.360  0.3738 -0.3937  0.2504
   10CHL1   C18  693   4.694   0.475   9.335 -0.6732 -0.4585 -0.9022
   10CHL1  H18A  694   4.714   0.424   9.432  0.4788  2.3067  0.4340
   10CHL1  H18B  695   4.602   0.435   9.288 -0.8681 -2.1756  0.8086
   10CHL1  H18C  696   4.785   0.447   9.278 -2.1527 -1.0602 -3.0703
   10CHL1   C12  697   4.837   0.663   9.430 -0.4974  0.2568  0.5368
   10CHL1  H12A  698   4.923   0.625   9.371 -0.2167 -0.4299  1.3802
   10CHL1  H12B  699   4.837   0.774   9.431 -0.0995  0.2849 -0.7214
   10CHL1   C11  700   4.851   0.606   9.566  0.8522  0.1761 -0.5827
   10CHL1  H11A  701   4.866   0.497   9.553 -2.0925 -0.3455 -0.4131
   10CHL1  H11B  702   4.932   0.650   9.627 -1.0194  4.6536 -0.9419
   10CHL1    C9  703   4.718   0.631   9.649  0.2541  0.2298  0.5602
   10CHL1    H9  704   4.712   0.739   9.675 -0.2595 -0.2320  2.5524
   10CHL1   C10  705   4.720   0.560   9.790 -0.8754  0.3261 -0.1743
   10CHL1   C19  706   4.728   0.407   9.773 -0.3038 -0.6378  0.1852
   10CHL1  H19A  707   4.714   0.366   9.875 -0.8855  2.7164  1.5787
   10CHL1  H19B  708   4.642   0.372   9.713 -1.9789  1.5252  1.2057
   10CHL1  H19C  709   4.829   0.372   9.742  1.2390  0.9357  2.9907
   10CHL1    C1  710   4.848   0.599   9.873  0.0753 -0.1595  0.2193
   10CHL1   H1A  711   4.942   0.554   9.835  1.8104  1.4643  2.3375
   10CHL1   H1B  712   4.864   0.709   9.878 -1.6632  0.0746  1.5154
   10CHL1    C2  713   4.834   0.567  10.023  0.1494  0.8000 -0.1874
   10CHL1   H2A  714   4.926   0.601  10.076  2.1499 -4.3774  0.2032
   10CHL1   H2B  715   4.840   0.457  10.035 -0.3277  0.1599 -4.3764
   10CHL1   C20  716   4.741   0.666   9.101  0.1737 -0.5163  0.1443
   10CHL1   H20  717   4.769   0.558   9.101 -0.2513 -0.6351  0.8662
   10CHL1   C21  718   4.864   0.751   9.112  1.1653 -0.2641  0.1600
   10CHL1  H21A  719   4.921   0.728   9.204  1.9264  0.4201 -0.1235
   10CHL1  H21B  720   4.834   0.858   9.107  1.1184 -0.2724  0.2568
   10CHL1  H21C  721   4.933   0.732   9.027  1.2447 -0.4595  0.2670
   10CHL1   C22  722   4.668   0.694   8.967  0.5770  0.0050  0.6190
   10CHL1  H22A  723   4.573   0.635   8.972  1.6272 -1.9527 -0.7907
   10CHL1  H22B  724   4.646   0.803   8.961  0.0452 -0.0065  2.0223
   10CHL1   C23  725   4.732   0.646   8.834 -1.1072  0.4520  0.0956
   10CHL1  H23A  726   4.660   0.667   8.752  0.2239  1.2128 -0.9291
   10CHL1  H23B  727   4.822   0.711   8.824  0.5170 -1.7914 -0.7194
   10CHL1   C24  728   4.786   0.507   8.817  0.9274 -0.7176 -0.0027
   10CHL1  H24A  729   4.874   0.491   8.883  1.2659 -0.4027 -0.3730
   10CHL1  H24B  730   4.702   0.446   8.858 -0.6594  0.7769 -0.8859
   10CHL1   C25  731   4.814   0.454   8.677  0.4218 -0.4586 -0.3831
   10CHL1   H25  732   4.834   0.346   8.690  0.4277 -0.2953  1.1440
   10CHL1   C26  733   4.694   0.470   8.580  0.4190  0.3931  0.7514
   10CHL1  H26A  734   4.709   0.415   8.484  1.6793  0.4906  0.8813
   10CHL1  H26B  735   4.600   0.434   8.627  1.0107 -0.5249  1.2696
   10CHL1  H26C  736   4.679   0.578   8.559  1.1131  0.1662 -1.1124
   10CHL1   C27  737   4.930   0.517   8.602  0.6729  0.2648 -0.3934
   10CHL1  H27A  738   4.915   0.626   8.585 -4.2980 -0.0939  0.0576
   10CHL1  H27B  739   5.024   0.503   8.659  0.6042 -2.0569 -0.7308
   10CHL1  H27C  740   4.943   0.466   8.504 -1.7198 -1.2768 -0.0005
   11CHL1    C3  741   0.419   5.521  10.197  0.4738  0.1347 -0.1614
   11CHL1    H3  742   0.468   5.606  10.144 -0.8542  1.5429  0.7715
   11CHL1    O3  743   0.398   5.552  10.338 -0.0664 -0.4341  0.4806
   11CHL1   H3'  744   0.487   5.576  10.365  0.9149 -0.5904 -2.3313
   11CHL1    C4  745   0.284   5.483  10.123 -0.4324  0.0573 -0.2147
   11CHL1   H4A  746   0.229   5.400  10.172  1.3436 -0.2810  1.3037
   11CHL1   H4B  747   0.225   5.577  10.130  1.8501  1.4548  1.6076
   11CHL1    C5  748   0.301   5.452   9.982  0.3580 -0.5411  0.8344
   11CHL1    C6  749   0.235   5.526   9.886  0.4121 -0.0877 -1.1908
   11CHL1    H6  750   0.174   5.608   9.927  0.0057 -1.5237  1.2347
   11CHL1    C7  751   0.234   5.495   9.738  0.1980 -0.4572 -0.6384
   11CHL1   H7A  752   0.126   5.483   9.719 -0.4130 -1.4583  2.7240
   11CHL1   H7B  753   0.287   5.577   9.686  0.1475 -0.6136 -0.9354
   11CHL1    C8  754   0.304   5.357   9.707  0.3185  0.3364  0.0827
   11CHL1    H8  755   0.234   5.276   9.738  0.5772  0.3937  0.8530
   11CHL1   C14  756   0.344   5.354   9.557 -0.4111  0.6434  0.1700
   11CHL1   H14  757   0.410   5.441   9.535 -1.1183  1.2428  0.3742
   11CHL1   C15  758   0.220   5.379   9.464 -0.6051 -0.0922  0.1030
   11CHL1  H15A  759   0.129   5.319   9.484 -0.0600 -1.0856 -0.2685
   11CHL1  H15B  760   0.199   5.488   9.459  0.6428  0.2861  2.1049
   11CHL1   C16  761   0.283   5.319   9.331 -0.5486 -0.0958  0.3938
   11CHL1  H16A  762   0.213   5.241   9.295  0.8463 -0.1538 -2.4327
   11CHL1  H16B  763   0.295   5.396   9.253  1.9324 -2.5835 -1.9020
   11CHL1   C17  764   0.425   5.250   9.358 -0.2884 -0.7589 -0.2751
   11CHL1   H17  765   0.502   5.327   9.335 -1.7419  0.1221 -2.5140
   11CHL1   C13  766   0.418   5.230   9.513  0.4927  0.1047 -0.3490
   11CHL1   C18  767   0.332   5.102   9.543 -0.3649  0.4155 -0.1865
   11CHL1  H18A  768   0.306   5.099   9.652  1.8519  0.2483  0.3739
   11CHL1  H18B  769   0.250   5.090   9.469  0.9706 -1.2010 -1.4611
   11CHL1  H18C  770   0.400   5.016   9.531  0.1258  0.7024  0.4684
   11CHL1   C12  771   0.547   5.224   9.602 -0.5998  0.0699 -0.1139
   11CHL1  H12A  772   0.594   5.129   9.569 -2.1498 -1.1442  1.0266
   11CHL1  H12B  773   0.612   5.307   9.566 -0.4716  1.3711  2.8655
   11CHL1   C11  774   0.524   5.227   9.753 -0.1379 -0.2848  0.1272
   11CHL1  H11A  775   0.489   5.123   9.773  1.7170 -1.1401 -0.8904
   11CHL1  H11B  776   0.627   5.234   9.794  0.9549 -0.0244 -2.4847
   11CHL1    C9  777   0.430   5.347   9.794 -0.8554 -0.2226  0.5699
   11CHL1    H9  778   0.491   5.439   9.780 -2.4055  0.7781  0.1485
   11CHL1   C10  779   0.405   5.347   9.947 -0.2676 -0.3611  0.3016
   11CHL1   C19  780   0.330   5.214   9.998  0.3577 -0.2998 -0.7380
   11CHL1  H19A  781   0.396   5.125   9.989  0.3413 -0.3547 -0.3113
   11CHL1  H19B  782   0.320   5.213  10.108 -0.3658 -0.9676 -0.8040
   11CHL1  H19C  783   0.224   5.195   9.973  0.2383  2.1197 -2.4357
   11CHL1    C1  784   0.542   5.373  10.025 -0.3570  0.0034  0.1361
   11CHL1   H1A  785   0.607   5.286  10.003 -0.6224 -0.6391  1.7453
   11CHL1   H1B  786   0.591   5.461   9.978 -0.2514  0.6479  1.3960
   11CHL1    C2  787   0.526   5.407  10.176  0.2251 -0.2629  0.3803
   11CHL1   H2A  788   0.627   5.422  10.219  0.1574  0.1916  0.3823
   11CHL1   H2B  789   0.484   5.316  10.224 -2.7828  1.0218  0.4075
   11CHL1   C20  790   0.457   5.125   9.265 -0.3198 -0.4317 -0.0304
   11CHL1   H20  791   0.401   5.040   9.310  0.2084 -0.5530  0.4104
   11CHL1   C21  792   0.608   5.093   9.282  0.6781 -0.2265  0.2774
   11CHL1  H21A  793   0.637   5.071   9.387  0.1552  1.4401  0.8006
   11CHL1  H21B  794   0.664   5.187   9.264 -0.3850  0.5195  0.8196
   11CHL1  H21C  795   0.631   5.009   9.213 -0.3296  0.0111 -0.3705
   11CHL1   C22  796   0.423   5.149   9.113 -0.3533 -0.0946 -0.1342
   11CHL1  H22A  797   0.434   5.048   9.067 -0.0450  0.9310 -2.4411
   11CHL1  H22B  798   0.314   5.169   9.103 -0.4458 -1.4833 -2.4805
   11CHL1   C23  799   0.506   5.246   9.027 -0.2517 -0.1858 -0.7279
   11CHL1  H23A  800   0.496   5.346   9.075 -1.6712 -0.3478 -0.6386
   11CHL1  H23B  801   0.611   5.211   9.014  0.1478  0.3746  0.8611
   11CHL1   C24  802   0.437   5.264   8.897  0.1580  0.2370 -0.1524
   11CHL1  H24A  803   0.405   5.172   8.845  1.9476 -0.1096 -0.6934
   11CHL1  H24B  804   0.347   5.320   8.930  0.6587  0.2727  1.2226
   11CHL1   C25  805   0.506   5.356   8.803 -0.3814 -0.6539 -0.4748
   11CHL1   H25  806   0.559   5.437   8.859  1.1630 -1.4086 -0.7813
   11CHL1   C26  807   0.613   5.280   8.724  0.9358  0.6061  0.3097
   11CHL1  H26A  808   0.693   5.239   8.789  0.1068  0.3311  1.1867
   11CHL1  H26B  809   0.567   5.200   8.662 -0.1689 -0.6691  2.6324
   11CHL1  H26C  810   0.653   5.352   8.651  1.1776  1.1711  0.9903
   11CHL1   C27  811   0.408   5.429   8.712  0.2145  0.7460  0.5679
   11CHL1  H27A  812   0.315   5.449   8.769 -0.8777 -0.6210 -0.6905
   11CHL1  H27B  813   0.449   5.529   8.686  0.8754  0.1341 -0.8348
   11CHL1  H27C  814   0.387   5.367   8.623 -0.2851  0.4158  0.9077
   12CHL1    C3  815   2.071   6.594   9.845 -0.1711  0.1566  0.9373
   12CHL1    H3  816   1.964   6.576   9.866 -0.0509 -1.7715  0.1128
   12CHL1    O3  817   2.134   6.648   9.962  0.2044  0.0716 -0.0347
   12CHL1   H3'  818   2.104   6.738   9.973 -0.6434  0.1963 -2.7327
   12CHL1    C4  819   2.127   6.459   9.788  0.2285 -0.4467 -0.3877
   12CHL1   H4A  820   2.237   6.464   9.794  0.2516 -1.2685 -0.0458
   12CHL1   H4B  821   2.108   6.391   9.874 -0.8904  1.8192  1.2775
   12CHL1    C5  822   2.077   6.413   9.653  0.4144  0.3582 -0.0973
   12CHL1    C6  823   2.017   6.298   9.625  0.6429 -0.2153  0.0797
   12CHL1    H6  824   2.008   6.214   9.695 -0.8277 -0.3417 -0.2234
   12CHL1    C7  825   1.974   6.257   9.486 -0.0194  0.1992  0.1167
   12CHL1   H7A  826   2.000   6.150   9.471 -0.5196  0.0937 -0.0166
   12CHL1   H7B  827   1.864   6.263   9.474  0.0809 -0.9432 -1.7398
   12CHL1    C8  828   2.029   6.341   9.374 -0.0444 -0.3314  0.2159
   12CHL1    H8  829   2.137   6.323   9.354 -0.0432  0.5382 -0.6687
   12CHL1   C14  830   1.952   6.312   9.244 -0.6909 -0.3911 -0.4969
   12CHL1   H14  831   1.845   6.341   9.256 -0.8428 -1.0191 -0.3422
   12CHL1   C15  832   1.947   6.168   9.186 -0.6560 -0.2579  0.0182
   12CHL1  H15A  833   2.052   6.139   9.204 -0.2194  0.4090 -1.3279
   12CHL1  H15B  834   1.878   6.111   9.251 -0.2268 -1.7641 -0.8066
   12CHL1   C16  835   1.915   6.186   9.033 -0.7654 -0.3006 -0.1717
   12CHL1  H16A  836   1.980   6.121   8.971 -0.3242  1.2921 -1.4111
   12CHL1  H16B  837   1.814   6.140   9.030 -1.6647  1.1747  2.9315
   12CHL1   C17  838   1.912   6.336   9.003  0.2940 -0.7812  0.3470
   12CHL1   H17  839   1.809   6.373   9.020 -0.8241 -3.7406  0.5246
   12CHL1   C13  840   1.999   6.394   9.119  0.3047 -1.1101  0.7523
   12CHL1   C18  841   2.154   6.369   9.095 -0.5839  0.2965  0.4555
   12CHL1  H18A  842   2.215   6.371   9.188 -0.4634 -0.8680  0.4166
   12CHL1  H18B  843   2.168   6.270   9.046 -0.7036  0.7944 -0.6197
   12CHL1  H18C  844   2.187   6.450   9.026  2.0003 -0.2506  0.9519
   12CHL1   C12  845   1.980   6.542   9.155 -0.2449  0.3929  0.5146
   12CHL1  H12A  846   2.025   6.600   9.072  1.7662 -0.2533  1.1044
   12CHL1  H12B  847   1.870   6.556   9.157 -0.0610  3.0628 -1.9409
   12CHL1   C11  848   2.048   6.580   9.291 -0.1403  0.8718  0.9837
   12CHL1  H11A  849   2.158   6.577   9.274 -0.2911  0.2879 -0.0076
   12CHL1  H11B  850   2.009   6.680   9.317 -0.7830  1.0130 -0.4337
   12CHL1    C9  851   2.011   6.488   9.411  0.2962 -0.1611 -0.0180
   12CHL1    H9  852   1.903   6.502   9.431 -0.1951 -1.2535 -1.6138
   12CHL1   C10  853   2.080   6.522   9.547  0.1076 -0.0424 -0.1682
   12CHL1   C19  854   2.229   6.548   9.519  0.3983 -0.0753  0.2115
   12CHL1  H19A  855   2.246   6.636   9.453 -1.3337 -0.3343 -0.6058
   12CHL1  H19B  856   2.293   6.560   9.609  0.9631 -0.8541 -0.0769
   12CHL1  H19C  857   2.264   6.461   9.460 -0.9850 -0.5835  0.1166
   12CHL1    C1  858   2.016   6.657   9.606  0.1987 -0.9461  0.0525
   12CHL1   H1A  859   2.034   6.737   9.531 -0.1356 -0.9781 -0.0642
   12CHL1   H1B  860   1.908   6.638   9.627 -0.2089  1.1634  0.0880
   12CHL1    C2  861   2.065   6.707   9.743 -0.3493 -1.1849 -0.8607
   12CHL1   H2A  862   1.987   6.775   9.782  0.9056  1.2354 -2.3528
   12CHL1   H2B  863   2.157   6.769   9.736  0.6308 -1.8659  3.1694
   12CHL1   C20  864   1.961   6.381   8.863 -0.0189 -0.3138  0.1148
   12CHL1   H20  865   2.000   6.486   8.867 -0.0619 -0.1413 -2.2679
   12CHL1   C21  866   1.836   6.383   8.778  0.2974  0.0995 -0.3139
   12CHL1  H21A  867   1.865   6.414   8.676  2.5140 -0.4792  0.0821
   12CHL1  H21B  868   1.772   6.462   8.822 -0.9502  0.3715 -2.4868
   12CHL1  H21C  869   1.772   6.292   8.779  1.5336 -0.7870 -0.6271
   12CHL1   C22  870   2.057   6.285   8.784 -0.1989 -0.1860 -0.5531
   12CHL1  H22A  871   2.142   6.249   8.847 -0.4315 -0.7666 -0.5678
   12CHL1  H22B  872   1.993   6.195   8.771 -0.1543 -0.1955 -0.6965
   12CHL1   C23  873   2.124   6.331   8.651  0.0613 -0.2293  0.2302
   12CHL1  H23A  874   2.188   6.244   8.624 -0.7194 -0.6906 -0.1732
   12CHL1  H23B  875   2.043   6.353   8.577 -0.0046  2.3311  0.9994
   12CHL1   C24  876   2.216   6.459   8.672  0.4377  0.4557  0.3863
   12CHL1  H24A  877   2.160   6.527   8.740  0.7237 -0.4748  1.5833
   12CHL1  H24B  878   2.312   6.429   8.720  0.7909 -2.0544 -1.6628
   12CHL1   C25  879   2.260   6.539   8.545  0.2950 -0.8356  0.2859
   12CHL1   H25  880   2.168   6.568   8.489  1.6778 -0.1990 -1.7750
   12CHL1   C26  881   2.345   6.663   8.574 -0.5324  0.0704  0.0215
   12CHL1  H26A  882   2.440   6.645   8.628  0.5927 -0.2408 -1.9378
   12CHL1  H26B  883   2.373   6.715   8.479  1.0175  0.0317  0.4385
   12CHL1  H26C  884   2.282   6.734   8.631 -0.8697  0.5366 -0.8994
   12CHL1   C27  885   2.333   6.450   8.446 -0.1154  0.1557  0.3716
   12CHL1  H27A  886   2.268   6.377   8.395 -0.3404  1.7010 -1.6882
   12CHL1  H27B  887   2.368   6.507   8.357 -1.7754 -1.3048 -1.2913
   12CHL1  H27C  888   2.424   6.398   8.484  0.4883  0.3192 -0.8039
   13CHL1    C3  889   0.816   2.356   9.968  0.0301 -0.1996 -0.1334
   13CHL1    H3  890   0.728   2.343   9.902 -0.2665 -0.7355  0.3524
   13CHL1    O3  891   0.774   2.363  10.107 -0.2159 -0.3145  0.1821
   13CHL1   H3'  892   0.841   2.315  10.157  0.2398  0.5919  0.4590
   13CHL1    C4  893   0.899   2.228   9.954 -0.0474  0.2243 -0.1903
   13CHL1   H4A  894   0.973   2.229  10.037  0.6028  1.7311 -0.7508
   13CHL1   H4B  895   0.833   2.142   9.977  1.3198 -1.2344 -1.4526
   13CHL1    C5  896   0.959   2.211   9.816 -0.5810  0.2504  0.6423
   13CHL1    C6  897   0.931   2.103   9.742 -0.4382 -0.0357  0.1707
   13CHL1    H6  898   0.874   2.021   9.788  0.0060 -0.2439  0.3590
   13CHL1    C7  899   1.009   2.069   9.611 -0.5069  0.0029 -0.0527
   13CHL1   H7A  900   1.051   1.967   9.623  0.9394  0.5940  0.2492
   13CHL1   H7B  901   0.945   2.071   9.520  0.8730  0.2195 -1.0615
   13CHL1    C8  902   1.130   2.168   9.589  0.4369  0.8834 -0.7122
   13CHL1    H8  903   1.196   2.129   9.669 -0.8711  1.3579  0.6526
   13CHL1   C14  904   1.184   2.147   9.445  0.1986 -0.1463 -0.3205
   13CHL1   H14  905   1.100   2.180   9.380  0.4480  2.3782  0.5423
   13CHL1   C15  906   1.226   2.011   9.394  0.4990 -0.5206 -0.3398
   13CHL1  H15A  907   1.299   1.964   9.463  0.4638  0.2019  0.1914
   13CHL1  H15B  908   1.143   1.936   9.396  1.6594 -1.8582  2.0552
   13CHL1   C16  909   1.289   2.038   9.260 -0.9057  0.6302  0.5679
   13CHL1  H16A  910   1.379   1.976   9.243 -0.8042  0.7014  0.8351
   13CHL1  H16B  911   1.222   2.002   9.179  0.4025 -0.2382 -0.1517
   13CHL1   C17  912   1.327   2.193   9.261  0.4560 -0.0253  0.1806
   13CHL1   H17  913   1.249   2.243   9.200  0.7061 -0.5707 -0.6014
   13CHL1   C13  914   1.299   2.239   9.412 -0.3305  0.4664 -0.3500
   13CHL1   C18  915   1.425   2.211   9.492 -0.6760  0.0241  0.1651
   13CHL1  H18A  916   1.502   2.289   9.474  1.9434 -2.6622 -1.1165
   13CHL1  H18B  917   1.392   2.211   9.598  1.1509 -1.0708  0.7822
   13CHL1  H18C  918   1.478   2.114   9.479  1.5210  0.9909  1.4856
   13CHL1   C12  919   1.255   2.387   9.432  0.4104  0.1585 -0.0076
   13CHL1  H12A  920   1.335   2.458   9.400 -1.5871  1.9078 -1.4229
   13CHL1  H12B  921   1.163   2.401   9.370  0.3020 -0.9417 -0.1103
   13CHL1   C11  922   1.206   2.412   9.577  0.2253 -0.2929 -0.1681
   13CHL1  H11A  923   1.296   2.380   9.633  1.1727 -1.6399 -2.3060
   13CHL1  H11B  924   1.182   2.519   9.593  2.1449  0.3997 -1.4892
   13CHL1    C9  925   1.093   2.313   9.620  0.1912  0.3574  0.1754
   13CHL1    H9  926   1.002   2.329   9.559 -0.3317  1.6090  1.2266
   13CHL1   C10  927   1.045   2.334   9.770 -0.6121 -0.5352  0.4816
   13CHL1   C19  928   1.172   2.343   9.869  0.2884  0.7977  0.7495
   13CHL1  H19A  929   1.252   2.411   9.835  0.0086  0.0368 -1.5892
   13CHL1  H19B  930   1.143   2.364   9.975  2.2529 -0.5825  1.6214
   13CHL1  H19C  931   1.217   2.242   9.874 -0.1685  0.5578  0.1246
   13CHL1    C1  932   0.957   2.460   9.789 -0.7607  0.1870  0.6478
   13CHL1   H1A  933   1.008   2.555   9.763  0.1806 -0.4702  0.0435
   13CHL1   H1B  934   0.892   2.457   9.699 -0.5881  0.9299  0.4937
   13CHL1    C2  935   0.882   2.487   9.917  0.8095  0.9537 -0.3059
   13CHL1   H2A  936   0.808   2.569   9.904  2.2581  2.1247 -1.6351
   13CHL1   H2B  937   0.959   2.515   9.992  3.0698 -0.5769 -1.9164
   13CHL1   C20  938   1.456   2.233   9.188 -0.2186  0.1819 -0.2416
   13CHL1   H20  939   1.539   2.212   9.259 -0.6575  0.7298  0.4498
   13CHL1   C21  940   1.454   2.385   9.159  0.0798  0.1299 -0.4473
   13CHL1  H21A  941   1.361   2.432   9.120  0.1401  1.2231  0.6607
   13CHL1  H21B  942   1.550   2.417   9.114  0.6677 -0.9360  0.0038
   13CHL1  H21C  943   1.471   2.435   9.257  2.0559  2.1316 -1.7348
   13CHL1   C22  944   1.486   2.158   9.058  0.5857 -0.2315  0.0828
   13CHL1  H22A  945   1.579   2.201   9.015  0.0747  0.3842 -0.4261
   13CHL1  H22B  946   1.518   2.055   9.085  1.1412 -0.1095 -0.0996
   13CHL1   C23  947   1.379   2.144   8.944 -0.0303  0.9169 -0.4654
   13CHL1  H23A  948   1.301   2.074   8.980  2.7981 -2.1675  0.0854
   13CHL1  H23B  949   1.341   2.245   8.915 -2.4808 -0.0619 -0.8526
   13CHL1   C24  950   1.453   2.072   8.828 -0.0689 -0.7815 -0.1040
   13CHL1  H24A  951   1.528   2.146   8.792  0.1392 -2.4314 -3.4903
   13CHL1  H24B  952   1.512   1.994   8.879 -1.4587 -2.0289 -0.3280
   13CHL1   C25  953   1.367   2.022   8.717  0.4326  0.1180 -1.2192
   13CHL1   H25  954   1.272   1.976   8.754 -0.1494  0.0539 -2.7277
   13CHL1   C26  955   1.318   2.137   8.635 -0.5966 -0.5287  0.5985
   13CHL1  H26A  956   1.256   2.120   8.544  0.6497  0.4754 -0.4711
   13CHL1  H26B  957   1.261   2.210   8.696 -0.3285  0.0041  0.2234
   13CHL1  H26C  958   1.403   2.200   8.601  1.9126 -3.1224  1.5825
   13CHL1   C27  959   1.441   1.911   8.638 -0.4463  0.4079 -0.1135
   13CHL1  H27A  960   1.390   1.896   8.541  0.1240 -1.3343 -0.1771
   13CHL1  H27B  961   1.542   1.950   8.611  0.2031 -1.7508 -1.0336
   13CHL1  H27C  962   1.445   1.820   8.702 -0.6099  0.5291  0.0712
   14CHL1    C3  963   1.494   5.285   9.997  0.5844  0.1159  0.4665
   14CHL1    H3  964   1.535   5.387  10.005 -0.9600  0.8043  0.0859
   14CHL1    O3  965   1.461   5.249  10.131 -0.1301  0.1372 -0.4832
   14CHL1   H3'  966   1.454   5.154  10.123 -1.7308  0.3574 -2.4791
   14CHL1    C4  967   1.360   5.292   9.917 -0.5897  0.1513  0.0967
   14CHL1   H4A  968   1.300   5.199   9.915 -0.6211  0.1542 -2.6682
   14CHL1   H4B  969   1.298   5.375   9.957  0.7340  1.3263 -0.2017
   14CHL1    C5  970   1.399   5.322   9.774 -0.0114 -0.0614 -0.0905
   14CHL1    C6  971   1.351   5.436   9.720 -0.3106 -0.5199  0.3674
   14CHL1    H6  972   1.295   5.508   9.783  0.6362  0.9260 -0.3822
   14CHL1    C7  973   1.362   5.459   9.574 -0.4503 -0.3701 -0.1277
   14CHL1   H7A  974   1.271   5.496   9.523  0.9102  1.0156 -1.6702
   14CHL1   H7B  975   1.444   5.533   9.558 -0.2882 -0.5621 -0.1925
   14CHL1    C8  976   1.401   5.335   9.487  0.3692  0.2567  0.2079
   14CHL1    H8  977   1.315   5.265   9.487  0.8452 -0.3390  0.5534
   14CHL1   C14  978   1.427   5.372   9.345 -0.5642  0.1709  0.1260
   14CHL1   H14  979   1.506   5.449   9.347 -1.3759  1.1003 -1.7008
   14CHL1   C15  980   1.306   5.426   9.258 -0.1673  0.2623  0.1140
   14CHL1  H15A  981   1.210   5.370   9.260 -0.9825  1.3875 -2.9377
   14CHL1  H15B  982   1.284   5.525   9.302  0.2793  0.2230  0.4324
   14CHL1   C16  983   1.372   5.438   9.116  0.0462  0.4773  0.8200
   14CHL1  H16A  984   1.288   5.403   9.052 -1.5763  1.3102  2.4013
   14CHL1  H16B  985   1.393   5.536   9.068 -0.2005 -0.0534 -0.4143
   14CHL1   C17  986   1.501   5.351   9.125  0.2098  0.1787  0.2149
   14CHL1   H17  987   1.582   5.426   9.141 -1.5303  2.2603 -0.1913
   14CHL1   C13  988   1.490   5.263   9.260  0.2467  0.1565  0.4842
   14CHL1   C18  989   1.388   5.155   9.224 -0.4316 -0.5693  0.1155
   14CHL1  H18A  990   1.330   5.120   9.312  0.4185  0.1826  1.0018
   14CHL1  H18B  991   1.314   5.187   9.147 -1.7841 -1.4366  1.0120
   14CHL1  H18C  992   1.436   5.072   9.167 -0.7236  0.3483 -1.5404
   14CHL1   C12  993   1.614   5.203   9.328 -0.7098  0.3246  0.0589
   14CHL1  H12A  994   1.661   5.116   9.277  2.5142  1.2347  1.1960
   14CHL1  H12B  995   1.691   5.284   9.334  0.8969 -1.0921 -0.5688
   14CHL1   C11  996   1.590   5.161   9.469 -0.2311 -0.7315 -0.2297
   14CHL1  H11A  997   1.517   5.078   9.457 -1.1184  0.3232 -3.2297
   14CHL1  H11B  998   1.679   5.134   9.529 -0.1766  0.2549  0.1583
   14CHL1    C9  999   1.524   5.273   9.560  0.4820  0.4546 -0.1404
   14CHL1    H9 1000   1.600   5.353   9.576  0.6432  0.1102  0.8185
   14CHL1   C10 1001   1.483   5.222   9.695  0.9329 -0.7930 -0.8478
   14CHL1   C19 1002   1.409   5.084   9.682 -0.7731 -0.0645  0.5735
   14CHL1  H19A 1003   1.318   5.094   9.620 -0.0987  0.1993 -0.4000
   14CHL1  H19B 1004   1.476   5.005   9.640  0.2696  1.1024 -0.0010
   14CHL1  H19C 1005   1.379   5.042   9.781 -0.8647 -2.4254 -0.3955
   14CHL1    C1 1006   1.614   5.209   9.776 -0.3724 -1.2483 -0.7600
   14CHL1   H1A 1007   1.690   5.137   9.740  1.7813  1.5006 -2.1544
   14CHL1   H1B 1008   1.669   5.306   9.776 -1.4488 -0.5705 -2.7054
   14CHL1    C2 1009   1.587   5.179   9.935  0.6460  0.6401 -0.7582
   14CHL1   H2A 1010   1.683   5.187   9.991  1.2152 -3.8932 -0.7555
   14CHL1   H2B 1011   1.548   5.076   9.933  1.5633  0.1914  1.3277
   14CHL1   C20 1012   1.542   5.283   8.988  0.3426 -0.4486  0.3388
   14CHL1   H20 1013   1.467   5.207   8.960  0.1231 -0.0681 -0.1030
   14CHL1   C21 1014   1.684   5.226   8.998 -0.6405 -0.1785  0.3009
   14CHL1  H21A 1015   1.750   5.300   9.050 -0.5656 -1.0203  1.4523
   14CHL1  H21B 1016   1.711   5.206   8.893 -0.4271  1.3751  0.0332
   14CHL1  H21C 1017   1.691   5.136   9.063 -1.7471  0.1812  0.9418
   14CHL1   C22 1018   1.533   5.384   8.868  0.6018  0.2187 -0.1038
   14CHL1  H22A 1019   1.435   5.435   8.881  0.7884  0.4877  0.2879
   14CHL1  H22B 1020   1.604   5.466   8.892  0.8574  0.2309 -0.8755
   14CHL1   C23 1021   1.545   5.324   8.727 -0.5930 -0.8377 -0.1043
   14CHL1  H23A 1022   1.641   5.269   8.715 -0.0830  0.3092 -1.6956
   14CHL1  H23B 1023   1.464   5.251   8.707  0.5855 -2.1808 -0.1115
   14CHL1   C24 1024   1.563   5.432   8.626  0.1465 -0.0693 -0.5630
   14CHL1  H24A 1025   1.481   5.504   8.606  0.0375 -0.1186 -0.3113
   14CHL1  H24B 1026   1.650   5.488   8.666  0.3429 -2.5296  2.9917
   14CHL1   C25 1027   1.610   5.379   8.495  0.6841  0.1360  0.3898
   14CHL1   H25 1028   1.670   5.288   8.517 -1.8724 -1.3234  1.7333
   14CHL1   C26 1029   1.504   5.358   8.391 -0.3008  0.0246  0.2138
   14CHL1  H26A 1030   1.553   5.300   8.310  2.4560 -1.2263  2.5990
   14CHL1  H26B 1031   1.414   5.300   8.420  0.8503 -1.7223  0.4552
   14CHL1  H26C 1032   1.466   5.447   8.335 -0.1483 -2.1094 -3.6203
   14CHL1   C27 1033   1.708   5.478   8.436 -0.4295 -0.2199  0.3097
   14CHL1  H27A 1034   1.797   5.505   8.497 -0.5798  2.0723 -0.3847
   14CHL1  H27B 1035   1.745   5.436   8.341  0.1579 -0.6585  0.7257
   14CHL1  H27C 1036   1.650   5.569   8.408  0.6802  0.4837  0.2646
   15CHL1    C3 1037   1.857   3.703  10.057 -0.5009 -0.0429  0.4929
   15CHL1    H3 1038   1.965   3.726  10.047  0.0015 -0.8346  3.3457
   15CHL1    O3 1039   1.819   3.690  10.189 -0.6936  0.0797 -0.4292
   15CHL1   H3' 1040   1.726   3.665  10.188 -0.6731 -0.1029  0.8060
   15CHL1    C4 1041   1.777   3.822   9.988 -0.6435 -0.7937  0.8871
   15CHL1   H4A 1042   1.668   3.802   9.988 -0.8934  0.4420  1.0340
   15CHL1   H4B 1043   1.799   3.910  10.053 -0.7391  2.6831 -3.3153
   15CHL1    C5 1044   1.827   3.852   9.850  0.0118 -0.4283  0.0160
   15CHL1    C6 1045   1.872   3.975   9.807 -0.6370  1.2964  0.5848
   15CHL1    H6 1046   1.865   4.059   9.877  0.6760  0.4824  1.7587
   15CHL1    C7 1047   1.913   4.004   9.670  1.0647  0.1060  0.3195
   15CHL1   H7A 1048   1.863   4.093   9.624 -1.5760 -1.4472 -0.0476
   15CHL1   H7B 1049   2.022   4.025   9.667  1.2901 -0.9313 -2.7673
   15CHL1    C8 1050   1.873   3.885   9.572 -0.3452 -0.5016  0.7161
   15CHL1    H8 1051   1.765   3.889   9.547  0.0263 -1.0703 -1.1742
   15CHL1   C14 1052   1.948   3.899   9.440  0.2468  0.4613  0.6020
   15CHL1   H14 1053   2.054   3.870   9.460  0.6212 -0.1792 -1.8662
   15CHL1   C15 1054   1.944   4.043   9.372 -0.2012 -0.2873 -0.0905
   15CHL1  H15A 1055   1.839   4.080   9.376 -0.0381  0.0604  2.7955
   15CHL1  H15B 1056   2.012   4.104   9.435  1.1739 -0.9777 -0.8730
   15CHL1   C16 1057   1.991   4.018   9.230  0.5786  0.4432 -0.6499
   15CHL1  H16A 1058   1.914   4.060   9.162  0.9705  0.1451 -1.2878
   15CHL1  H16B 1059   2.091   4.063   9.214  1.0558  0.4073  1.8448
   15CHL1   C17 1060   2.000   3.858   9.211 -0.6068  0.6445  1.3205
   15CHL1   H17 1061   2.105   3.827   9.229  0.2973  1.5133 -1.8411
   15CHL1   C13 1062   1.918   3.798   9.331  0.2377 -0.2296  0.6492
   15CHL1   C18 1063   1.769   3.813   9.290  0.6610  0.5590  0.8573
   15CHL1  H18A 1064   1.741   3.910   9.245 -0.0677  0.0905  0.2728
   15CHL1  H18B 1065   1.743   3.731   9.219  0.0549  1.4099  0.0682
   15CHL1  H18C 1066   1.707   3.803   9.381  2.5646 -0.2316  2.1203
   15CHL1   C12 1067   1.959   3.660   9.385  0.4367  0.5793 -0.0050
   15CHL1  H12A 1068   1.928   3.580   9.315 -0.7689  0.3400  0.7677
   15CHL1  H12B 1069   2.069   3.665   9.404  0.5548  1.2248 -0.8357
   15CHL1   C11 1070   1.887   3.633   9.522 -0.1082  0.4658 -0.3346
   15CHL1  H11A 1071   1.780   3.623   9.494 -0.4628  2.0546  0.3322
   15CHL1  H11B 1072   1.924   3.535   9.560  0.8151  0.7717 -0.4224
   15CHL1    C9 1073   1.902   3.749   9.625  0.2848  0.1489 -0.2004
   15CHL1    H9 1074   2.007   3.738   9.657 -0.0441  0.8391  1.2124
   15CHL1   C10 1075   1.821   3.729   9.759  0.1843  0.9178  0.3864
   15CHL1   C19 1076   1.675   3.688   9.717 -0.6491 -0.1542  0.7008
   15CHL1  H19A 1077   1.671   3.581   9.687 -0.4425  0.0562 -0.0914
   15CHL1  H19B 1078   1.597   3.701   9.796 -0.9468 -1.1165  0.5751
   15CHL1  H19C 1079   1.650   3.746   9.626  0.9026  0.4107  0.6108
   15CHL1    C1 1080   1.871   3.596   9.834  0.7012 -0.3074 -0.6692
   15CHL1   H1A 1081   1.864   3.502   9.775  0.2617 -1.0413  0.5247
   15CHL1   H1B 1082   1.982   3.606   9.833  0.6326  0.8868  0.6189
   15CHL1    C2 1083   1.830   3.574   9.981  0.6871 -0.5402 -0.4410
   15CHL1   H2A 1084   1.889   3.486  10.015 -0.3820 -0.3233  2.2896
   15CHL1   H2B 1085   1.721   3.552   9.986  0.8047 -1.1963 -0.6959
   15CHL1   C20 1086   1.969   3.819   9.066 -0.6156  0.0869  0.6292
   15CHL1   H20 1087   1.868   3.859   9.045 -0.7611  0.8096  2.5317
   15CHL1   C21 1088   1.968   3.661   9.050  0.7208 -0.1135 -0.9084
   15CHL1  H21A 1089   1.968   3.621   8.946 -1.1173 -2.3341 -0.1317
   15CHL1  H21B 1090   1.883   3.619   9.108  0.4166 -2.3735 -2.8266
   15CHL1  H21C 1091   2.063   3.629   9.096 -0.4434 -2.3588  0.0453
   15CHL1   C22 1092   2.073   3.884   8.970  0.6099 -0.5708 -0.4509
   15CHL1  H22A 1093   2.088   3.993   8.981  0.5618 -0.6033 -0.0409
   15CHL1  H22B 1094   2.173   3.835   8.970  1.1559  0.3763  2.1425
   15CHL1   C23 1095   2.012   3.882   8.828  0.4839  0.6388  0.1477
   15CHL1  H23A 1096   1.979   3.777   8.813 -0.6090  0.9526  0.2930
   15CHL1  H23B 1097   1.931   3.958   8.833  1.2262  1.4492  0.0210
   15CHL1   C24 1098   2.108   3.927   8.711 -0.5580 -0.2759 -0.2684
   15CHL1  H24A 1099   2.143   4.031   8.730  0.3732 -0.6994  0.3525
   15CHL1  H24B 1100   2.206   3.875   8.703 -1.0012 -0.8605 -3.8229
   15CHL1   C25 1101   2.046   3.906   8.570  0.3068  0.4268  0.1124
   15CHL1   H25 1102   2.020   3.800   8.554 -1.1395  0.8466 -0.4739
   15CHL1   C26 1103   1.925   3.998   8.540  0.7480 -0.4261  0.4778
   15CHL1  H26A 1104   1.957   4.104   8.548  0.9782 -0.1599 -2.6221
   15CHL1  H26B 1105   1.891   3.979   8.436 -1.7023 -0.2490  1.1853
   15CHL1  H26C 1106   1.845   3.980   8.615 -0.0878  1.5978  0.1272
   15CHL1   C27 1107   2.154   3.940   8.466  0.0499 -0.4186  0.1459
   15CHL1  H27A 1108   2.170   4.050   8.460  1.1826 -0.6416 -1.8178
   15CHL1  H27B 1109   2.254   3.895   8.481  0.0832 -0.9858 -1.5646
   15CHL1  H27C 1110   2.125   3.909   8.363 -2.2928 -0.6093  0.8123
   16CHL1    C3 1111   2.208   5.033   9.926 -0.2869 -0.0189 -0.9714
   16CHL1    H3 1112   2.228   5.141   9.939 -0.9747 -0.1715  2.2367
   16CHL1    O3 1113   2.199   4.976  10.061 -0.0284 -0.2721 -0.4126
   16CHL1   H3' 1114   2.120   4.922  10.057 -0.4946  0.3483  0.0882
   16CHL1    C4 1115   2.071   5.019   9.862 -0.1229 -0.6928  0.1740
   16CHL1   H4A 1116   2.037   4.913   9.866 -1.2387 -0.3108  2.3417
   16CHL1   H4B 1117   2.005   5.086   9.921 -1.3981 -1.2951 -0.5340
   16CHL1    C5 1118   2.089   5.069   9.717 -0.3733 -0.3509 -0.3222
   16CHL1    C6 1119   2.016   5.168   9.663 -0.0312  0.9981  0.3186
   16CHL1    H6 1120   1.938   5.220   9.721 -0.4285  0.1958  0.5293
   16CHL1    C7 1121   2.018   5.204   9.522 -0.3578  0.4272 -0.2543
   16CHL1   H7A 1122   1.914   5.232   9.495 -0.4833  1.5968  1.3129
   16CHL1   H7B 1123   2.071   5.300   9.501  0.9423 -0.6518 -2.2599
   16CHL1    C8 1124   2.079   5.101   9.430  0.0039  0.5245 -0.3295
   16CHL1    H8 1125   2.007   5.017   9.422  1.2530 -0.6631  0.4411
   16CHL1   C14 1126   2.104   5.149   9.288  0.5712  0.1448 -0.5403
   16CHL1   H14 1127   2.167   5.238   9.310  0.4397  0.1527 -0.1761
   16CHL1   C15 1128   1.978   5.215   9.216  0.1287  0.5425 -0.3492
   16CHL1  H15A 1129   1.887   5.155   9.236 -1.0783  2.2933 -0.3891
   16CHL1  H15B 1130   1.954   5.318   9.251  0.5190  0.3580  0.4972
   16CHL1   C16 1131   2.020   5.214   9.066  1.0847  0.2123 -0.5507
   16CHL1  H16A 1132   1.957   5.150   9.000 -0.5120 -0.0780  1.1636
   16CHL1  H16B 1133   2.029   5.318   9.028 -1.3379  0.7613  0.1927
   16CHL1   C17 1134   2.168   5.141   9.068  1.4474  0.0480 -0.2004
   16CHL1   H17 1135   2.245   5.218   9.088  0.6934  0.2482  2.2977
   16CHL1   C13 1136   2.164   5.053   9.192  0.3987 -0.2751  0.2380
   16CHL1   C18 1137   2.077   4.936   9.171  0.5321 -0.1591 -0.0394
   16CHL1  H18A 1138   2.117   4.879   9.085  2.3060  2.5712 -1.1583
   16CHL1  H18B 1139   2.076   4.860   9.251 -2.9862 -0.7887 -0.5365
   16CHL1  H18C 1140   1.970   4.966   9.161 -0.5921 -3.0548  1.8575
   16CHL1   C12 1141   2.302   5.014   9.244  0.5032  0.0069 -0.3550
   16CHL1  H12A 1142   2.351   4.930   9.191  1.0464 -1.3803  2.1366
   16CHL1  H12B 1143   2.372   5.099   9.231  2.3424 -1.4979 -0.6680
   16CHL1   C11 1144   2.289   4.958   9.391 -0.9016  0.2388 -0.2468
   16CHL1  H11A 1145   2.241   4.858   9.389 -0.3996 -0.1154 -4.3153
   16CHL1  H11B 1146   2.390   4.939   9.433 -2.1292 -3.8771  1.3099
   16CHL1    C9 1147   2.210   5.050   9.484  0.8106 -0.0135 -0.0754
   16CHL1    H9 1148   2.269   5.143   9.496  2.1739 -1.0901  2.4163
   16CHL1   C10 1149   2.192   4.997   9.628  0.5954 -0.5837 -0.1535
   16CHL1   C19 1150   2.148   4.840   9.622  0.7087  0.1129  0.3629
   16CHL1  H19A 1151   2.136   4.806   9.727  1.0270  1.5363  0.8831
   16CHL1  H19B 1152   2.048   4.827   9.574  0.6933 -1.1975  0.7120
   16CHL1  H19C 1153   2.218   4.771   9.570 -0.8710 -2.0995  1.0115
   16CHL1    C1 1154   2.325   5.010   9.701  0.4558  0.0273 -0.5537
   16CHL1   H1A 1155   2.401   4.949   9.647 -0.3993 -1.4212 -0.1718
   16CHL1   H1B 1156   2.360   5.115   9.701  0.6974 -0.0509 -0.9198
   16CHL1    C2 1157   2.308   4.960   9.847 -0.0541  0.8235 -0.1988
   16CHL1   H2A 1158   2.404   4.981   9.899  0.4451 -2.5319  0.4038
   16CHL1   H2B 1159   2.291   4.852   9.861  1.6179  0.7926  2.0813
   16CHL1   C20 1160   2.209   5.086   8.937  0.7377  0.1078 -0.3152
   16CHL1   H20 1161   2.151   4.995   8.912 -1.2220  1.5005 -1.1301
   16CHL1   C21 1162   2.360   5.059   8.945 -0.1647 -0.3059 -0.7235
   16CHL1  H21A 1163   2.398   5.033   8.844 -0.7411 -0.0628 -1.0089
   16CHL1  H21B 1164   2.382   4.967   9.004  0.7384 -0.0675 -0.6757
   16CHL1  H21C 1165   2.422   5.136   8.996  1.5367 -3.3600  2.1927
   16CHL1   C22 1166   2.186   5.175   8.820  0.6274  0.3063 -1.1038
   16CHL1  H22A 1167   2.096   5.239   8.835  2.8309  3.4296  0.0309
   16CHL1  H22B 1168   2.266   5.252   8.810  1.5099 -0.6119 -1.2666
   16CHL1   C23 1169   2.179   5.110   8.684 -0.0046 -0.5979 -0.1937
   16CHL1  H23A 1170   2.257   5.032   8.669 -0.3753 -0.8896 -0.6221
   16CHL1  H23B 1171   2.084   5.053   8.690 -0.0238 -0.5251  0.2295
   16CHL1   C24 1172   2.176   5.204   8.560  0.4230  0.4179 -0.5037
   16CHL1  H24A 1173   2.097   5.282   8.565  0.4234  0.6522 -2.9576
   16CHL1  H24B 1174   2.273   5.259   8.553  0.1423  0.9508 -0.2014
   16CHL1   C25 1175   2.146   5.140   8.428 -0.1963  0.2424  0.0839
   16CHL1   H25 1176   2.128   5.223   8.357  1.0094 -0.5796 -1.2528
   16CHL1   C26 1177   2.284   5.061   8.390 -0.1469  0.0294  0.0915
   16CHL1  H26A 1178   2.286   5.008   8.292 -0.7353  1.0991 -0.5200
   16CHL1  H26B 1179   2.364   5.137   8.377 -0.6616  0.7027  0.7713
   16CHL1  H26C 1180   2.308   4.990   8.472 -0.2810 -2.5035 -1.9370
   16CHL1   C27 1181   2.023   5.047   8.418  0.1485  0.0231  0.4984
   16CHL1  H27A 1182   2.044   4.955   8.477 -2.1966 -1.0177 -0.2029
   16CHL1  H27B 1183   1.941   5.103   8.465 -0.8544 -2.0509  1.3483
   16CHL1  H27C 1184   2.002   5.027   8.311 -1.0683 -1.5891  1.0009
   17CHL1    C3 1185   5.405   0.763  10.178 -0.1355 -0.6916  0.3849
   17CHL1    H3 1186   5.516   0.756  10.177  0.1398  2.3415 -0.1647
   17CHL1    O3 1187   5.373   0.792  10.312  0.4741  0.9283  0.0050
   17CHL1   H3' 1188   5.277   0.795  10.315  0.4186 -0.4038  0.2857
   17CHL1    C4 1189   5.347   0.878  10.092  0.7272  0.4206  0.0403
   17CHL1   H4A 1190   5.237   0.884  10.100  0.3530  0.3070 -3.4470
   17CHL1   H4B 1191   5.393   0.972  10.129  1.6632  0.8060 -1.9385
   17CHL1    C5 1192   5.375   0.849   9.945 -0.2037  0.1851 -0.2964
   17CHL1    C6 1193   5.441   0.936   9.862  0.4114  0.2859 -0.5336
   17CHL1    H6 1194   5.470   1.030   9.910 -0.4245  1.5691 -2.4204
   17CHL1    C7 1195   5.475   0.920   9.720  1.7830 -0.0230  0.4990
   17CHL1   H7A 1196   5.439   1.014   9.673 -1.1960 -0.7343  1.1554
   17CHL1   H7B 1197   5.585   0.915   9.707  2.0599  1.2923  2.0106
   17CHL1    C8 1198   5.393   0.800   9.660  0.7362  0.3094 -0.1344
   17CHL1    H8 1199   5.286   0.829   9.658  0.1105 -1.8400 -0.7916
   17CHL1   C14 1200   5.432   0.761   9.517 -0.6211  0.6695 -0.5326
   17CHL1   H14 1201   5.535   0.720   9.515 -1.1951 -0.8160 -2.5852
   17CHL1   C15 1202   5.435   0.880   9.422 -0.4971 -0.0808 -0.2996
   17CHL1  H15A 1203   5.345   0.945   9.428 -1.2406 -1.2246  2.1910
   17CHL1  H15B 1204   5.529   0.939   9.428 -0.5722  0.0694 -0.5716
   17CHL1   C16 1205   5.439   0.808   9.283  0.1070  0.2880 -0.5620
   17CHL1  H16A 1206   5.359   0.856   9.223 -0.4245 -1.9915 -1.8038
   17CHL1  H16B 1207   5.538   0.814   9.234  0.2278  0.3546 -0.3127
   17CHL1   C17 1208   5.403   0.657   9.301  0.3352  0.1505  0.5642
   17CHL1   H17 1209   5.500   0.604   9.302  0.4563  0.3476 -0.1330
   17CHL1   C13 1210   5.348   0.654   9.446 -0.5522  0.6799 -0.6866
   17CHL1   C18 1211   5.203   0.682   9.434  0.0520 -0.5579 -0.9189
   17CHL1  H18A 1212   5.151   0.710   9.528  1.3994  1.2252 -0.6615
   17CHL1  H18B 1213   5.184   0.771   9.371  1.0016  0.4555  0.1796
   17CHL1  H18C 1214   5.137   0.601   9.395 -3.8081  2.4566 -1.2443
   17CHL1   C12 1215   5.372   0.529   9.529  0.1943 -0.0748 -0.0685
   17CHL1  H12A 1216   5.299   0.448   9.505 -1.2020  1.7048 -2.1937
   17CHL1  H12B 1217   5.478   0.496   9.523  0.2175  0.1417 -1.0595
   17CHL1   C11 1218   5.334   0.558   9.680 -0.0513 -0.1477  0.2363
   17CHL1  H11A 1219   5.225   0.576   9.669  0.2442  2.3831  0.8435
   17CHL1  H11B 1220   5.362   0.462   9.729  0.3140  0.6400  1.6180
   17CHL1    C9 1221   5.391   0.682   9.753  0.2873  0.5078 -0.0375
   17CHL1    H9 1222   5.496   0.652   9.772  0.8538 -2.3299 -5.5524
   17CHL1   C10 1223   5.332   0.708   9.899  0.2745 -0.2798  0.5720
   17CHL1   C19 1224   5.182   0.699   9.893 -0.5444  0.1672 -0.8766
   17CHL1  H19A 1225   5.163   0.592   9.871 -0.1891 -0.4750  1.6229
   17CHL1  H19B 1226   5.131   0.714   9.991  2.1696  2.1412  0.3620
   17CHL1  H19C 1227   5.136   0.767   9.818 -1.1331  0.4636 -0.2503
   17CHL1    C1 1228   5.378   0.596   9.993 -0.0300  0.3065  0.6323
   17CHL1   H1A 1229   5.332   0.498   9.968  0.7086  0.0895  0.0857
   17CHL1   H1B 1230   5.487   0.588   9.972  0.3235  3.0502  1.1488
   17CHL1    C2 1231   5.347   0.633  10.140 -0.5109 -0.6879  0.2048
   17CHL1   H2A 1232   5.378   0.552  10.209 -1.8029 -1.6610 -0.3102
   17CHL1   H2B 1233   5.237   0.635  10.157 -0.5948 -0.4225 -0.3351
   17CHL1   C20 1234   5.323   0.597   9.181 -1.4475 -0.4850  0.0586
   17CHL1   H20 1235   5.218   0.634   9.170 -2.1798 -2.4676 -0.0715
   17CHL1   C21 1236   5.309   0.447   9.226  0.3378  0.4484  0.2403
   17CHL1  H21A 1237   5.290   0.376   9.143  2.4053 -0.4982  0.5162
   17CHL1  H21B 1238   5.220   0.439   9.293 -1.1618 -0.1385 -1.7362
   17CHL1  H21C 1239   5.406   0.410   9.265 -0.0966 -0.6087  0.3722
   17CHL1   C22 1240   5.407   0.610   9.055 -0.7523  0.0063 -0.1933
   17CHL1  H22A 1241   5.448   0.711   9.035 -1.5407  0.5643  0.8933
   17CHL1  H22B 1242   5.498   0.556   9.086 -0.7907  0.9418  1.7061
   17CHL1   C23 1243   5.346   0.553   8.928  0.7566  0.3825  0.5378
   17CHL1  H23A 1244   5.337   0.442   8.921 -0.4501  0.5616 -1.4631
   17CHL1  H23B 1245   5.243   0.591   8.913  1.2511  1.5654  0.0507
   17CHL1   C24 1246   5.436   0.584   8.804 -0.2223 -0.7519 -0.3000
   17CHL1  H24A 1247   5.430   0.692   8.776 -1.5560 -1.1731 -1.7985
   17CHL1  H24B 1248   5.544   0.570   8.824 -0.2459 -1.7167 -0.8099
   17CHL1   C25 1249   5.386   0.501   8.681  0.5515  0.0074  0.5603
   17CHL1   H25 1250   5.275   0.497   8.673  0.4290 -0.8882  2.4066
   17CHL1   C26 1251   5.442   0.568   8.556  0.1469  0.1501  0.3654
   17CHL1  H26A 1252   5.553   0.564   8.557  0.2683  2.2054  0.1849
   17CHL1  H26B 1253   5.388   0.518   8.473 -0.8937  1.7907  0.0058
   17CHL1  H26C 1254   5.405   0.672   8.546 -0.5774  0.0450  1.6662
   17CHL1   C27 1255   5.436   0.357   8.690 -0.6137  0.0408 -0.8108
   17CHL1  H27A 1256   5.367   0.286   8.739 -0.9460 -0.7576 -2.3564
   17CHL1  H27B 1257   5.437   0.317   8.587 -0.5979  2.0417 -1.6458
   17CHL1  H27C 1258   5.532   0.345   8.744 -0.6009  1.1292 -0.5614
   18CHL1    C3 1259   3.757   6.073   9.892  0.7449  0.2457  0.1536
   18CHL1    H3 1260   3.649   6.079   9.865  0.6943 -1.4440 -0.0952
   18CHL1    O3 1261   3.775   6.071  10.032  0.4120 -0.0324  0.3213
   18CHL1   H3' 1262   3.864   6.106  10.042  0.7110 -0.6029 -0.3085
   18CHL1    C4 1263   3.811   5.937   9.825  0.5128  0.6014 -0.3028
   18CHL1   H4A 1264   3.920   5.921   9.843  1.5377  2.6635 -3.6524
   18CHL1   H4B 1265   3.761   5.849   9.870  0.4949  2.1407  2.9369
   18CHL1    C5 1266   3.803   5.945   9.676  0.0356 -0.2412  0.3929
   18CHL1    C6 1267   3.752   5.842   9.599 -0.8587  0.4351  0.1616
   18CHL1    H6 1268   3.704   5.751   9.637 -2.8945  1.1413 -0.6169
   18CHL1    C7 1269   3.740   5.857   9.450 -0.5297  0.0135 -0.6078
   18CHL1   H7A 1270   3.765   5.763   9.397  0.4788  1.7021 -3.3553
   18CHL1   H7B 1271   3.638   5.894   9.430 -0.7301  0.5934  1.2533
   18CHL1    C8 1272   3.832   5.968   9.388 -0.0355 -0.0860 -0.4129
   18CHL1    H8 1273   3.934   5.925   9.400  0.2644  1.1437  2.1351
   18CHL1   C14 1274   3.798   5.986   9.237 -0.0448 -0.6552 -0.2346
   18CHL1   H14 1275   3.692   6.020   9.235  0.8021  2.6852 -4.4426
   18CHL1   C15 1276   3.824   5.864   9.143  0.3539  0.0207  0.1436
   18CHL1  H15A 1277   3.924   5.827   9.176  0.4337 -1.7361 -1.8421
   18CHL1  H15B 1278   3.751   5.780   9.148 -0.0569  0.3307 -0.5548
   18CHL1   C16 1279   3.833   5.930   9.002 -0.1903  0.2974 -0.4902
   18CHL1  H16A 1280   3.927   5.914   8.945 -0.0734  0.8159 -0.4499
   18CHL1  H16B 1281   3.745   5.899   8.941 -1.4985 -0.9847  1.8933
   18CHL1   C17 1282   3.829   6.086   9.027  0.4174 -0.7474 -0.0450
   18CHL1   H17 1283   3.722   6.112   9.041  0.4019 -1.4017  1.2726
   18CHL1   C13 1284   3.875   6.106   9.175  0.0185  0.2428  0.3490
   18CHL1   C18 1285   4.028   6.080   9.186 -0.4493 -0.6935  0.4424
   18CHL1  H18A 1286   4.079   6.173   9.151 -0.2672 -1.3311 -1.0599
   18CHL1  H18B 1287   4.065   6.044   9.284 -1.1970  1.1655  1.4562
   18CHL1  H18C 1288   4.068   6.007   9.113  1.3616 -1.1035  1.7818
   18CHL1   C12 1289   3.838   6.239   9.245  0.0659 -0.0886  0.8162
   18CHL1  H12A 1290   3.899   6.318   9.195 -1.0033 -1.8575 -3.7423
   18CHL1  H12B 1291   3.731   6.268   9.235  1.0788  3.6746 -1.5632
   18CHL1   C11 1292   3.872   6.230   9.393 -0.4330  0.2217  0.1047
   18CHL1  H11A 1293   3.981   6.222   9.413 -0.2953 -1.6538 -1.1237
   18CHL1  H11B 1294   3.848   6.323   9.449  4.0507  1.7414 -0.0982
   18CHL1    C9 1295   3.813   6.100   9.465  0.2822  0.0336 -0.0250
   18CHL1    H9 1296   3.704   6.125   9.465  0.1607 -0.4648 -0.6492
   18CHL1   C10 1297   3.851   6.076   9.613 -0.0523  0.3895 -0.5968
   18CHL1   C19 1298   4.004   6.072   9.625 -0.3124  0.2637  0.1944
   18CHL1  H19A 1299   4.043   6.033   9.721 -2.1850 -1.2161  0.4162
   18CHL1  H19B 1300   4.056   6.007   9.550  0.8550  0.4209  0.8432
   18CHL1  H19C 1301   4.049   6.173   9.623 -0.7144  0.4365 -0.6320
   18CHL1    C1 1302   3.794   6.202   9.686  0.1639  0.2932  0.2131
   18CHL1   H1A 1303   3.850   6.291   9.650  0.6021  1.2913  3.0337
   18CHL1   H1B 1304   3.688   6.216   9.654  0.8819  0.3231 -2.3508
   18CHL1    C2 1305   3.815   6.202   9.840 -0.3738 -0.1186  0.2966
   18CHL1   H2A 1306   3.781   6.298   9.886 -1.5616  0.5913 -1.9209
   18CHL1   H2B 1307   3.926   6.203   9.845 -0.3699  1.3805  0.3717
   18CHL1   C20 1308   3.898   6.168   8.919 -0.1648 -0.1378 -0.5067
   18CHL1   H20 1309   3.938   6.265   8.957  2.8470 -0.8078 -1.6196
   18CHL1   C21 1310   3.796   6.196   8.817  0.2415 -0.8035 -0.0273
   18CHL1  H21A 1311   3.831   6.282   8.756 -0.7981 -0.4292 -0.1064
   18CHL1  H21B 1312   3.703   6.216   8.874 -2.0968 -4.5766 -2.1258
   18CHL1  H21C 1313   3.771   6.113   8.747 -1.1243 -0.9625  0.6239
   18CHL1   C22 1314   4.028   6.113   8.844 -0.2854 -0.3660  0.0406
   18CHL1  H22A 1315   4.114   6.093   8.910 -2.1764  0.3167  2.9104
   18CHL1  H22B 1316   4.002   6.018   8.792 -0.0012  0.8959 -2.5760
   18CHL1   C23 1317   4.078   6.194   8.729  0.6088 -0.2981 -0.3409
   18CHL1  H23A 1318   4.002   6.213   8.650  1.1613 -1.2319 -1.1128
   18CHL1  H23B 1319   4.105   6.295   8.766  0.0301 -0.0011 -0.7087
   18CHL1   C24 1320   4.197   6.140   8.645 -0.1809  0.4732 -0.2652
   18CHL1  H24A 1321   4.277   6.099   8.711 -0.2208 -0.8809 -1.0245
   18CHL1  H24B 1322   4.159   6.050   8.592 -1.4128  0.4823  0.5593
   18CHL1   C25 1323   4.264   6.233   8.537 -0.4068  0.5629 -0.1114
   18CHL1   H25 1324   4.188   6.239   8.456 -1.3700 -1.5053  0.5662
   18CHL1   C26 1325   4.300   6.375   8.586  0.4778  0.0189 -0.0258
   18CHL1  H26A 1326   4.218   6.448   8.601  0.7226  0.2551  0.1864
   18CHL1  H26B 1327   4.347   6.376   8.687 -0.3554 -0.8340  0.3832
   18CHL1  H26C 1328   4.371   6.414   8.510  1.2033 -0.1296  0.5602
   18CHL1   C27 1329   4.392   6.177   8.479  0.6865  0.4365 -0.8851
   18CHL1  H27A 1330   4.475   6.188   8.553  0.1181 -0.4214 -0.1081
   18CHL1  H27B 1331   4.390   6.069   8.453 -1.2826 -0.3099  1.9515
   18CHL1  H27C 1332   4.412   6.241   8.390  0.4737  0.5601 -0.8454
   19CHL1    C3 1333   0.140   1.732   9.951 -0.2870 -0.2961 -0.7179
   19CHL1    H3 1334   0.069   1.813   9.924 -1.0785 -0.7684 -0.1118
   19CHL1    O3 1335   0.176   1.730  10.089  0.2015  0.1991  0.1684
   19CHL1   H3' 1336   0.185   1.638  10.112  4.1630  0.1865 -0.6922
   19CHL1    C4 1337   0.079   1.600   9.922 -0.5577 -0.2465 -0.1712
   19CHL1   H4A 1338   0.141   1.513   9.954  0.3652  0.0473 -1.1144
   19CHL1   H4B 1339  -0.013   1.586   9.983 -0.1212 -1.1973  0.3039
   19CHL1    C5 1340   0.047   1.587   9.775  0.0357 -0.3968  0.0642
   19CHL1    C6 1341  -0.076   1.561   9.734  0.1037  0.1621 -0.5073
   19CHL1    H6 1342  -0.155   1.546   9.809  1.0259 -2.3429  0.0698
   19CHL1    C7 1343  -0.113   1.531   9.592 -0.4722 -0.2414 -0.3213
   19CHL1   H7A 1344  -0.167   1.434   9.596  0.2905 -0.6373  1.5003
   19CHL1   H7B 1345  -0.179   1.608   9.548  0.2017 -0.4213 -1.6963
   19CHL1    C8 1346   0.010   1.509   9.495  0.9858  0.9661 -0.4895
   19CHL1    H8 1347   0.052   1.407   9.501  0.4806  0.8238  1.0589
   19CHL1   C14 1348  -0.024   1.536   9.353  0.6376  0.4570  0.1959
   19CHL1   H14 1349  -0.033   1.646   9.342 -1.5312  0.3623  0.4638
   19CHL1   C15 1350  -0.152   1.476   9.288 -0.2410 -0.5567 -0.8661
   19CHL1  H15A 1351  -0.160   1.378   9.339  2.9615  0.8570  2.9042
   19CHL1  H15B 1352  -0.247   1.521   9.324 -0.1635 -1.3833  0.4289
   19CHL1   C16 1353  -0.125   1.453   9.142 -0.1880  0.2246 -0.2232
   19CHL1  H16A 1354  -0.137   1.347   9.109 -1.6810  0.0838  0.6388
   19CHL1  H16B 1355  -0.195   1.514   9.082 -2.1699 -1.7815 -0.1082
   19CHL1   C17 1356   0.008   1.521   9.111 -0.1106  0.3708  0.1568
   19CHL1   H17 1357  -0.004   1.629   9.087  0.1880  0.1444 -1.1288
   19CHL1   C13 1358   0.088   1.504   9.251 -0.4466 -0.2820  0.8041
   19CHL1   C18 1359   0.144   1.362   9.265 -0.1439 -0.2223 -0.2928
   19CHL1  H18A 1360   0.211   1.361   9.353 -1.1020  1.5432  0.5069
   19CHL1  H18B 1361   0.068   1.286   9.288  1.2923 -1.2232  1.3579
   19CHL1  H18C 1362   0.210   1.338   9.179  2.5986 -0.1270  1.6516
   19CHL1   C12 1363   0.194   1.616   9.269  0.2526 -0.4575 -0.1943
   19CHL1  H12A 1364   0.283   1.594   9.205  0.7561  0.1051  0.3000
   19CHL1  H12B 1365   0.150   1.713   9.240 -0.0292 -0.5881 -0.2038
   19CHL1   C11 1366   0.242   1.616   9.422  0.2552 -0.4432 -0.2677
   19CHL1  H11A 1367   0.307   1.527   9.431 -0.1639 -0.6007  1.6153
   19CHL1  H11B 1368   0.315   1.696   9.448  0.6066 -0.9000  0.1426
   19CHL1    C9 1369   0.115   1.614   9.527 -1.2891  0.5749 -0.4144
   19CHL1    H9 1370   0.062   1.710   9.511 -2.6778 -0.0073  0.5557
   19CHL1   C10 1371   0.161   1.609   9.678  0.1180  0.4030 -0.6431
   19CHL1   C19 1372   0.265   1.494   9.703 -0.1243  0.7290 -0.0094
   19CHL1  H19A 1373   0.290   1.485   9.811 -0.4364 -1.9134 -0.1072
   19CHL1  H19B 1374   0.222   1.397   9.671 -0.0975  0.8879 -0.5422
   19CHL1  H19C 1375   0.353   1.501   9.636 -0.0708  0.7398  0.0618
   19CHL1    C1 1376   0.226   1.742   9.714 -0.2674 -0.2298 -0.2030
   19CHL1   H1A 1377   0.309   1.766   9.644  1.0890 -2.5194  0.5308
   19CHL1   H1B 1378   0.152   1.823   9.694 -0.1758 -0.6274 -2.3822
   19CHL1    C2 1379   0.266   1.763   9.862  0.3127  0.1259 -0.1668
   19CHL1   H2A 1380   0.312   1.862   9.877  1.2817 -0.1835 -0.9374
   19CHL1   H2B 1381   0.338   1.683   9.890 -0.5155 -1.0727 -1.2841
   19CHL1   C20 1382   0.088   1.480   8.978  0.3511 -0.2371 -0.0744
   19CHL1   H20 1383   0.154   1.392   8.996  1.6819  0.3491 -1.8300
   19CHL1   C21 1384   0.161   1.603   8.929  0.0699 -0.5545 -0.7841
   19CHL1  H21A 1385   0.227   1.575   8.844  2.2802 -1.5201  1.1476
   19CHL1  H21B 1386   0.226   1.643   9.010 -1.9397  2.0373 -0.3104
   19CHL1  H21C 1387   0.086   1.684   8.917 -0.0339 -0.2859  1.3065
   19CHL1   C22 1388  -0.002   1.423   8.865  0.0298 -0.4071  0.0600
   19CHL1  H22A 1389  -0.040   1.326   8.904  2.2777  0.0444  3.7752
   19CHL1  H22B 1390  -0.081   1.498   8.841 -0.1189  0.0253  1.7526
   19CHL1   C23 1391   0.073   1.387   8.732  0.0937 -0.2991  0.5997
   19CHL1  H23A 1392   0.090   1.483   8.679 -1.2139 -1.3770 -1.9386
   19CHL1  H23B 1393   0.169   1.337   8.759  0.6024 -0.6339 -1.6211
   19CHL1   C24 1394  -0.017   1.306   8.634  0.1990 -0.3844 -0.7575
   19CHL1  H24A 1395  -0.029   1.201   8.667 -1.2787 -0.2594 -0.8042
   19CHL1  H24B 1396  -0.117   1.355   8.638  0.4840  0.1121  1.9615
   19CHL1   C25 1397   0.034   1.304   8.489 -0.0690 -0.3337 -0.9655
   19CHL1   H25 1398   0.026   1.410   8.460  2.2794 -0.2737 -1.6027
   19CHL1   C26 1399   0.175   1.252   8.468  0.1697 -0.3861 -0.6206
   19CHL1  H26A 1400   0.256   1.317   8.508  1.5851 -1.3442 -1.8141
   19CHL1  H26B 1401   0.193   1.154   8.517 -1.4077 -0.3297  0.1315
   19CHL1  H26C 1402   0.194   1.235   8.360  0.2111  1.0453 -0.8512
   19CHL1   C27 1403  -0.056   1.223   8.399 -0.2956 -0.4595 -0.9800
   19CHL1  H27A 1404  -0.066   1.121   8.440 -0.0681  0.1224  0.5585
   19CHL1  H27B 1405  -0.158   1.266   8.403 -0.3566 -0.7060  0.4875
   19CHL1  H27C 1406  -0.021   1.220   8.293 -0.1643 -2.1315 -0.9148
   20CHL1    C3 1407   2.316   2.917   9.538 -0.4383  0.0501  0.5607
   20CHL1    H3 1408   2.239   2.842   9.512 -0.0220 -0.2497  0.1664
   20CHL1    O3 1409   2.366   2.896   9.664  0.1032  0.0357 -0.0610
   20CHL1   H3' 1410   2.347   2.806   9.690  1.5495 -0.1139  0.6082
   20CHL1    C4 1411   2.429   2.910   9.430 -0.2255  0.1952  0.7789
   20CHL1   H4A 1412   2.529   2.949   9.459  1.0620 -0.4323 -2.3560
   20CHL1   H4B 1413   2.461   2.803   9.425 -0.7217  0.0708 -2.7986
   20CHL1    C5 1414   2.399   2.966   9.289 -0.4784 -0.4620 -0.6035
   20CHL1    C6 1415   2.429   2.899   9.178 -0.1194 -0.2707 -0.2543
   20CHL1    H6 1416   2.482   2.806   9.201  0.0972 -0.2431 -0.6327
   20CHL1    C7 1417   2.408   2.936   9.038  0.0839 -0.1481  0.3453
   20CHL1   H7A 1418   2.497   2.908   8.978 -0.3888 -0.0990 -0.3911
   20CHL1   H7B 1419   2.325   2.887   8.983  1.7399  0.2346 -2.7812
   20CHL1    C8 1420   2.386   3.089   9.034 -0.8220 -0.5782  0.4585
   20CHL1    H8 1421   2.485   3.134   9.054 -0.5343 -0.8187 -0.3734
   20CHL1   C14 1422   2.341   3.135   8.897 -0.0976  0.0301 -0.0703
   20CHL1   H14 1423   2.255   3.067   8.881  0.7137 -0.4720 -2.8169
   20CHL1   C15 1424   2.425   3.108   8.776  0.2252 -0.4952  0.0426
   20CHL1  H15A 1425   2.519   3.162   8.798 -0.1123 -0.5049  1.6424
   20CHL1  H15B 1426   2.445   3.001   8.752  2.1133 -0.0290 -0.6522
   20CHL1   C16 1427   2.364   3.175   8.658  0.2395  0.4922  0.3024
   20CHL1  H16A 1428   2.446   3.240   8.623 -0.8753  0.5269 -2.5350
   20CHL1  H16B 1429   2.316   3.114   8.579 -0.9778  0.3663  1.1091
   20CHL1   C17 1430   2.252   3.268   8.720 -0.4030 -0.2331 -0.1531
   20CHL1   H17 1431   2.157   3.210   8.718 -1.5822  1.6295 -1.6208
   20CHL1   C13 1432   2.286   3.277   8.871  0.7960  0.5659 -0.0849
   20CHL1   C18 1433   2.403   3.378   8.890 -0.3282 -0.1222 -0.3850
   20CHL1  H18A 1434   2.487   3.380   8.818 -0.3495 -0.4302 -0.4185
   20CHL1  H18B 1435   2.358   3.479   8.901  0.6105  0.1266  1.5713
   20CHL1  H18C 1436   2.449   3.360   8.990  0.4499  0.4051 -0.6307
   20CHL1   C12 1437   2.174   3.307   8.966  0.1895  0.4621 -0.2445
   20CHL1  H12A 1438   2.132   3.409   8.961 -1.7167 -0.2721 -0.1079
   20CHL1  H12B 1439   2.087   3.247   8.931  0.7976 -0.2749 -0.5297
   20CHL1   C11 1440   2.217   3.275   9.113  0.0264  0.2058  0.2925
   20CHL1  H11A 1441   2.289   3.353   9.147  0.4342 -0.6520  1.5007
   20CHL1  H11B 1442   2.125   3.285   9.175  0.1858 -3.0618  1.2553
   20CHL1    C9 1443   2.282   3.137   9.139 -0.0419  0.3474 -0.1259
   20CHL1    H9 1444   2.201   3.061   9.141  0.4117 -0.1541 -0.4664
   20CHL1   C10 1445   2.336   3.107   9.284  0.8469  0.1488 -0.1608
   20CHL1   C19 1446   2.450   3.204   9.313  0.2990  0.1316 -0.2153
   20CHL1  H19A 1447   2.408   3.307   9.321 -2.3382 -0.9939  2.0234
   20CHL1  H19B 1448   2.491   3.173   9.411  0.2880  3.0090  0.8226
   20CHL1  H19C 1449   2.534   3.213   9.242  0.3595 -0.8528 -0.2694
   20CHL1    C1 1450   2.225   3.109   9.396  0.0189  0.2768  0.5643
   20CHL1   H1A 1451   2.199   3.217   9.403 -0.7533  0.3766 -2.3158
   20CHL1   H1B 1452   2.130   3.057   9.372  0.0979 -0.2494  1.3613
   20CHL1    C2 1453   2.265   3.062   9.537  0.5629  0.5166  0.4881
   20CHL1   H2A 1454   2.183   3.069   9.610  1.6691  1.5925  1.6799
   20CHL1   H2B 1455   2.335   3.139   9.576 -0.9823  1.4378  1.5061
   20CHL1   C20 1456   2.239   3.401   8.640 -0.1062 -0.6062  0.2402
   20CHL1   H20 1457   2.333   3.460   8.649 -1.6625  2.1330 -0.5539
   20CHL1   C21 1458   2.126   3.494   8.688  0.3243 -0.0602 -0.2997
   20CHL1  H21A 1459   2.036   3.434   8.714  0.8152 -0.7896 -0.2211
   20CHL1  H21B 1460   2.098   3.572   8.615  1.5357 -0.4389 -1.1971
   20CHL1  H21C 1461   2.153   3.548   8.782 -2.4818 -0.1198  0.6301
   20CHL1   C22 1462   2.213   3.364   8.488 -1.0999  0.3441 -0.7583
   20CHL1  H22A 1463   2.282   3.288   8.447  0.6652  1.2555  0.3830
   20CHL1  H22B 1464   2.109   3.325   8.485 -0.5595 -1.2958  0.5476
   20CHL1   C23 1465   2.230   3.484   8.389  0.3209 -0.1194  0.7501
   20CHL1  H23A 1466   2.164   3.567   8.422 -0.4234 -1.8251  4.0662
   20CHL1  H23B 1467   2.334   3.523   8.399  1.4672 -2.8669  0.5416
   20CHL1   C24 1468   2.203   3.445   8.242 -0.0894  0.1221  0.2094
   20CHL1  H24A 1469   2.260   3.355   8.209 -2.5956 -2.0065  1.2439
   20CHL1  H24B 1470   2.097   3.414   8.242 -0.2607  0.5529  2.2523
   20CHL1   C25 1471   2.207   3.564   8.146 -0.1331 -0.2396  0.6083
   20CHL1   H25 1472   2.290   3.630   8.177  0.2804 -0.9205  0.9722
   20CHL1   C26 1473   2.237   3.524   8.003 -0.0017  0.3690 -0.1122
   20CHL1  H26A 1474   2.237   3.613   7.936  1.8813 -0.6023 -1.4751
   20CHL1  H26B 1475   2.341   3.488   7.989  0.3257  0.7194  1.2942
   20CHL1  H26C 1476   2.171   3.445   7.959  2.3120 -1.5012 -0.4115
   20CHL1   C27 1477   2.074   3.637   8.155  0.1007 -0.1702  0.9735
   20CHL1  H27A 1478   2.078   3.737   8.107  0.1309  0.4076  2.1335
   20CHL1  H27B 1479   1.997   3.579   8.098  1.4142 -2.7036  1.6338
   20CHL1  H27C 1480   2.037   3.659   8.258 -1.2910  0.8478  0.2931
   21CHL1    C3 1481   3.185   6.652   9.949  0.4589  0.1641 -0.0457
   21CHL1    H3 1482   3.265   6.729   9.957  0.3808  0.1420  1.0254
   21CHL1    O3 1483   3.145   6.603  10.081 -0.1677 -0.5070  0.0348
   21CHL1   H3' 1484   3.219   6.553  10.114 -1.1070 -2.8451 -1.1869
   21CHL1    C4 1485   3.059   6.708   9.886 -0.1023  0.2196 -0.0513
   21CHL1   H4A 1486   2.971   6.644   9.908  0.1371 -0.3510 -0.7112
   21CHL1   H4B 1487   3.034   6.796   9.948 -1.4931 -0.0056 -0.2729
   21CHL1    C5 1488   3.066   6.739   9.740 -0.1135 -0.1085  1.0980
   21CHL1    C6 1489   3.045   6.860   9.688  0.4212  0.6246 -0.1762
   21CHL1    H6 1490   3.016   6.943   9.754 -1.8939 -0.0473 -0.2839
   21CHL1    C7 1491   3.055   6.895   9.542  0.0008 -0.2256 -0.7925
   21CHL1   H7A 1492   2.965   6.954   9.516 -0.8496 -1.2928 -0.3347
   21CHL1   H7B 1493   3.152   6.945   9.522 -0.5404  0.7414 -1.0808
   21CHL1    C8 1494   3.046   6.766   9.447  0.1849 -0.0851 -0.8587
   21CHL1    H8 1495   2.944   6.725   9.465  0.5295 -0.5537  0.0472
   21CHL1   C14 1496   3.071   6.801   9.302  0.1016 -0.1400  0.1092
   21CHL1   H14 1497   3.174   6.844   9.308 -0.7042  1.9156  0.0242
   21CHL1   C15 1498   2.998   6.912   9.232  0.0437 -0.5794 -0.5939
   21CHL1  H15A 1499   2.887   6.907   9.240  0.1315 -2.8978  0.0446
   21CHL1  H15B 1500   3.036   7.010   9.269 -1.4479  0.4678 -1.7110
   21CHL1   C16 1501   3.046   6.892   9.084 -0.3455  0.0574  0.1417
   21CHL1  H16A 1502   2.959   6.875   9.017  0.8689 -2.2535 -0.9497
   21CHL1  H16B 1503   3.106   6.983   9.058  0.5609 -1.0828 -2.0415
   21CHL1   C17 1504   3.134   6.765   9.075  0.0326 -0.0070 -0.8751
   21CHL1   H17 1505   3.237   6.800   9.100 -0.8663  1.0348  1.5934
   21CHL1   C13 1506   3.091   6.685   9.202  0.2624 -0.4118  0.1449
   21CHL1   C18 1507   2.952   6.607   9.178 -0.1506  0.3199 -0.3541
   21CHL1  H18A 1508   2.978   6.510   9.130 -1.5054  0.7006 -1.9291
   21CHL1  H18B 1509   2.909   6.585   9.278  0.7545  0.0978  0.0053
   21CHL1  H18C 1510   2.888   6.659   9.105 -1.6927 -0.9227  0.0647
   21CHL1   C12 1511   3.200   6.596   9.258 -0.0226 -0.0644  0.0717
   21CHL1  H12A 1512   3.207   6.504   9.196 -1.4828 -0.2902  0.1945
   21CHL1  H12B 1513   3.295   6.651   9.241 -0.5265  0.7156 -0.2670
   21CHL1   C11 1514   3.170   6.554   9.402 -0.7323  0.3339  0.0326
   21CHL1  H11A 1515   3.076   6.496   9.390 -0.8450  0.6304 -0.5397
   21CHL1  H11B 1516   3.252   6.486   9.434 -0.2460 -0.0492 -1.8825
   21CHL1    C9 1517   3.150   6.668   9.497  0.4198 -0.2133  0.3059
   21CHL1    H9 1518   3.243   6.726   9.506  1.1849 -1.1688 -1.0683
   21CHL1   C10 1519   3.113   6.624   9.644  0.1569 -0.0885 -0.1814
   21CHL1   C19 1520   2.998   6.520   9.634 -0.7813 -0.4319 -0.6987
   21CHL1  H19A 1521   2.918   6.538   9.560 -0.2475  1.5916 -0.8431
   21CHL1  H19B 1522   3.044   6.423   9.605 -0.7068 -0.3335 -0.9054
   21CHL1  H19C 1523   2.947   6.508   9.732 -0.3946 -1.6308 -0.6274
   21CHL1    C1 1524   3.241   6.575   9.716 -0.4946 -0.3888  0.0632
   21CHL1   H1A 1525   3.288   6.490   9.663 -0.2281 -0.5849  0.6042
   21CHL1   H1B 1526   3.318   6.655   9.714 -2.1919  1.3224 -0.4543
   21CHL1    C2 1527   3.230   6.535   9.863  0.1547  0.1479  0.2566
   21CHL1   H2A 1528   3.330   6.499   9.894  0.7295  0.7595 -0.8200
   21CHL1   H2B 1529   3.151   6.457   9.864 -0.9853  1.2580  0.3282
   21CHL1   C20 1530   3.116   6.696   8.942 -0.1225  0.3698  0.1224
   21CHL1   H20 1531   3.010   6.672   8.919  0.5118 -1.1680 -1.4218
   21CHL1   C21 1532   3.194   6.567   8.927  0.0657  0.1477  0.6475
   21CHL1  H21A 1533   3.178   6.515   8.830 -1.0617 -1.5095  1.6634
   21CHL1  H21B 1534   3.149   6.494   8.998  2.3417 -0.8901  1.1099
   21CHL1  H21C 1535   3.302   6.574   8.952 -0.2624 -0.2235  2.3126
   21CHL1   C22 1536   3.170   6.788   8.826  0.1147 -0.2521 -0.6479
   21CHL1  H22A 1537   3.109   6.881   8.818  1.7419  1.0014  0.7914
   21CHL1  H22B 1538   3.268   6.834   8.850 -1.5149  2.4528  1.3577
   21CHL1   C23 1539   3.149   6.722   8.684  0.1055 -0.3721 -0.0442
   21CHL1  H23A 1540   3.239   6.662   8.657  2.3055  2.4263  0.6632
   21CHL1  H23B 1541   3.059   6.656   8.689  0.7850 -1.3328 -0.1634
   21CHL1   C24 1542   3.129   6.828   8.575 -0.6162  0.2338  0.1205
   21CHL1  H24A 1543   3.033   6.880   8.594 -0.5594  1.1709 -1.8676
   21CHL1  H24B 1544   3.216   6.898   8.574 -0.6841  0.3307  0.6986
   21CHL1   C25 1545   3.116   6.757   8.433 -0.3354 -0.3431  0.2407
   21CHL1   H25 1546   3.044   6.675   8.455 -1.6901  1.6220  4.0610
   21CHL1   C26 1547   3.063   6.865   8.335 -0.1648 -0.2534  0.4340
   21CHL1  H26A 1548   2.968   6.905   8.377  0.7264  0.4580  1.8898
   21CHL1  H26B 1549   3.145   6.940   8.327  1.1361 -1.7678 -1.1575
   21CHL1  H26C 1550   3.044   6.823   8.234 -0.0575  1.1492 -0.1895
   21CHL1   C27 1551   3.257   6.704   8.381  0.3868  0.2322  0.2309
   21CHL1  H27A 1552   3.250   6.632   8.296  1.2520 -0.1628  0.4837
   21CHL1  H27B 1553   3.327   6.784   8.350 -1.1605  0.5010 -3.0852
   21CHL1  H27C 1554   3.301   6.635   8.456  0.4537 -1.0526 -0.9341
   22CHL1    C3 1555   2.844   1.196   9.995 -0.2498 -0.6003 -0.0262
   22CHL1    H3 1556   2.743   1.192   9.950  0.7471  1.0841 -2.6505
   22CHL1    O3 1557   2.832   1.178  10.139 -0.2094  0.0120 -0.3858
   22CHL1   H3' 1558   2.739   1.155  10.153 -1.0037  2.0047 -1.9646
   22CHL1    C4 1559   2.940   1.082   9.949  0.4920  0.2893  0.3976
   22CHL1   H4A 1560   3.039   1.071   9.998  1.3196 -1.0119 -1.4574
   22CHL1   H4B 1561   2.886   0.985   9.959  1.6411 -0.4103  0.0275
   22CHL1    C5 1562   2.975   1.101   9.804  0.2465  0.0034  0.5974
   22CHL1    C6 1563   2.936   1.007   9.708 -0.4277 -0.9418  0.1815
   22CHL1    H6 1564   2.897   0.911   9.746  1.9708 -2.1439 -0.2120
   22CHL1    C7 1565   2.970   1.018   9.561 -1.3768  0.2930  0.1154
   22CHL1   H7A 1566   3.027   0.932   9.518 -1.5547 -1.2697  2.7788
   22CHL1   H7B 1567   2.879   1.023   9.497  0.2331 -1.5705 -2.5533
   22CHL1    C8 1568   3.064   1.134   9.535  0.2850 -0.4182  0.0496
   22CHL1    H8 1569   3.168   1.110   9.566  0.3333 -0.3797 -0.0836
   22CHL1   C14 1570   3.062   1.160   9.385  0.5256 -0.2648  0.8977
   22CHL1   H14 1571   2.958   1.198   9.372  1.5874  2.5138 -0.3983
   22CHL1   C15 1572   3.087   1.051   9.278 -0.1392  0.4464  0.2386
   22CHL1  H15A 1573   3.170   0.978   9.285 -0.2244  0.4444  1.4731
   22CHL1  H15B 1574   2.998   0.984   9.274 -1.7104  2.5202 -1.1334
   22CHL1   C16 1575   3.104   1.126   9.146  0.1196 -1.2397  0.0591
   22CHL1  H16A 1576   3.213   1.115   9.128  0.2618 -1.8443  1.1597
   22CHL1  H16B 1577   3.039   1.097   9.060 -0.6198  0.6585 -0.0558
   22CHL1   C17 1578   3.100   1.279   9.181 -0.0642  0.1529 -0.1018
   22CHL1   H17 1579   2.993   1.310   9.171 -0.1286 -0.2121 -0.6232
   22CHL1   C13 1580   3.138   1.277   9.334  0.1005 -0.4555 -0.1262
   22CHL1   C18 1581   3.286   1.246   9.366 -0.7260 -0.1582  0.6426
   22CHL1  H18A 1582   3.321   1.165   9.299  3.7932  1.8457  0.1430
   22CHL1  H18B 1583   3.350   1.337   9.356  1.3879 -1.4731  1.4368
   22CHL1  H18C 1584   3.302   1.219   9.473  1.8184  0.5612  0.5283
   22CHL1   C12 1585   3.087   1.405   9.412  0.3825  1.0131 -0.6999
   22CHL1  H12A 1586   3.145   1.493   9.378  0.0700  1.6938  0.4669
   22CHL1  H12B 1587   2.979   1.423   9.394 -0.5031 -1.0068  1.9325
   22CHL1   C11 1588   3.087   1.384   9.566  0.3102 -0.6403 -0.2747
   22CHL1  H11A 1589   3.187   1.401   9.610 -0.9196  0.4777  2.3222
   22CHL1  H11B 1590   3.036   1.474   9.608  0.9129 -0.8271  0.8795
   22CHL1    C9 1591   3.023   1.263   9.613  0.1708  0.3507 -0.7807
   22CHL1    H9 1592   2.914   1.273   9.592 -0.7350 -0.8069  2.7544
   22CHL1   C10 1593   3.025   1.242   9.768  0.6323  1.0396 -0.4336
   22CHL1   C19 1594   3.167   1.250   9.815 -0.5667 -0.5461  0.2293
   22CHL1  H19A 1595   3.211   1.352   9.816 -0.3087 -0.6374  2.1236
   22CHL1  H19B 1596   3.185   1.218   9.920  0.7575  2.5311  1.0467
   22CHL1  H19C 1597   3.234   1.183   9.757  1.0545 -1.2361  2.7454
   22CHL1    C1 1598   2.938   1.352   9.835  0.0626 -0.3525 -0.4354
   22CHL1   H1A 1599   2.969   1.458   9.822  0.3259 -0.4412 -0.5308
   22CHL1   H1B 1600   2.840   1.334   9.786  0.2888 -1.3562 -0.5399
   22CHL1    C2 1601   2.911   1.331   9.983 -0.2505  0.0816  0.0651
   22CHL1   H2A 1602   2.848   1.411  10.027  1.4812  1.1607  0.6731
   22CHL1   H2B 1603   3.010   1.338  10.032  0.6118  0.9394 -1.6856
   22CHL1   C20 1604   3.185   1.376   9.097  0.3825 -0.0555 -0.2719
   22CHL1   H20 1605   3.237   1.446   9.165 -0.1141  1.9875 -1.8493
   22CHL1   C21 1606   3.083   1.458   9.014  1.1919 -0.5963  0.2213
   22CHL1  H21A 1607   3.031   1.399   8.935 -0.4377 -0.1315  0.9219
   22CHL1  H21B 1608   3.122   1.547   8.961 -2.1300  0.3491 -0.8718
   22CHL1  H21C 1609   2.994   1.493   9.069  1.2598 -0.0978  0.0154
   22CHL1   C22 1610   3.297   1.314   9.004 -0.3086  0.5459 -0.6140
   22CHL1  H22A 1611   3.371   1.270   9.074 -0.9525  0.1475 -0.1664
   22CHL1  H22B 1612   3.250   1.232   8.946 -1.4138 -0.7165  1.8908
   22CHL1   C23 1613   3.352   1.414   8.900 -0.3540  0.1738 -0.0065
   22CHL1  H23A 1614   3.280   1.448   8.823  1.6536  0.7623 -1.7073
   22CHL1  H23B 1615   3.395   1.506   8.945  0.5473  0.2866 -1.0641
   22CHL1   C24 1616   3.476   1.364   8.826 -0.8017 -0.2739 -0.2269
   22CHL1  H24A 1617   3.552   1.353   8.907 -0.1109 -1.0790 -0.9565
   22CHL1  H24B 1618   3.459   1.259   8.794 -0.0148  0.0659 -1.8771
   22CHL1   C25 1619   3.535   1.462   8.719  0.1773 -0.3743 -0.2285
   22CHL1   H25 1620   3.457   1.443   8.642 -0.6411 -0.5330  0.6204
   22CHL1   C26 1621   3.530   1.608   8.770 -0.2651 -0.0397 -0.0397
   22CHL1  H26A 1622   3.587   1.616   8.865  2.7622 -0.4880 -1.6767
   22CHL1  H26B 1623   3.564   1.680   8.692 -1.7382  0.5412 -0.1841
   22CHL1  H26C 1624   3.426   1.643   8.789 -1.7764 -4.0950  0.1012
   22CHL1   C27 1625   3.678   1.422   8.680  0.2844  0.0704 -0.5556
   22CHL1  H27A 1626   3.714   1.475   8.589 -2.0641  0.8363 -1.0897
   22CHL1  H27B 1627   3.736   1.438   8.774 -3.7131  0.0210  2.1320
   22CHL1  H27C 1628   3.691   1.313   8.661  1.9877 -0.2675  2.0625
   23CHL1    C3 1629   5.169   3.077   9.892 -0.2376 -0.0641 -0.7027
   23CHL1    H3 1630   5.109   2.987   9.865 -1.0042  0.4930 -0.8804
   23CHL1    O3 1631   5.142   3.110  10.030  0.1025 -0.3736  0.1249
   23CHL1   H3' 1632   5.194   3.186  10.057  0.9869 -1.0703  0.4439
   23CHL1    C4 1633   5.325   3.058   9.873  0.3001  0.1886 -0.1488
   23CHL1   H4A 1634   5.384   3.140   9.918  0.5372 -1.8931  3.7891
   23CHL1   H4B 1635   5.358   2.965   9.924  1.0394  0.6242  0.1846
   23CHL1    C5 1636   5.370   3.051   9.728  0.1536 -0.5263 -0.0219
   23CHL1    C6 1637   5.441   2.947   9.680  0.2476  0.0547 -0.3556
   23CHL1    H6 1638   5.464   2.863   9.747  0.6672 -0.4244 -1.0965
   23CHL1    C7 1639   5.501   2.940   9.541 -0.0244 -1.0382 -0.1774
   23CHL1   H7A 1640   5.612   2.934   9.547 -0.0931 -4.3626 -0.4791
   23CHL1   H7B 1641   5.465   2.848   9.491 -1.1803 -0.7426  0.0770
   23CHL1    C8 1642   5.472   3.075   9.462  0.7615 -0.9674 -0.2331
   23CHL1    H8 1643   5.551   3.145   9.497 -0.8381  0.6495  0.3654
   23CHL1   C14 1644   5.484   3.060   9.312  0.5436 -0.0748  0.9066
   23CHL1   H14 1645   5.397   2.994   9.293 -0.2654  0.8052  1.4731
   23CHL1   C15 1646   5.606   2.995   9.250  0.3619  0.2301 -0.2426
   23CHL1  H15A 1647   5.693   3.041   9.300  0.8506 -0.2998 -0.6003
   23CHL1  H15B 1648   5.595   2.885   9.260  1.0374  0.2205  0.4446
   23CHL1   C16 1649   5.607   3.036   9.101  0.2401  0.1204 -0.8620
   23CHL1  H16A 1650   5.704   3.087   9.086 -0.9740  2.7730 -0.3500
   23CHL1  H16B 1651   5.591   2.950   9.033  1.4846  0.8341 -2.1024
   23CHL1   C17 1652   5.493   3.145   9.085 -0.2659  0.0622 -0.5007
   23CHL1   H17 1653   5.408   3.078   9.059 -0.0875 -0.5793  0.5093
   23CHL1   C13 1654   5.463   3.196   9.230 -0.4239  0.3682 -0.0011
   23CHL1   C18 1655   5.553   3.308   9.272 -0.1191  0.8898 -0.2613
   23CHL1  H18A 1656   5.659   3.273   9.274 -0.0041  1.2444  0.0609
   23CHL1  H18B 1657   5.542   3.398   9.207  0.7750  0.4399 -1.0609
   23CHL1  H18C 1658   5.535   3.339   9.377 -0.8131  1.5640 -0.5754
   23CHL1   C12 1659   5.319   3.239   9.252 -0.0552  0.0264 -0.1468
   23CHL1  H12A 1660   5.296   3.339   9.209 -0.1773 -0.5347 -1.4517
   23CHL1  H12B 1661   5.256   3.161   9.205 -1.4002  0.7531  0.4012
   23CHL1   C11 1662   5.290   3.247   9.405  0.1911  1.0758  0.0840
   23CHL1  H11A 1663   5.326   3.346   9.440  0.8629  0.3245  1.6197
   23CHL1  H11B 1664   5.179   3.250   9.410  0.0158 -2.6948  1.5516
   23CHL1    C9 1665   5.335   3.131   9.496  0.0938  0.5795 -0.2644
   23CHL1    H9 1666   5.264   3.053   9.462 -0.9815  0.1390  2.6732
   23CHL1   C10 1667   5.321   3.163   9.641  0.4594 -0.3364 -0.2794
   23CHL1   C19 1668   5.409   3.288   9.677 -0.7116 -0.9152  0.4113
   23CHL1  H19A 1669   5.374   3.379   9.624  1.4571 -0.1524  0.1805
   23CHL1  H19B 1670   5.425   3.309   9.785  0.4617  0.5819 -0.0267
   23CHL1  H19C 1671   5.514   3.264   9.652 -0.6604 -0.5554  0.2752
   23CHL1    C1 1672   5.169   3.188   9.662  0.0943  0.6631  0.1720
   23CHL1   H1A 1673   5.148   3.291   9.625 -2.6383  0.2997  0.5356
   23CHL1   H1B 1674   5.112   3.114   9.602  0.2685  1.7807 -1.4346
   23CHL1    C2 1675   5.124   3.196   9.805  0.4705  0.3798  0.5140
   23CHL1   H2A 1676   5.015   3.190   9.823  0.7624 -1.5777  2.0661
   23CHL1   H2B 1677   5.147   3.292   9.856 -1.3951  0.1605  1.8477
   23CHL1   C20 1678   5.523   3.242   8.974 -0.4521 -0.1898 -0.3553
   23CHL1   H20 1679   5.589   3.320   9.016 -1.1824  0.8403 -1.0773
   23CHL1   C21 1680   5.394   3.309   8.926  0.0160 -0.0850  0.0077
   23CHL1  H21A 1681   5.328   3.350   9.006  1.4367  3.3176 -0.3990
   23CHL1  H21B 1682   5.337   3.236   8.865  0.6358 -1.0157  0.5153
   23CHL1  H21C 1683   5.420   3.397   8.864  2.0792  1.1496  2.4105
   23CHL1   C22 1684   5.597   3.170   8.863 -0.0171 -1.1725 -0.5875
   23CHL1  H22A 1685   5.699   3.142   8.896  0.2008 -0.0218 -0.2525
   23CHL1  H22B 1686   5.543   3.083   8.821 -1.7667 -1.4002  1.8756
   23CHL1   C23 1687   5.618   3.250   8.738 -0.3764 -0.3834  0.5138
   23CHL1  H23A 1688   5.515   3.255   8.697 -0.5925  1.5904  1.1965
   23CHL1  H23B 1689   5.665   3.351   8.740  0.7998 -0.8263 -1.5833
   23CHL1   C24 1690   5.715   3.181   8.646 -0.2277 -0.2815  0.7347
   23CHL1  H24A 1691   5.806   3.159   8.705 -0.1470 -0.2409  0.6251
   23CHL1  H24B 1692   5.678   3.082   8.611  0.1845  0.1203 -0.9619
   23CHL1   C25 1693   5.744   3.261   8.515 -0.0479 -0.1334  0.2426
   23CHL1   H25 1694   5.761   3.367   8.544 -1.7272 -0.1419  1.4016
   23CHL1   C26 1695   5.859   3.194   8.439 -0.0251  0.1812 -0.1017
   23CHL1  H26A 1696   5.835   3.088   8.417  3.1806 -1.1677  2.1303
   23CHL1  H26B 1697   5.891   3.248   8.347  0.0193  0.7255  0.2261
   23CHL1  H26C 1698   5.949   3.187   8.504 -0.7967  3.4973  1.5763
   23CHL1   C27 1699   5.631   3.253   8.417  0.2267 -0.0372  0.2134
   23CHL1  H27A 1700   5.617   3.340   8.348  0.5985  0.7235  1.0799
   23CHL1  H27B 1701   5.636   3.161   8.355 -1.6764  0.3609 -0.6028
   23CHL1  H27C 1702   5.533   3.244   8.468  0.9701 -0.7332  1.5605
   24CHL1    C3 1703   6.283   2.692  10.176  0.1690  0.6193  0.1952
   24CHL1    H3 1704   6.184   2.742  10.166 -0.6434 -0.8314  0.5937
   24CHL1    O3 1705   6.324   2.723  10.305 -0.0699 -0.0817 -0.1808
   24CHL1   H3' 1706   6.243   2.699  10.350 -0.4759  3.1294  1.0771
   24CHL1    C4 1707   6.253   2.543  10.167 -0.3432  0.1321 -0.0619
   24CHL1   H4A 1708   6.335   2.489  10.218  0.1646  0.8021 -0.1454
   24CHL1   H4B 1709   6.165   2.519  10.230 -0.2876  1.3733  0.5134
   24CHL1    C5 1710   6.217   2.505  10.027  0.7328  0.0015 -0.5174
   24CHL1    C6 1711   6.093   2.448  10.006 -0.2009 -0.2478 -0.0452
   24CHL1    H6 1712   6.028   2.427  10.092 -0.3535  1.9782  0.4500
   24CHL1    C7 1713   6.050   2.418   9.860 -0.0043 -0.1715  0.1111
   24CHL1   H7A 1714   5.980   2.332   9.866 -1.0862  0.7712  1.7596
   24CHL1   H7B 1715   5.984   2.501   9.826  0.7458 -0.4028 -2.0795
   24CHL1    C8 1716   6.164   2.412   9.758  0.5270 -0.0396 -0.5154
   24CHL1    H8 1717   6.217   2.316   9.772 -1.1156 -0.7565  1.2387
   24CHL1   C14 1718   6.109   2.410   9.615  0.5940 -0.1560  0.2723
   24CHL1   H14 1719   6.060   2.509   9.599 -0.7097 -1.1091 -2.1839
   24CHL1   C15 1720   5.985   2.327   9.574 -0.4298 -0.1280 -0.3435
   24CHL1  H15A 1721   6.007   2.223   9.606 -3.2144 -0.9187 -0.6698
   24CHL1  H15B 1722   5.886   2.365   9.608  0.7013  0.9280  2.0331
   24CHL1   C16 1723   5.982   2.326   9.425 -0.5925  0.8132 -0.5668
   24CHL1  H16A 1724   5.991   2.226   9.376 -0.6851  1.1203 -1.2191
   24CHL1  H16B 1725   5.890   2.374   9.386 -0.9937  0.7946  0.3532
   24CHL1   C17 1726   6.109   2.405   9.380 -0.1914 -0.3497  0.2858
   24CHL1   H17 1727   6.078   2.510   9.360 -0.8105 -0.7115 -0.7523
   24CHL1   C13 1728   6.204   2.401   9.506  0.1913  0.0747  0.2990
   24CHL1   C18 1729   6.272   2.265   9.515 -0.3022  0.0420 -0.8297
   24CHL1  H18A 1730   6.204   2.179   9.502  0.5078 -0.6148 -0.7711
   24CHL1  H18B 1731   6.353   2.266   9.439  0.5430  0.7162  0.0477
   24CHL1  H18C 1732   6.330   2.267   9.610 -2.0292  1.5664  0.2511
   24CHL1   C12 1733   6.311   2.505   9.517  0.2180 -0.1145 -0.0285
   24CHL1  H12A 1734   6.397   2.482   9.451 -0.0068 -1.7058  0.1979
   24CHL1  H12B 1735   6.265   2.604   9.495  0.2324 -0.1809 -0.3617
   24CHL1   C11 1736   6.358   2.522   9.655 -0.7039 -0.6634 -0.5667
   24CHL1  H11A 1737   6.421   2.431   9.664 -0.2932 -0.4840 -1.5644
   24CHL1  H11B 1738   6.435   2.600   9.672 -2.4141  0.4198  3.4721
   24CHL1    C9 1739   6.258   2.527   9.772  0.1306 -0.3138 -0.7445
   24CHL1    H9 1740   6.194   2.618   9.761  0.5182  0.4957  2.4743
   24CHL1   C10 1741   6.310   2.550   9.916 -0.4622 -0.5028 -0.1325
   24CHL1   C19 1742   6.438   2.453   9.931 -0.1841  0.0172 -0.4137
   24CHL1  H19A 1743   6.528   2.481   9.872  0.2120  1.9970  1.0403
   24CHL1  H19B 1744   6.471   2.450  10.037 -1.2059 -1.9106 -0.0983
   24CHL1  H19C 1745   6.411   2.351   9.895  0.5282  0.3645 -2.0323
   24CHL1    C1 1746   6.342   2.695   9.941 -0.5358  0.0501  0.7116
   24CHL1   H1A 1747   6.413   2.730   9.862  0.4681  0.6775  1.8556
   24CHL1   H1B 1748   6.254   2.762   9.939  1.2728  2.6155  1.0683
   24CHL1    C2 1749   6.392   2.734  10.081  0.2750 -0.1312 -0.6825
   24CHL1   H2A 1750   6.403   2.845  10.086  1.1029 -0.1151 -2.1068
   24CHL1   H2B 1751   6.487   2.686  10.113 -0.5201  0.1079  2.2946
   24CHL1   C20 1752   6.165   2.355   9.248  0.4594  0.0849  0.5182
   24CHL1   H20 1753   6.198   2.250   9.263  2.0895  0.4696 -0.1196
   24CHL1   C21 1754   6.281   2.437   9.200  0.1339  0.2860 -1.1084
   24CHL1  H21A 1755   6.373   2.412   9.258 -1.4316  1.0397  1.8937
   24CHL1  H21B 1756   6.256   2.544   9.211  0.7969  0.2113  1.8425
   24CHL1  H21C 1757   6.299   2.413   9.093  0.6293 -1.9075 -0.5887
   24CHL1   C22 1758   6.053   2.348   9.133  0.4505 -0.3822 -0.6084
   24CHL1  H22A 1759   5.956   2.313   9.175  0.4641  0.0074 -0.2444
   24CHL1  H22B 1760   6.025   2.451   9.101 -0.3257 -0.3558  0.1143
   24CHL1   C23 1761   6.090   2.253   9.024  0.3737  0.4803  0.0898
   24CHL1  H23A 1762   6.174   2.302   8.969  1.0681  0.6294  1.2413
   24CHL1  H23B 1763   6.128   2.153   9.055  1.1941  1.1005  1.1686
   24CHL1   C24 1764   5.981   2.246   8.913  0.4262  0.6731 -0.3690
   24CHL1  H24A 1765   5.892   2.197   8.957  1.1384 -1.3624 -1.1023
   24CHL1  H24B 1766   5.968   2.346   8.866 -0.2379  0.4911 -0.5903
   24CHL1   C25 1767   6.027   2.150   8.795  0.2067  0.0707  0.2139
   24CHL1   H25 1768   6.135   2.171   8.777 -0.4926  1.2803 -3.3037
   24CHL1   C26 1769   6.009   2.005   8.843  0.4928  0.5851  0.4021
   24CHL1  H26A 1770   5.999   1.932   8.760 -1.9753  1.7970 -0.4684
   24CHL1  H26B 1771   6.092   1.979   8.912 -0.3380 -3.4702  0.0951
   24CHL1  H26C 1772   5.910   2.006   8.892  0.6320  1.8200  0.6994
   24CHL1   C27 1773   5.958   2.178   8.661 -0.0440  0.6424  0.2712
   24CHL1  H27A 1774   5.849   2.163   8.651 -0.3362  3.6144 -2.6728
   24CHL1  H27B 1775   5.968   2.286   8.636  2.5698  0.4948  0.4328
   24CHL1  H27C 1776   6.008   2.114   8.585 -1.4083 -1.1805  0.8372
   25CHL1    C3 1777   1.615   5.936  10.029  0.3082 -0.4972 -0.7263
   25CHL1    H3 1778   1.587   6.039   9.998  1.4649  0.2309  0.5462
   25CHL1    O3 1779   1.583   5.930  10.163 -0.5091  0.0302 -0.5023
   25CHL1   H3' 1780   1.595   5.839  10.191 -2.7590  0.0967  1.0101
   25CHL1    C4 1781   1.531   5.827   9.948 -0.4405 -0.1991 -0.3555
   25CHL1   H4A 1782   1.554   5.725   9.988 -0.0898 -0.0664 -0.2090
   25CHL1   H4B 1783   1.421   5.833   9.958 -0.6551 -1.6170 -1.4894
   25CHL1    C5 1784   1.572   5.828   9.802  0.0182  0.4450 -1.0982
   25CHL1    C6 1785   1.479   5.861   9.705  0.3447 -0.2737 -0.0347
   25CHL1    H6 1786   1.382   5.895   9.742 -0.0615  0.0960 -1.3725
   25CHL1    C7 1787   1.524   5.856   9.560 -0.3749  0.7582  0.5498
   25CHL1   H7A 1788   1.455   5.815   9.483  0.4495 -2.8752  1.5340
   25CHL1   H7B 1789   1.540   5.963   9.533 -1.3430  0.5900 -0.8149
   25CHL1    C8 1790   1.655   5.776   9.534  0.4257 -0.1555  0.0855
   25CHL1    H8 1791   1.629   5.669   9.552  1.6939 -1.1664 -3.3024
   25CHL1   C14 1792   1.703   5.787   9.391  0.0874 -0.3309  0.0936
   25CHL1   H14 1793   1.732   5.893   9.374  1.2166 -0.9490 -2.2499
   25CHL1   C15 1794   1.599   5.765   9.287  0.2487  0.2474  0.4523
   25CHL1  H15A 1795   1.536   5.675   9.299 -0.8088  0.8483 -0.4001
   25CHL1  H15B 1796   1.518   5.839   9.268  2.1033  2.4280  0.6275
   25CHL1   C16 1797   1.684   5.728   9.164 -0.2004 -0.5755  0.0835
   25CHL1  H16A 1798   1.646   5.631   9.127 -2.4011  0.1928  0.1712
   25CHL1  H16B 1799   1.680   5.794   9.074  1.6109 -2.4044 -1.4459
   25CHL1   C17 1800   1.836   5.719   9.204 -0.0600 -0.6453  0.0405
   25CHL1   H17 1801   1.876   5.820   9.180 -4.3602  0.9281 -1.4641
   25CHL1   C13 1802   1.827   5.704   9.356 -0.1648  0.1062  0.6062
   25CHL1   C18 1803   1.815   5.548   9.392 -0.9024  0.1682 -0.1300
   25CHL1  H18A 1804   1.914   5.498   9.388  0.2130  2.2033  0.3435
   25CHL1  H18B 1805   1.798   5.543   9.502  0.6078 -0.9767  0.0828
   25CHL1  H18C 1806   1.746   5.483   9.334  0.1324 -0.3709 -0.7902
   25CHL1   C12 1807   1.943   5.771   9.437 -0.2045 -0.5880 -0.0154
   25CHL1  H12A 1808   2.033   5.707   9.433 -0.8124 -1.4136 -0.8633
   25CHL1  H12B 1809   1.965   5.874   9.402 -1.6646 -0.4558 -0.6450
   25CHL1   C11 1810   1.906   5.768   9.591 -0.5249 -0.0619 -0.6635
   25CHL1  H11A 1811   1.928   5.666   9.627  0.4432  0.8167  1.4137
   25CHL1  H11B 1812   1.977   5.833   9.648 -0.9064 -1.7445  1.9027
   25CHL1    C9 1813   1.760   5.822   9.628 -0.1045  0.4976  0.5112
   25CHL1    H9 1814   1.770   5.930   9.608  0.1789  0.1758 -1.2102
   25CHL1   C10 1815   1.720   5.799   9.775 -0.0690 -0.0439 -0.2826
   25CHL1   C19 1816   1.754   5.652   9.814  0.4571  0.2950 -0.3220
   25CHL1  H19A 1817   1.696   5.605   9.896  2.3520 -2.0134 -0.2168
   25CHL1  H19B 1818   1.755   5.591   9.722  1.5307  1.9058 -1.4317
   25CHL1  H19C 1819   1.853   5.662   9.863 -0.7778  0.6622  2.2758
   25CHL1    C1 1820   1.792   5.905   9.855 -0.2300 -0.1462  0.0042
   25CHL1   H1A 1821   1.902   5.893   9.842  0.0625  1.2033  1.0515
   25CHL1   H1B 1822   1.771   6.001   9.803  0.3213 -1.0183 -1.9287
   25CHL1    C2 1823   1.760   5.921  10.002 -0.7034 -0.1550  0.1102
   25CHL1   H2A 1824   1.811   6.006  10.050 -1.7378  0.5287  0.0283
   25CHL1   H2B 1825   1.799   5.827  10.047 -0.6793  0.6144  1.7476
   25CHL1   C20 1826   1.915   5.611   9.128  0.0517 -0.1765 -0.2381
   25CHL1   H20 1827   1.881   5.511   9.161  1.7419 -1.1865 -1.3667
   25CHL1   C21 1828   2.069   5.612   9.174  0.6529 -0.1731  0.0324
   25CHL1  H21A 1829   2.124   5.537   9.114 -1.3746 -1.2294 -0.6069
   25CHL1  H21B 1830   2.077   5.580   9.280  1.9898  3.6250  1.2297
   25CHL1  H21C 1831   2.099   5.719   9.172 -0.9636  0.3112 -1.6009
   25CHL1   C22 1832   1.899   5.601   8.966 -0.0484 -0.3592 -0.3843
   25CHL1  H22A 1833   1.957   5.520   8.917  3.4854  2.8682 -2.0910
   25CHL1  H22B 1834   1.792   5.574   8.962 -0.3988  0.6423  1.1647
   25CHL1   C23 1835   1.935   5.726   8.884  0.9489  0.5777 -0.1540
   25CHL1  H23A 1836   1.890   5.818   8.927 -0.4068  0.1848 -0.6693
   25CHL1  H23B 1837   2.046   5.737   8.884  1.2807 -1.9124 -2.0562
   25CHL1   C24 1838   1.879   5.715   8.742  0.6496 -0.7859 -0.3982
   25CHL1  H24A 1839   1.895   5.614   8.698  2.7679 -0.5606 -0.2496
   25CHL1  H24B 1840   1.770   5.735   8.742  0.8563  0.6575 -2.3817
   25CHL1   C25 1841   1.937   5.827   8.658 -0.1763 -0.3225 -0.5029
   25CHL1   H25 1842   2.046   5.830   8.678 -0.5194 -1.7881  2.0798
   25CHL1   C26 1843   1.935   5.800   8.508  0.2598  0.2433 -0.1900
   25CHL1  H26A 1844   1.983   5.704   8.480  0.0218 -0.4253  1.5555
   25CHL1  H26B 1845   1.830   5.790   8.474 -0.1141 -2.4334  1.4126
   25CHL1  H26C 1846   1.992   5.873   8.447 -0.4323  0.4568 -0.5933
   25CHL1   C27 1847   1.868   5.960   8.688 -0.0194  0.0924 -0.1128
   25CHL1  H27A 1848   1.902   6.007   8.783 -0.4454  0.5126 -0.1615
   25CHL1  H27B 1849   1.883   6.034   8.606 -1.9554 -2.5550 -3.0853
   25CHL1  H27C 1850   1.757   5.962   8.699  0.0915  3.5571  1.8010
   26CHL1    C3 1851   3.868   0.358   9.903  0.2336 -0.7538  0.3458
   26CHL1    H3 1852   3.767   0.326   9.867  0.5841 -1.1672 -0.2908
   26CHL1    O3 1853   3.878   0.340  10.038 -0.5514  0.3449 -0.1730
   26CHL1   H3' 1854   3.854   0.428  10.068 -0.4072 -0.5015  2.6563
   26CHL1    C4 1855   3.975   0.276   9.830 -0.0038  0.0880 -0.3960
   26CHL1   H4A 1856   4.078   0.282   9.870  0.3347 -1.9207 -0.8798
   26CHL1   H4B 1857   3.949   0.173   9.862 -0.8654 -0.6602 -3.2719
   26CHL1    C5 1858   3.967   0.289   9.682 -0.2152  0.2084  0.1486
   26CHL1    C6 1859   3.947   0.182   9.602 -0.2559  0.0388  0.2366
   26CHL1    H6 1860   3.944   0.083   9.650  0.6209 -0.4363 -0.6539
   26CHL1    C7 1861   3.946   0.186   9.451 -0.5935 -0.4938  0.4372
   26CHL1   H7A 1862   4.011   0.109   9.403  0.4817  0.3880  0.4409
   26CHL1   H7B 1863   3.839   0.161   9.436 -0.6816 -1.7651  2.7639
   26CHL1    C8 1864   3.986   0.323   9.398  0.1974 -0.6817 -0.3336
   26CHL1    H8 1865   4.097   0.327   9.407  0.2410 -0.8761 -0.7163
   26CHL1   C14 1866   3.937   0.345   9.254  0.3424  0.1578 -0.2351
   26CHL1   H14 1867   3.826   0.349   9.259  0.3986  2.6017  0.5489
   26CHL1   C15 1868   3.974   0.243   9.145 -0.2220 -0.3788 -0.2642
   26CHL1  H15A 1869   4.078   0.203   9.150 -0.3422 -0.6015  0.6137
   26CHL1  H15B 1870   3.910   0.154   9.161  0.2053 -0.5609  0.4934
   26CHL1   C16 1871   3.932   0.309   9.015 -0.0865 -0.5596 -0.3237
   26CHL1  H16A 1872   4.023   0.293   8.953  0.8319  2.6392  0.0101
   26CHL1  H16B 1873   3.842   0.260   8.973  0.1912 -1.1020 -0.3073
   26CHL1   C17 1874   3.920   0.460   9.056  0.1500 -0.2135 -0.3002
   26CHL1   H17 1875   3.811   0.464   9.076  0.0588  0.6833 -0.9177
   26CHL1   C13 1876   3.988   0.472   9.190  0.6753  0.0353 -0.3748
   26CHL1   C18 1877   4.141   0.493   9.178  0.6754  0.1503  0.4228
   26CHL1  H18A 1878   4.159   0.597   9.144 -2.1750  0.8818  0.8841
   26CHL1  H18B 1879   4.186   0.492   9.280 -0.2168 -0.2716  0.8282
   26CHL1  H18C 1880   4.187   0.417   9.111  2.5271  2.4614 -1.0919
   26CHL1   C12 1881   3.930   0.588   9.279  0.4775 -0.4201 -0.6354
   26CHL1  H12A 1882   3.966   0.686   9.241  1.2732 -1.1909 -1.9376
   26CHL1  H12B 1883   3.820   0.588   9.267  0.2018 -1.3338  1.5117
   26CHL1   C11 1884   3.966   0.582   9.429 -0.0257  0.6706  0.0220
   26CHL1  H11A 1885   4.075   0.601   9.430  0.3178 -1.1048 -0.6201
   26CHL1  H11B 1886   3.929   0.666   9.491  1.5526  0.8387  0.7723
   26CHL1    C9 1887   3.936   0.438   9.484 -0.3442 -0.7448  0.1515
   26CHL1    H9 1888   3.826   0.427   9.484 -0.3146 -1.0372 -0.0345
   26CHL1   C10 1889   3.982   0.429   9.632  0.6572 -0.6316 -0.3805
   26CHL1   C19 1890   4.134   0.456   9.637 -0.0845 -0.9321 -0.5652
   26CHL1  H19A 1891   4.167   0.442   9.743 -1.8405  0.6705  0.2470
   26CHL1  H19B 1892   4.192   0.383   9.577 -0.2021 -1.3603 -0.1678
   26CHL1  H19C 1893   4.159   0.561   9.613 -1.0935 -0.3655  0.6873
   26CHL1    C1 1894   3.891   0.528   9.716 -0.0781  0.1432  0.1307
   26CHL1   H1A 1895   3.925   0.632   9.696 -0.6997  0.1041 -1.2116
   26CHL1   H1B 1896   3.787   0.511   9.682 -0.3460 -1.3154  1.5452
   26CHL1    C2 1897   3.895   0.509   9.866 -0.2791 -0.2691  1.2013
   26CHL1   H2A 1898   3.819   0.574   9.916 -0.7839  0.8833 -0.9594
   26CHL1   H2B 1899   3.995   0.542   9.901 -0.0011  1.0828 -0.7362
   26CHL1   C20 1900   3.967   0.568   8.950 -0.3005 -0.1105 -0.2354
   26CHL1   H20 1901   3.983   0.664   9.004  2.8683 -0.0529 -1.0955
   26CHL1   C21 1902   3.840   0.579   8.862  0.7109 -0.0349  0.0178
   26CHL1  H21A 1903   3.868   0.665   8.797  0.2994  1.3451  1.6204
   26CHL1  H21B 1904   3.747   0.608   8.914 -0.0577  0.2544 -1.4514
   26CHL1  H21C 1905   3.823   0.486   8.804 -0.5789  1.2272 -1.7185
   26CHL1   C22 1906   4.086   0.527   8.864 -0.7389 -0.0809 -0.3000
   26CHL1  H22A 1907   4.177   0.493   8.918 -1.3778 -0.5954  0.4892
   26CHL1  H22B 1908   4.058   0.437   8.804 -2.1082 -0.6799  1.1481
   26CHL1   C23 1909   4.134   0.636   8.766  0.3812 -0.0110  0.4508
   26CHL1  H23A 1910   4.054   0.687   8.710  1.5254 -1.7521 -3.0744
   26CHL1  H23B 1911   4.202   0.708   8.816  0.3152  0.6995 -0.4577
   26CHL1   C24 1912   4.221   0.562   8.661  0.5223 -0.2850  0.6029
   26CHL1  H24A 1913   4.306   0.525   8.721  2.6676  1.9730 -0.8323
   26CHL1  H24B 1914   4.163   0.483   8.608 -0.4922  1.3291 -0.8191
   26CHL1   C25 1915   4.284   0.633   8.534  0.3342 -0.1794  0.6831
   26CHL1   H25 1916   4.200   0.672   8.473  0.9844  3.6509  1.9693
   26CHL1   C26 1917   4.368   0.754   8.570  0.5208 -0.1265  0.6755
   26CHL1  H26A 1918   4.330   0.809   8.659  0.7180  1.2283 -0.0591
   26CHL1  H26B 1919   4.470   0.716   8.589  1.5194  1.9058 -0.3208
   26CHL1  H26C 1920   4.369   0.828   8.487 -0.7170  2.1736  2.5915
   26CHL1   C27 1921   4.359   0.534   8.453  0.4915 -0.0869  0.5901
   26CHL1  H27A 1922   4.397   0.577   8.357 -2.5923 -2.0211 -1.6945
   26CHL1  H27B 1923   4.437   0.488   8.516 -0.1518  0.5249  1.8601
   26CHL1  H27C 1924   4.304   0.447   8.412  1.9226 -0.1276 -1.4344
   27CHL1    C3 1925   2.737   4.669   9.955 -0.2321 -0.6173 -1.2139
   27CHL1    H3 1926   2.844   4.699   9.946  0.2850 -2.1486 -0.4508
   27CHL1    O3 1927   2.722   4.658  10.100  0.1306 -0.5666  0.4328
   27CHL1   H3' 1928   2.639   4.611  10.113 -0.6966  1.0197  1.1981
   27CHL1    C4 1929   2.643   4.775   9.903 -0.1429 -0.8232 -0.0616
   27CHL1   H4A 1930   2.540   4.742   9.926 -2.0121  3.5797 -0.9563
   27CHL1   H4B 1931   2.661   4.872   9.954  0.4418 -0.5364 -0.7933
   27CHL1    C5 1932   2.660   4.781   9.754 -0.3882  0.2062  0.5482
   27CHL1    C6 1933   2.692   4.899   9.690 -0.5000 -0.0289  0.0180
   27CHL1    H6 1934   2.700   4.985   9.757  2.0712  0.4611 -0.7945
   27CHL1    C7 1935   2.707   4.921   9.545  0.2659  0.2262 -0.5676
   27CHL1   H7A 1936   2.638   5.003   9.515 -0.6368  0.1366  1.1743
   27CHL1   H7B 1937   2.809   4.962   9.524  1.1061 -1.4822 -0.0137
   27CHL1    C8 1938   2.668   4.797   9.458 -0.2426  0.0453  0.2933
   27CHL1    H8 1939   2.557   4.798   9.452 -0.2215  0.9691 -0.2341
   27CHL1   C14 1940   2.735   4.817   9.319  0.6108 -0.2228 -0.1586
   27CHL1   H14 1941   2.844   4.811   9.338  1.0746 -2.0990 -2.8259
   27CHL1   C15 1942   2.691   4.943   9.236 -0.8040  0.3569 -0.2099
   27CHL1  H15A 1943   2.581   4.945   9.227 -0.8062 -2.1155 -1.9144
   27CHL1  H15B 1944   2.741   5.028   9.287  0.2265 -1.4681  2.0430
   27CHL1   C16 1945   2.744   4.912   9.099 -0.2870 -0.2312 -0.0146
   27CHL1  H16A 1946   2.664   4.932   9.024 -1.9021  0.9250  1.9040
   27CHL1  H16B 1947   2.836   4.968   9.073 -0.1089 -0.7203 -0.4517
   27CHL1   C17 1948   2.773   4.753   9.101  0.2616 -0.0978  0.0531
   27CHL1   H17 1949   2.883   4.747   9.113  0.9924  1.5930 -4.0548
   27CHL1   C13 1950   2.707   4.697   9.231  0.5672 -1.1703 -0.7487
   27CHL1   C18 1951   2.545   4.689   9.200  0.5721  0.2096  0.2103
   27CHL1  H18A 1952   2.487   4.697   9.295  0.4347  0.7787  0.0844
   27CHL1  H18B 1953   2.514   4.771   9.132 -1.3894  0.6461  1.5483
   27CHL1  H18C 1954   2.532   4.590   9.151 -0.9380  1.1142 -1.3141
   27CHL1   C12 1955   2.761   4.570   9.295 -0.0065  0.8563 -0.1122
   27CHL1  H12A 1956   2.755   4.486   9.223 -1.2406  0.6452  0.2183
   27CHL1  H12B 1957   2.871   4.586   9.305  0.2897 -0.7107 -0.4744
   27CHL1   C11 1958   2.697   4.541   9.431 -0.3726 -0.6167  0.0518
   27CHL1  H11A 1959   2.591   4.518   9.408  0.1583 -1.7367 -1.4524
   27CHL1  H11B 1960   2.742   4.447   9.471 -0.5935 -0.9552 -0.4836
   27CHL1    C9 1961   2.713   4.669   9.530 -0.9660  0.3586  0.3080
   27CHL1    H9 1962   2.820   4.682   9.554 -1.1587 -1.2903  2.3870
   27CHL1   C10 1963   2.649   4.647   9.677 -0.3078 -0.3119 -0.2966
   27CHL1   C19 1964   2.495   4.611   9.666 -0.5801 -0.5269  0.6629
   27CHL1  H19A 1965   2.483   4.527   9.595  0.8484  1.5626 -2.2844
   27CHL1  H19B 1966   2.443   4.586   9.761 -4.0008 -0.9440 -1.1928
   27CHL1  H19C 1967   2.436   4.690   9.614  0.7343 -0.2945 -0.5603
   27CHL1    C1 1968   2.737   4.530   9.744  0.7211 -0.1510  0.8568
   27CHL1   H1A 1969   2.694   4.434   9.707 -1.7914  1.7286 -1.4783
   27CHL1   H1B 1970   2.845   4.531   9.717  0.8385  2.9604  1.0545
   27CHL1    C2 1971   2.717   4.532   9.896  0.6003  0.2440 -0.1967
   27CHL1   H2A 1972   2.777   4.460   9.955 -1.7950 -0.2612  1.8125
   27CHL1   H2B 1973   2.614   4.496   9.921  0.8930 -0.3539  0.1759
   27CHL1   C20 1974   2.756   4.675   8.970  0.2988 -0.6806 -0.0578
   27CHL1   H20 1975   2.646   4.663   8.958  0.1202  0.5044  0.2969
   27CHL1   C21 1976   2.814   4.538   8.958  0.6852 -0.2597  0.0810
   27CHL1  H21A 1977   2.797   4.498   8.856  3.0163 -1.8663  0.2466
   27CHL1  H21B 1978   2.763   4.464   9.023 -1.2115 -0.0819 -1.1381
   27CHL1  H21C 1979   2.921   4.531   8.986  0.2927 -0.8740  1.5210
   27CHL1   C22 1980   2.804   4.756   8.846 -0.4243  0.7632  0.5880
   27CHL1  H22A 1981   2.776   4.712   8.748  1.4021  0.1319  0.3217
   27CHL1  H22B 1982   2.754   4.855   8.852  0.4848  1.4063 -1.6499
   27CHL1   C23 1983   2.952   4.779   8.853  0.4592 -0.6249 -0.1060
   27CHL1  H23A 1984   2.985   4.821   8.950 -0.8980 -3.4327  1.6951
   27CHL1  H23B 1985   3.001   4.679   8.848  0.0402 -0.8937  0.9696
   27CHL1   C24 1986   3.006   4.860   8.732 -0.6097  0.3222  0.3267
   27CHL1  H24A 1987   2.979   4.966   8.753  0.9862  0.5654  1.2557
   27CHL1  H24B 1988   3.115   4.848   8.744 -0.6974 -0.6949  0.1990
   27CHL1   C25 1989   2.974   4.817   8.591  0.1743  0.0416 -0.2367
   27CHL1   H25 1990   2.867   4.845   8.583  0.8712  2.5885 -1.3985
   27CHL1   C26 1991   3.057   4.889   8.491 -0.0624  0.5652 -0.2387
   27CHL1  H26A 1992   3.062   4.998   8.512  0.5668  0.9691 -2.2709
   27CHL1  H26B 1993   3.162   4.854   8.496 -0.3319 -0.2434 -0.0968
   27CHL1  H26C 1994   3.039   4.875   8.382  0.9126 -1.1974 -0.2186
   27CHL1   C27 1995   2.990   4.672   8.554  0.2216  0.1656 -0.9798
   27CHL1  H27A 1996   2.954   4.660   8.449 -1.8940  0.1280 -0.2938
   27CHL1  H27B 1997   3.098   4.646   8.557 -0.0116 -0.7372  0.6193
   27CHL1  H27C 1998   2.937   4.604   8.623  0.5200  1.4258  0.5511
   28CHL1    C3 1999   0.854   3.605   9.915  0.3004 -0.1235  0.2251
   28CHL1    H3 2000   0.820   3.710   9.923 -2.6017 -0.7958 -1.7321
   28CHL1    O3 2001   0.893   3.573  10.045  0.4746  0.2457  0.1932
   28CHL1   H3' 2002   0.927   3.483  10.045  0.3655  0.2056  0.0920
   28CHL1    C4 2003   0.731   3.519   9.873 -0.1249 -0.3485  0.9134
   28CHL1   H4A 2004   0.760   3.414   9.896  0.0899 -0.5993 -0.4160
   28CHL1   H4B 2005   0.651   3.545   9.945 -2.0935 -2.3224 -0.4455
   28CHL1    C5 2006   0.687   3.532   9.728 -0.4771  0.3250 -0.6038
   28CHL1    C6 2007   0.559   3.555   9.696 -0.4031  0.2509 -0.5302
   28CHL1    H6 2008   0.482   3.572   9.773  0.1534 -0.1423  0.1222
   28CHL1    C7 2009   0.509   3.552   9.553 -0.0712  0.8999 -0.4833
   28CHL1   H7A 2010   0.428   3.477   9.555  2.3904 -1.9897 -1.3061
   28CHL1   H7B 2011   0.467   3.653   9.535 -1.4215  0.4262 -0.0926
   28CHL1    C8 2012   0.616   3.490   9.456  0.2856  0.6143 -0.4208
   28CHL1    H8 2013   0.610   3.379   9.468 -2.2605  0.5977 -1.1965
   28CHL1   C14 2014   0.582   3.524   9.312 -0.3132  0.2304 -0.5195
   28CHL1   H14 2015   0.571   3.635   9.309  2.6854  0.5932 -0.7148
   28CHL1   C15 2016   0.446   3.484   9.256 -0.7196 -0.1622  0.3387
   28CHL1  H15A 2017   0.419   3.383   9.296  0.1085  0.3344  2.2905
   28CHL1  H15B 2018   0.368   3.552   9.294 -0.9938 -1.2551  1.8546
   28CHL1   C16 2019   0.463   3.486   9.105 -0.0728 -0.6427  0.8942
   28CHL1  H16A 2020   0.452   3.388   9.055  1.3608 -0.3225 -0.1187
   28CHL1  H16B 2021   0.399   3.568   9.064  2.7010  1.4423  0.3997
   28CHL1   C17 2022   0.612   3.536   9.081 -0.0989  0.3688 -0.0455
   28CHL1   H17 2023   0.610   3.647   9.089 -1.1275  0.3728 -0.2804
   28CHL1   C13 2024   0.687   3.489   9.207  0.1393 -0.7501  0.3224
   28CHL1   C18 2025   0.691   3.332   9.202 -0.0984 -0.7988  0.1923
   28CHL1  H18A 2026   0.787   3.297   9.157  0.1758  0.2203 -0.0450
   28CHL1  H18B 2027   0.696   3.304   9.309 -2.2741  0.6833  0.7486
   28CHL1  H18C 2028   0.601   3.289   9.155  1.2168 -0.8469 -2.4679
   28CHL1   C12 2029   0.824   3.552   9.235  0.4157 -0.5118  0.8850
   28CHL1  H12A 2030   0.902   3.511   9.168 -0.8919  0.3516 -1.2479
   28CHL1  H12B 2031   0.816   3.660   9.208 -1.0792 -1.1486 -1.4581
   28CHL1   C11 2032   0.861   3.516   9.372  0.7044  0.4101 -0.6355
   28CHL1  H11A 2033   0.873   3.405   9.365  0.7803  0.4685 -1.5486
   28CHL1  H11B 2034   0.959   3.559   9.402  0.6699  0.0683  0.0003
   28CHL1    C9 2035   0.754   3.547   9.488 -0.0649 -0.1046  1.3757
   28CHL1    H9 2036   0.748   3.657   9.479  1.7869  0.1086  2.2246
   28CHL1   C10 2037   0.805   3.513   9.627  0.4851  0.6117 -0.2082
   28CHL1   C19 2038   0.856   3.368   9.641  0.2090  0.2904  0.0001
   28CHL1  H19A 2039   0.886   3.337   9.743 -0.9780 -3.1343 -0.5404
   28CHL1  H19B 2040   0.767   3.308   9.610  1.1236  0.4061 -3.2552
   28CHL1  H19C 2041   0.940   3.352   9.570 -0.3282  1.1158 -0.8600
   28CHL1    C1 2042   0.918   3.606   9.675 -0.1164  0.1010 -0.5239
   28CHL1   H1A 2043   1.002   3.595   9.603  0.3387  0.5538 -0.0683
   28CHL1   H1B 2044   0.886   3.712   9.672  0.0192  0.2007  0.9855
   28CHL1    C2 2045   0.970   3.587   9.820 -0.3641  0.5239  0.0066
   28CHL1   H2A 2046   1.057   3.656   9.829  1.2730 -1.5098  0.6984
   28CHL1   H2B 2047   1.023   3.489   9.824  0.7627  1.1594  1.6327
   28CHL1   C20 2048   0.664   3.490   8.942 -0.0191  0.2686 -0.3868
   28CHL1   H20 2049   0.637   3.382   8.946  2.9709 -0.5601  0.5012
   28CHL1   C21 2050   0.812   3.508   8.917  0.0971  0.3976  0.1993
   28CHL1  H21A 2051   0.844   3.611   8.944  1.5481 -0.0936  0.4446
   28CHL1  H21B 2052   0.829   3.504   8.808 -2.1782  1.2036 -0.2276
   28CHL1  H21C 2053   0.867   3.424   8.966 -1.5922 -1.7822 -1.4288
   28CHL1   C22 2054   0.577   3.547   8.825 -0.1744  0.8616 -0.8391
   28CHL1  H22A 2055   0.594   3.497   8.728 -2.1410  0.5253 -1.0563
   28CHL1  H22B 2056   0.469   3.526   8.844  0.6133 -1.7586  1.4474
   28CHL1   C23 2057   0.582   3.697   8.809  0.3608  0.6512 -0.2996
   28CHL1  H23A 2058   0.525   3.747   8.890  0.3161 -0.9996  0.7235
   28CHL1  H23B 2059   0.686   3.736   8.820  0.6639  0.0339 -0.8759
   28CHL1   C24 2060   0.517   3.740   8.668 -0.4256  0.3575 -0.0025
   28CHL1  H24A 2061   0.423   3.683   8.654 -0.2614  0.1638 -0.3115
   28CHL1  H24B 2062   0.482   3.842   8.695  1.5072  1.5039 -1.5944
   28CHL1   C25 2063   0.607   3.737   8.545 -0.1906  0.0396  0.0106
   28CHL1   H25 2064   0.648   3.634   8.538  0.7724  0.3760  0.5372
   28CHL1   C26 2065   0.528   3.760   8.415  0.7609  0.3606  0.5485
   28CHL1  H26A 2066   0.597   3.736   8.332  1.9508  1.6022  1.1351
   28CHL1  H26B 2067   0.433   3.702   8.412  0.5287  0.7585  0.0890
   28CHL1  H26C 2068   0.491   3.865   8.416 -3.2092 -0.8695 -0.2246
   28CHL1   C27 2069   0.717   3.845   8.555 -0.0109 -0.0891 -0.1662
   28CHL1  H27A 2070   0.772   3.858   8.460  0.7346  3.0446  0.5959
   28CHL1  H27B 2071   0.672   3.942   8.583 -1.0310  0.2046 -2.5933
   28CHL1  H27C 2072   0.792   3.815   8.631  0.8320  0.9387 -0.5841
   29CHL1    C3 2073   4.577   0.841   6.795  0.6965  0.1672 -0.0369
   29CHL1    H3 2074   4.685   0.866   6.808  1.0034 -1.8763  2.0649
   29CHL1    O3 2075   4.536   0.862   6.661 -0.4681  0.7443  0.5504
   29CHL1   H3' 2076   4.558   0.953   6.640  0.0944  0.7442  1.0883
   29CHL1    C4 2077   4.557   0.695   6.828  0.0642  0.6054 -0.3315
   29CHL1   H4A 2078   4.453   0.667   6.800  0.1238  0.7618 -0.7255
   29CHL1   H4B 2079   4.631   0.645   6.762 -1.1087 -0.0244 -1.2246
   29CHL1    C5 2080   4.597   0.674   6.970 -0.4038  0.4639  0.1210
   29CHL1    C6 2081   4.699   0.587   6.995 -0.0256  0.1625  0.2322
   29CHL1    H6 2082   4.741   0.527   6.913  1.6970  0.6481  0.7067
   29CHL1    C7 2083   4.758   0.575   7.134 -0.1878  1.1103 -0.3258
   29CHL1   H7A 2084   4.790   0.471   7.156 -1.3876  0.9018  0.5363
   29CHL1   H7B 2085   4.847   0.641   7.132 -0.7518  1.8734 -0.8422
   29CHL1    C8 2086   4.667   0.630   7.252  0.4124 -0.4910 -0.4069
   29CHL1    H8 2087   4.583   0.558   7.251  0.6169 -0.8319  1.6263
   29CHL1   C14 2088   4.741   0.644   7.381 -0.0016 -0.1617  0.0566
   29CHL1   H14 2089   4.824   0.716   7.364  0.1333 -0.7170 -1.7962
   29CHL1   C15 2090   4.816   0.521   7.427  0.6411  0.3151  0.3048
   29CHL1  H15A 2091   4.746   0.436   7.416 -0.3708  1.0454  0.9152
   29CHL1  H15B 2092   4.903   0.495   7.363 -1.7434 -1.7534 -2.3568
   29CHL1   C16 2093   4.851   0.549   7.573  0.2681 -0.4922 -0.3987
   29CHL1  H16A 2094   4.808   0.465   7.633 -0.1355 -0.3102 -0.4295
   29CHL1  H16B 2095   4.961   0.552   7.589  0.0549  1.9969  1.0726
   29CHL1   C17 2096   4.775   0.682   7.619 -0.0275  0.0724  0.5558
   29CHL1   H17 2097   4.852   0.762   7.611  0.9685 -0.8866  0.3219
   29CHL1   C13 2098   4.666   0.701   7.505  0.3390  0.5248  1.0394
   29CHL1   C18 2099   4.557   0.603   7.535  0.5382 -0.1173  0.2322
   29CHL1  H18A 2100   4.489   0.637   7.616  1.1608 -1.2092  1.2471
   29CHL1  H18B 2101   4.484   0.585   7.454 -2.4549 -0.1779  2.7354
   29CHL1  H18C 2102   4.587   0.501   7.567 -2.5261 -0.2720  3.1928
   29CHL1   C12 2103   4.612   0.841   7.470 -0.3889 -0.4121 -0.3221
   29CHL1  H12A 2104   4.536   0.886   7.538  0.0588  0.9088 -0.6573
   29CHL1  H12B 2105   4.706   0.901   7.464 -0.6718  0.2108  1.0111
   29CHL1   C11 2106   4.549   0.842   7.332 -0.5151  0.3035 -0.1294
   29CHL1  H11A 2107   4.452   0.792   7.353 -0.9239  1.2164  0.2109
   29CHL1  H11B 2108   4.534   0.949   7.310 -1.2573  0.4825  1.1612
   29CHL1    C9 2109   4.621   0.768   7.223 -0.3780 -0.0876  0.1430
   29CHL1    H9 2110   4.708   0.831   7.196 -0.3853  0.1498  0.6639
   29CHL1   C10 2111   4.534   0.772   7.085  0.1167  0.5302  0.2781
   29CHL1   C19 2112   4.389   0.731   7.103  0.3714  0.3058 -0.1536
   29CHL1  H19A 2113   4.326   0.795   7.168 -0.9934  0.8118 -1.8899
   29CHL1  H19B 2114   4.343   0.731   7.002 -0.5249  0.2889  0.2471
   29CHL1  H19C 2115   4.391   0.624   7.132  3.3453 -0.1644 -1.6729
   29CHL1    C1 2116   4.531   0.914   7.031 -0.1492 -0.2638 -0.2508
   29CHL1   H1A 2117   4.458   0.977   7.087 -0.7379 -1.4885  0.3867
   29CHL1   H1B 2118   4.628   0.963   7.054 -1.1784  1.0489  1.6599
   29CHL1    C2 2119   4.499   0.934   6.881 -0.3073 -0.3511  0.3947
   29CHL1   H2A 2120   4.520   1.038   6.846  1.7296 -1.4156 -1.7576
   29CHL1   H2B 2121   4.390   0.915   6.867 -0.2435 -0.0391 -0.6232
   29CHL1   C20 2122   4.732   0.680   7.762 -0.1609 -0.1316 -0.1252
   29CHL1   H20 2123   4.640   0.620   7.773 -2.1456  2.5684 -0.7898
   29CHL1   C21 2124   4.706   0.830   7.799  0.0921 -0.1583 -0.0087
   29CHL1  H21A 2125   4.645   0.831   7.892  0.7775  1.4318  0.4674
   29CHL1  H21B 2126   4.651   0.889   7.723  0.0639 -0.0993  0.0580
   29CHL1  H21C 2127   4.800   0.890   7.809 -1.0984  1.8678 -0.4358
   29CHL1   C22 2128   4.830   0.618   7.862 -0.0400  0.4539  0.1765
   29CHL1  H22A 2129   4.831   0.510   7.839 -3.8658  0.0208  1.3631
   29CHL1  H22B 2130   4.924   0.676   7.846 -1.6176  2.5334 -2.4193
   29CHL1   C23 2131   4.803   0.647   8.008 -0.3778  0.1860 -0.3968
   29CHL1  H23A 2132   4.826   0.752   8.035 -1.6200  0.0259  1.5160
   29CHL1  H23B 2133   4.696   0.629   8.036  0.3820 -0.6136  2.3063
   29CHL1   C24 2134   4.894   0.561   8.099  0.4370 -0.1388 -0.5282
   29CHL1  H24A 2135   4.881   0.602   8.202 -2.4603  2.6242 -1.8389
   29CHL1  H24B 2136   4.851   0.460   8.082 -1.0049  0.2845  0.4458
   29CHL1   C25 2137   5.049   0.548   8.086 -0.5123 -0.7432 -0.0984
   29CHL1   H25 2138   5.070   0.517   7.981  1.6915  2.2327 -0.6524
   29CHL1   C26 2139   5.118   0.686   8.112  1.0051 -0.3863  0.6118
   29CHL1  H26A 2140   5.223   0.678   8.075  0.8616  2.5827 -0.7364
   29CHL1  H26B 2141   5.068   0.760   8.046 -1.8672 -1.6554  1.1955
   29CHL1  H26C 2142   5.115   0.729   8.214 -0.4196  2.2475 -0.4568
   29CHL1   C27 2143   5.101   0.449   8.185 -0.4793 -0.1435 -0.6967
   29CHL1  H27A 2144   5.083   0.343   8.155 -1.0149 -0.3763  0.3800
   29CHL1  H27B 2145   5.211   0.454   8.180 -0.3132 -1.3472  0.9929
   29CHL1  H27C 2146   5.070   0.482   8.286  1.6264  0.4991 -0.2163
   30CHL1    C3 2147   1.507   1.326   6.838 -0.3152 -0.4352  0.3377
   30CHL1    H3 2148   1.491   1.435   6.849 -1.3889 -0.3137 -1.8268
   30CHL1    O3 2149   1.543   1.297   6.706 -0.4507  0.2969  0.6113
   30CHL1   H3' 2150   1.606   1.366   6.684 -0.4055 -0.0884 -0.5421
   30CHL1    C4 2151   1.626   1.273   6.921  0.0071  0.4447  0.0101
   30CHL1   H4A 2152   1.640   1.166   6.894 -1.1206  0.0332  0.9974
   30CHL1   H4B 2153   1.717   1.325   6.883 -0.6661  3.3357  2.0178
   30CHL1    C5 2154   1.598   1.290   7.066 -0.8630 -0.7520 -0.0439
   30CHL1    C6 2155   1.676   1.376   7.141 -0.0243 -0.4953 -1.0006
   30CHL1    H6 2156   1.764   1.432   7.107  0.7257  0.1917  1.8414
   30CHL1    C7 2157   1.664   1.392   7.287 -0.2310 -0.6744  0.0668
   30CHL1   H7A 2158   1.765   1.399   7.333  0.1563  1.1578 -0.9906
   30CHL1   H7B 2159   1.611   1.488   7.303 -1.0295 -1.0734 -0.1301
   30CHL1    C8 2160   1.582   1.288   7.355  0.8034 -0.3762 -1.1570
   30CHL1    H8 2161   1.632   1.189   7.352 -0.3207 -0.9503 -3.2076
   30CHL1   C14 2162   1.545   1.330   7.493 -0.1270  0.2776  0.8280
   30CHL1   H14 2163   1.487   1.425   7.488  2.1309  1.8268  2.3196
   30CHL1   C15 2164   1.656   1.364   7.592  0.3880  0.1126 -0.1177
   30CHL1  H15A 2165   1.726   1.278   7.587 -2.2007 -2.1261 -0.4701
   30CHL1  H15B 2166   1.697   1.462   7.560 -1.5845  0.9086 -0.3157
   30CHL1   C16 2167   1.581   1.359   7.730  0.0081  0.6486 -0.4565
   30CHL1  H16A 2168   1.656   1.305   7.791  0.1215  2.6549  1.3102
   30CHL1  H16B 2169   1.577   1.456   7.784  3.7211 -0.2975  1.8607
   30CHL1   C17 2170   1.447   1.294   7.708  0.2565 -0.1151 -0.0103
   30CHL1   H17 2171   1.380   1.381   7.688 -0.1031 -0.3213  0.2948
   30CHL1   C13 2172   1.454   1.233   7.566  0.5693  0.1062  0.4871
   30CHL1   C18 2173   1.521   1.090   7.576  0.1651 -0.0841 -0.3261
   30CHL1  H18A 2174   1.628   1.094   7.606 -0.1770 -0.3038  0.9881
   30CHL1  H18B 2175   1.463   1.026   7.645 -1.4570  1.3526 -0.2991
   30CHL1  H18C 2176   1.523   1.043   7.475  0.3751 -1.9584  0.5053
   30CHL1   C12 2177   1.324   1.225   7.482 -0.3758 -0.0755  0.1570
   30CHL1  H12A 2178   1.256   1.152   7.532 -0.0510 -0.7790 -0.4006
   30CHL1  H12B 2179   1.257   1.312   7.492 -1.8471 -1.2298  0.7734
   30CHL1   C11 2180   1.351   1.181   7.340  0.0056  1.1362  0.0021
   30CHL1  H11A 2181   1.364   1.071   7.340 -3.4261  0.6164 -0.3995
   30CHL1  H11B 2182   1.254   1.198   7.289  0.2115  1.7275 -0.1994
   30CHL1    C9 2183   1.455   1.262   7.269  0.2525  1.1112 -0.0787
   30CHL1    H9 2184   1.411   1.363   7.259 -2.3471  0.3982  2.7540
   30CHL1   C10 2185   1.483   1.214   7.122  0.8057 -0.0931  0.0688
   30CHL1   C19 2186   1.509   1.065   7.115 -0.2702  0.4791 -0.3743
   30CHL1  H19A 2187   1.408   1.019   7.123  0.5572 -1.4769 -0.6131
   30CHL1  H19B 2188   1.573   1.027   7.032 -0.7296 -1.9986  0.3137
   30CHL1  H19C 2189   1.551   1.030   7.212 -0.5402 -0.8869 -0.7215
   30CHL1    C1 2190   1.356   1.252   7.038  0.4087  0.2482 -0.5625
   30CHL1   H1A 2191   1.279   1.177   7.065 -0.3637  0.6569 -1.5928
   30CHL1   H1B 2192   1.333   1.360   7.054  0.2319  0.4841 -2.2063
   30CHL1    C2 2193   1.388   1.248   6.887  0.1144 -0.0523  0.0947
   30CHL1   H2A 2194   1.300   1.263   6.820  1.0003 -0.0939 -1.1219
   30CHL1   H2B 2195   1.411   1.141   6.864 -2.3579 -0.2659 -1.9004
   30CHL1   C20 2196   1.398   1.203   7.822 -0.3722  0.8243 -0.2015
   30CHL1   H20 2197   1.472   1.125   7.850  2.4663  3.2023 -0.5787
   30CHL1   C21 2198   1.261   1.154   7.791 -1.0205 -0.2134  0.4797
   30CHL1  H21A 2199   1.213   1.123   7.885 -2.0527  1.1711  0.4433
   30CHL1  H21B 2200   1.266   1.068   7.721  1.4779 -2.8109  3.5341
   30CHL1  H21C 2201   1.204   1.230   7.733  1.4224 -1.5615 -4.2499
   30CHL1   C22 2202   1.393   1.296   7.953  0.4265  0.1075  1.0711
   30CHL1  H22A 2203   1.496   1.321   7.983  0.7031  1.0646 -0.5548
   30CHL1  H22B 2204   1.341   1.390   7.925  1.3966  0.5951  0.8656
   30CHL1   C23 2205   1.323   1.232   8.079 -0.0258 -0.1456  0.2558
   30CHL1  H23A 2206   1.336   1.304   8.163 -1.2337  0.3545  0.0309
   30CHL1  H23B 2207   1.215   1.224   8.054  0.2334  3.1436 -2.8239
   30CHL1   C24 2208   1.376   1.094   8.122 -0.7325  0.6991 -0.3568
   30CHL1  H24A 2209   1.328   1.061   8.216 -1.5532  1.7016 -0.4047
   30CHL1  H24B 2210   1.344   1.011   8.056 -0.8285 -0.2459  0.8506
   30CHL1   C25 2211   1.533   1.079   8.139  0.3224  0.5655  0.0004
   30CHL1   H25 2212   1.587   1.122   8.051  2.0421  1.3561  1.3693
   30CHL1   C26 2213   1.578   1.167   8.261 -0.5765 -0.4630  0.1548
   30CHL1  H26A 2214   1.523   1.146   8.355 -0.8319  0.7637  0.2987
   30CHL1  H26B 2215   1.687   1.156   8.279 -0.4489 -0.3802 -0.5115
   30CHL1  H26C 2216   1.554   1.274   8.239  1.2542  0.3249  1.6992
   30CHL1   C27 2217   1.591   0.940   8.155 -0.9129  0.2114 -0.3077
   30CHL1  H27A 2218   1.701   0.948   8.138 -1.1743  0.1217 -2.3045
   30CHL1  H27B 2219   1.576   0.898   8.256 -0.5990  2.0218  0.5446
   30CHL1  H27C 2220   1.549   0.876   8.075 -0.7725  0.7130 -0.7927
   31CHL1    C3 2221   0.980   2.166   6.817 -0.1674  0.3216 -0.7472
   31CHL1    H3 2222   0.979   2.059   6.787  4.8516 -0.1564  0.0256
   31CHL1    O3 2223   1.015   2.239   6.705 -0.3824 -0.6491  0.0954
   31CHL1   H3' 2224   1.084   2.190   6.659  1.9485 -0.4150  2.9731
   31CHL1    C4 2225   0.841   2.218   6.862 -0.0113  0.8010  0.0257
   31CHL1   H4A 2226   0.839   2.328   6.883 -0.1988  0.5981  1.1565
   31CHL1   H4B 2227   0.774   2.206   6.774 -0.9519  1.3424  0.6397
   31CHL1    C5 2228   0.798   2.145   6.984  0.1310  0.0259  0.9654
   31CHL1    C6 2229   0.686   2.066   6.981  0.1037  0.3862  0.8084
   31CHL1    H6 2230   0.634   2.059   6.884  1.9503  0.5494 -0.2474
   31CHL1    C7 2231   0.639   1.997   7.110 -0.1978  0.2149 -0.1142
   31CHL1   H7A 2232   0.528   1.997   7.116 -0.1827 -1.7234  0.8421
   31CHL1   H7B 2233   0.666   1.891   7.092 -2.3916 -0.2483 -1.0557
   31CHL1    C8 2234   0.706   2.055   7.237  0.4296  0.4947 -0.0944
   31CHL1    H8 2235   0.653   2.151   7.256 -1.7672 -0.6775 -0.0014
   31CHL1   C14 2236   0.672   1.958   7.348 -0.5789  0.3218  0.4859
   31CHL1   H14 2237   0.735   1.870   7.323  0.8361  1.0769  1.2178
   31CHL1   C15 2238   0.528   1.900   7.370 -0.1896 -0.8357  0.5910
   31CHL1  H15A 2239   0.456   1.984   7.357 -0.1623 -1.0311 -1.1103
   31CHL1  H15B 2240   0.508   1.828   7.288 -1.0881  0.5599 -0.4506
   31CHL1   C16 2241   0.533   1.849   7.514 -0.0056  0.3292  0.5512
   31CHL1  H16A 2242   0.452   1.896   7.573 -0.6119 -0.0795  0.0450
   31CHL1  H16B 2243   0.525   1.738   7.523 -2.0509  0.5922  3.2538
   31CHL1   C17 2244   0.670   1.883   7.578  0.5224  0.5427  0.1554
   31CHL1   H17 2245   0.733   1.794   7.558 -1.7361 -0.8668 -1.0025
   31CHL1   C13 2246   0.722   1.999   7.489  0.1929  0.6389  0.0883
   31CHL1   C18 2247   0.657   2.132   7.529  0.5533  0.6925  0.2368
   31CHL1  H18A 2248   0.550   2.118   7.555  0.6587  2.7094  2.0904
   31CHL1  H18B 2249   0.702   2.157   7.628  0.6689 -0.2967  0.4420
   31CHL1  H18C 2250   0.660   2.217   7.457 -2.6251  1.5786  0.9757
   31CHL1   C12 2251   0.873   2.020   7.486 -0.2908 -0.4453  0.0563
   31CHL1  H12A 2252   0.904   2.067   7.582  3.0888 -1.1825 -0.5268
   31CHL1  H12B 2253   0.929   1.925   7.473 -1.1479 -0.8486 -0.8301
   31CHL1   C11 2254   0.914   2.113   7.370 -0.1668 -0.2449 -0.1026
   31CHL1  H11A 2255   0.897   2.217   7.405  4.7124 -0.6005  4.4633
   31CHL1  H11B 2256   1.021   2.103   7.345 -0.0670  0.2545  0.1319
   31CHL1    C9 2257   0.854   2.068   7.227  0.2089  0.3227  0.5466
   31CHL1    H9 2258   0.894   1.968   7.200 -1.1745 -0.1538  0.1411
   31CHL1   C10 2259   0.894   2.161   7.106 -0.4698  0.2038 -0.4437
   31CHL1   C19 2260   0.910   2.307   7.143  0.1526 -0.6719 -0.0649
   31CHL1  H19A 2261   0.819   2.342   7.196 -0.7944 -1.1955 -1.2846
   31CHL1  H19B 2262   0.994   2.321   7.214 -1.8624  1.5639  2.0935
   31CHL1  H19C 2263   0.944   2.364   7.054 -0.6162  0.5673  0.4093
   31CHL1    C1 2264   1.030   2.107   7.047 -0.4193  0.3730  0.5484
   31CHL1   H1A 2265   1.104   2.101   7.130  1.3370 -2.1559 -1.0543
   31CHL1   H1B 2266   1.037   2.000   7.018  2.6088  0.7749 -0.5298
   31CHL1    C2 2267   1.090   2.186   6.928  0.2689  0.0280 -0.1599
   31CHL1   H2A 2268   1.190   2.147   6.900 -0.3277  0.2109 -2.8249
   31CHL1   H2B 2269   1.094   2.294   6.950  0.5258  0.2759 -1.3556
   31CHL1   C20 2270   0.662   1.892   7.738 -0.4496  0.2511  0.1136
   31CHL1   H20 2271   0.611   1.986   7.771 -3.5493 -1.0472 -0.5987
   31CHL1   C21 2272   0.807   1.898   7.801  0.3208  0.3379  0.0885
   31CHL1  H21A 2273   0.861   1.802   7.786  0.1487  0.2413  0.0828
   31CHL1  H21B 2274   0.796   1.906   7.911  2.8893 -1.0027  0.5106
   31CHL1  H21C 2275   0.861   1.989   7.766  0.7027  0.1654  0.2315
   31CHL1   C22 2276   0.573   1.779   7.800  0.2257 -0.1180 -0.2270
   31CHL1  H22A 2277   0.464   1.798   7.787 -0.1222 -0.0543  2.2462
   31CHL1  H22B 2278   0.601   1.677   7.767  0.7753  0.0119 -0.1635
   31CHL1   C23 2279   0.587   1.753   7.949  0.6198  0.2009 -0.4556
   31CHL1  H23A 2280   0.689   1.718   7.978  0.1148 -0.2012  0.9400
   31CHL1  H23B 2281   0.575   1.852   7.997 -0.1183  1.2695 -2.7226
   31CHL1   C24 2282   0.491   1.637   8.001 -0.6107  0.0105  0.0905
   31CHL1  H24A 2283   0.391   1.685   7.994  0.0155  1.1418 -1.6859
   31CHL1  H24B 2284   0.499   1.560   7.920 -1.1524 -0.7973  0.7856
   31CHL1   C25 2285   0.515   1.575   8.139 -0.1446  0.7111 -0.1477
   31CHL1   H25 2286   0.617   1.530   8.145 -0.6956 -0.9546 -2.0407
   31CHL1   C26 2287   0.495   1.683   8.253 -0.8177  0.2504 -0.8152
   31CHL1  H26A 2288   0.558   1.772   8.228 -2.8321  1.7032 -0.9442
   31CHL1  H26B 2289   0.390   1.708   8.279 -0.9627 -2.1730  1.2193
   31CHL1  H26C 2290   0.535   1.647   8.350 -2.2260  2.5063  0.6855
   31CHL1   C27 2291   0.425   1.451   8.153  0.3792  0.2800 -0.0375
   31CHL1  H27A 2292   0.322   1.492   8.145  0.0155 -0.1170  1.9770
   31CHL1  H27B 2293   0.433   1.403   8.253  0.6845  0.5835  0.0859
   31CHL1  H27C 2294   0.462   1.384   8.073  1.3841  0.5831  0.1613
   32CHL1    C3 2295   2.140   1.377   6.587  0.2527  0.5380 -0.4150
   32CHL1    H3 2296   2.071   1.460   6.616 -1.1390 -1.5108  2.5883
   32CHL1    O3 2297   2.154   1.387   6.446  0.0766 -0.8896 -0.3056
   32CHL1   H3' 2298   2.200   1.312   6.406  1.3707 -0.0035 -0.5599
   32CHL1    C4 2299   2.269   1.373   6.655 -0.1173  0.2017 -0.2472
   32CHL1   H4A 2300   2.340   1.291   6.628 -0.4620  0.3699 -1.7671
   32CHL1   H4B 2301   2.328   1.459   6.617  2.3840 -0.3112  2.1572
   32CHL1    C5 2302   2.249   1.392   6.807  0.2281 -0.4317 -0.3040
   32CHL1    C6 2303   2.294   1.495   6.871  0.0712  0.2059  0.3643
   32CHL1    H6 2304   2.360   1.565   6.819  0.0368 -0.6077 -0.8238
   32CHL1    C7 2305   2.300   1.500   7.020 -0.1346  0.8104  0.0576
   32CHL1   H7A 2306   2.402   1.521   7.060  0.1218 -2.6020  1.5611
   32CHL1   H7B 2307   2.231   1.580   7.054 -0.1340 -0.0505  2.2420
   32CHL1    C8 2308   2.248   1.370   7.097 -0.3152 -0.5550  0.7610
   32CHL1    H8 2309   2.325   1.291   7.103 -0.0139 -0.2352  1.1687
   32CHL1   C14 2310   2.208   1.411   7.237 -0.1334  0.3856  1.1423
   32CHL1   H14 2311   2.126   1.483   7.220  0.0772  0.1506 -1.0997
   32CHL1   C15 2312   2.305   1.492   7.314 -0.4794  0.0044  0.1156
   32CHL1  H15A 2313   2.410   1.454   7.307 -0.3111  0.4603  0.1226
   32CHL1  H15B 2314   2.302   1.598   7.281  1.4040  1.2366  3.4150
   32CHL1   C16 2315   2.255   1.473   7.460 -0.3054  0.2701 -0.5651
   32CHL1  H16A 2316   2.330   1.409   7.510 -2.6037 -2.3202 -0.1751
   32CHL1  H16B 2317   2.225   1.561   7.521  0.5757  0.9995 -1.1581
   32CHL1   C17 2318   2.125   1.377   7.457 -0.1619 -0.3470  0.5930
   32CHL1   H17 2319   2.041   1.441   7.423 -0.0183 -0.3923  0.1532
   32CHL1   C13 2320   2.157   1.299   7.333 -0.0673 -0.8012 -0.4448
   32CHL1   C18 2321   2.270   1.193   7.356 -0.2314 -0.2756 -0.1761
   32CHL1  H18A 2322   2.296   1.147   7.258  0.2415 -2.5904  0.9672
   32CHL1  H18B 2323   2.371   1.234   7.380  0.3487 -2.8842  2.3681
   32CHL1  H18C 2324   2.246   1.111   7.426  0.1237 -1.3371 -1.2665
   32CHL1   C12 2325   2.034   1.239   7.258 -0.0783  0.4831 -0.5062
   32CHL1  H12A 2326   2.005   1.150   7.318 -1.5696  1.6795  0.6540
   32CHL1  H12B 2327   1.946   1.304   7.274 -0.2046  0.5147 -1.2994
   32CHL1   C11 2328   2.067   1.209   7.110  0.2556  0.2350  0.9946
   32CHL1  H11A 2329   2.135   1.121   7.114  0.6040  0.4509  0.1275
   32CHL1  H11B 2330   1.969   1.163   7.085  1.5943 -1.6611 -1.1442
   32CHL1    C9 2331   2.124   1.318   7.021 -0.2167  0.1586 -0.0820
   32CHL1    H9 2332   2.058   1.407   7.028  2.2676  1.9670  2.5793
   32CHL1   C10 2333   2.174   1.276   6.873 -0.0512  1.3163  0.2560
   32CHL1   C19 2334   2.275   1.156   6.876 -0.1427 -0.0393  0.4745
   32CHL1  H19A 2335   2.283   1.118   6.772  2.3381  0.2765  0.4950
   32CHL1  H19B 2336   2.376   1.188   6.910 -0.6425 -0.2347  2.2091
   32CHL1  H19C 2337   2.237   1.074   6.940 -0.0480 -0.2561  0.2570
   32CHL1    C1 2338   2.051   1.237   6.782  0.7127 -0.0244 -0.7860
   32CHL1   H1A 2339   2.023   1.135   6.815  2.0262 -0.1361  0.0554
   32CHL1   H1B 2340   1.967   1.306   6.805  1.0677  0.1837 -0.0413
   32CHL1    C2 2341   2.058   1.252   6.629  0.0402 -0.3306 -0.6881
   32CHL1   H2A 2342   1.960   1.247   6.577  1.3780 -1.6422 -3.2891
   32CHL1   H2B 2343   2.107   1.158   6.597 -1.9878 -1.0933 -1.7431
   32CHL1   C20 2344   2.094   1.320   7.597  0.1826  0.5698  0.4833
   32CHL1   H20 2345   2.190   1.270   7.621  0.2233  0.5816  0.3422
   32CHL1   C21 2346   1.999   1.197   7.593  0.8600  0.6275 -0.3515
   32CHL1  H21A 2347   2.058   1.107   7.566 -2.1732 -1.2276 -1.2544
   32CHL1  H21B 2348   1.909   1.219   7.532  0.6724  2.7931  0.5821
   32CHL1  H21C 2349   1.955   1.173   7.692 -0.4166  2.2547 -0.4735
   32CHL1   C22 2350   2.055   1.420   7.705  0.5019  0.2572 -0.2083
   32CHL1  H22A 2351   2.121   1.510   7.705  0.0602  0.5831 -0.0817
   32CHL1  H22B 2352   1.951   1.455   7.689  0.0336 -1.3427 -0.8002
   32CHL1   C23 2353   2.067   1.359   7.845  0.1751  0.8874  0.0150
   32CHL1  H23A 2354   1.988   1.283   7.859 -1.5253  2.4875 -0.4436
   32CHL1  H23B 2355   2.167   1.315   7.862 -0.6610 -0.7671  0.8358
   32CHL1   C24 2356   2.036   1.455   7.959 -0.8965  0.1000 -0.1158
   32CHL1  H24A 2357   2.112   1.536   7.965  1.1995 -1.8257  1.0515
   32CHL1  H24B 2358   1.933   1.493   7.947  0.0480  2.4603 -1.5422
   32CHL1   C25 2359   2.052   1.386   8.089 -1.0764  0.5355 -0.2453
   32CHL1   H25 2360   2.144   1.324   8.091 -0.8562  0.8154  2.7769
   32CHL1   C26 2361   2.070   1.488   8.206  0.0418  0.3312 -0.0640
   32CHL1  H26A 2362   2.010   1.580   8.192 -1.2455 -0.5303 -0.3188
   32CHL1  H26B 2363   2.037   1.437   8.298  0.0733  2.6440  1.3067
   32CHL1  H26C 2364   2.176   1.521   8.217  0.0356  0.1296  0.6087
   32CHL1   C27 2365   1.935   1.289   8.126  0.0116 -0.0418  0.2953
   32CHL1  H27A 2366   1.951   1.188   8.084  1.1381  1.4800 -3.3699
   32CHL1  H27B 2367   1.917   1.295   8.235 -1.0044  0.5507  0.1070
   32CHL1  H27C 2368   1.843   1.309   8.068 -0.6993 -1.7657  0.7899
   33CHL1    C3 2369   4.234   0.394   6.713  0.3663  0.1298  0.0865
   33CHL1    H3 2370   4.277   0.487   6.756  0.7062 -0.3871  0.8990
   33CHL1    O3 2371   4.216   0.398   6.568 -0.9535 -0.1053 -0.1304
   33CHL1   H3' 2372   4.206   0.307   6.539  1.8101 -0.4224 -0.4438
   33CHL1    C4 2373   4.327   0.279   6.738  0.1726  0.3129  0.0192
   33CHL1   H4A 2374   4.277   0.194   6.687  0.0688  0.5988 -0.3557
   33CHL1   H4B 2375   4.430   0.297   6.699 -1.0738  0.8706 -3.2957
   33CHL1    C5 2376   4.343   0.245   6.886  0.6528  0.1083 -0.0001
   33CHL1    C6 2377   4.466   0.253   6.943  0.2495 -0.1913  0.8167
   33CHL1    H6 2378   4.556   0.267   6.882 -0.9151 -0.2664 -0.9940
   33CHL1    C7 2379   4.490   0.231   7.096 -0.1922 -0.0471  0.2759
   33CHL1   H7A 2380   4.577   0.163   7.102  1.0751  1.5460  0.6704
   33CHL1   H7B 2381   4.531   0.320   7.148 -0.0453 -0.9487  1.7496
   33CHL1    C8 2382   4.364   0.178   7.166 -0.7412 -0.2286 -1.2584
   33CHL1    H8 2383   4.358   0.068   7.153  1.4382 -0.8513  1.7144
   33CHL1   C14 2384   4.378   0.195   7.318 -0.1987  0.6450  0.0219
   33CHL1   H14 2385   4.373   0.305   7.331 -1.4121  0.7934 -1.4298
   33CHL1   C15 2386   4.514   0.149   7.388 -0.3258 -0.9194 -0.7666
   33CHL1  H15A 2387   4.560   0.055   7.350  1.3559 -0.7800  0.8307
   33CHL1  H15B 2388   4.592   0.225   7.367 -1.0133 -0.7272 -2.9444
   33CHL1   C16 2389   4.484   0.145   7.538  0.3473 -0.4097  0.2915
   33CHL1  H16A 2390   4.515   0.046   7.577 -0.9032 -1.1001 -0.3880
   33CHL1  H16B 2391   4.538   0.223   7.595 -0.3721 -0.3020  0.8328
   33CHL1   C17 2392   4.331   0.170   7.555  0.7686 -0.6996 -0.3644
   33CHL1   H17 2393   4.314   0.278   7.573  0.1506 -1.0683  1.5709
   33CHL1   C13 2394   4.267   0.145   7.413 -0.3806 -0.7410 -0.2269
   33CHL1   C18 2395   4.245  -0.012   7.389  0.2194 -0.3619  0.3153
   33CHL1  H18A 2396   4.183  -0.063   7.465 -0.0942 -1.5549 -0.7004
   33CHL1  H18B 2397   4.193  -0.036   7.293  1.0323 -1.4103  0.1146
   33CHL1  H18C 2398   4.340  -0.068   7.397 -0.4789 -1.6915 -0.3685
   33CHL1   C12 2399   4.141   0.228   7.381  0.0509 -0.0012  0.6681
   33CHL1  H12A 2400   4.057   0.171   7.427 -0.0911 -1.4174 -1.2292
   33CHL1  H12B 2401   4.158   0.330   7.423  3.7050 -1.1005  2.3200
   33CHL1   C11 2402   4.117   0.224   7.225 -0.2293 -0.0856 -0.6457
   33CHL1  H11A 2403   4.073   0.126   7.195 -0.2830  0.3244 -1.9766
   33CHL1  H11B 2404   4.032   0.291   7.202 -2.4246 -2.5977 -0.3116
   33CHL1    C9 2405   4.236   0.253   7.129 -0.9491 -0.5743 -0.3404
   33CHL1    H9 2406   4.259   0.361   7.138  2.2420 -0.8586 -3.0462
   33CHL1   C10 2407   4.211   0.235   6.977 -0.4013 -0.4676 -0.4141
   33CHL1   C19 2408   4.161   0.091   6.954  0.3414  0.2864  0.2260
   33CHL1  H19A 2409   4.059   0.083   6.995 -0.4568 -1.3386 -1.8733
   33CHL1  H19B 2410   4.137   0.069   6.847 -0.4380  2.0018  0.0194
   33CHL1  H19C 2411   4.230   0.006   6.976  1.3428  0.5993 -1.4585
   33CHL1    C1 2412   4.111   0.334   6.924  0.6381  0.2767 -0.8909
   33CHL1   H1A 2413   4.010   0.301   6.957  0.6188 -1.4730 -2.5264
   33CHL1   H1B 2414   4.125   0.436   6.966  1.9606 -0.3853  0.3454
   33CHL1    C2 2415   4.097   0.358   6.771 -0.7560  0.8446  0.1686
   33CHL1   H2A 2416   4.022   0.433   6.739 -1.7839 -0.4179 -0.4812
   33CHL1   H2B 2417   4.067   0.265   6.719 -0.0602  0.4473  0.4620
   33CHL1   C20 2418   4.284   0.094   7.677  0.1610  0.2386 -0.1904
   33CHL1   H20 2419   4.300  -0.015   7.663  0.9988 -0.1570  3.0566
   33CHL1   C21 2420   4.128   0.121   7.700  0.0338 -0.5456  0.3753
   33CHL1  H21A 2421   4.092   0.059   7.786 -1.9404  1.0445  0.7808
   33CHL1  H21B 2422   4.066   0.090   7.613  2.6180 -2.4010 -0.9380
   33CHL1  H21C 2423   4.111   0.229   7.716  1.3287  0.0483 -1.8796
   33CHL1   C22 2424   4.353   0.126   7.813 -0.2085  0.0987 -1.0232
   33CHL1  H22A 2425   4.289   0.081   7.892  0.2386 -1.6350 -1.5999
   33CHL1  H22B 2426   4.454   0.084   7.832  1.0756  3.3790  0.0849
   33CHL1   C23 2427   4.379   0.279   7.844 -0.2904 -0.0772  0.4665
   33CHL1  H23A 2428   4.459   0.316   7.776  0.8609 -2.5282  0.3758
   33CHL1  H23B 2429   4.286   0.335   7.819 -0.7133 -1.5694 -1.5016
   33CHL1   C24 2430   4.423   0.296   7.988  0.5875 -0.0743 -0.1150
   33CHL1  H24A 2431   4.344   0.260   8.057  0.9502  0.0063  0.3467
   33CHL1  H24B 2432   4.516   0.238   8.006  0.0046 -0.6203  1.2303
   33CHL1   C25 2433   4.459   0.434   8.017 -0.2504  0.0074 -0.3160
   33CHL1   H25 2434   4.528   0.477   7.940  0.6758  0.0675  0.5336
   33CHL1   C26 2435   4.339   0.534   8.015 -0.2856 -0.1248  0.5023
   33CHL1  H26A 2436   4.377   0.635   8.042 -2.8198  1.0159  0.0380
   33CHL1  H26B 2437   4.298   0.541   7.912 -2.1512  0.4134  1.2409
   33CHL1  H26C 2438   4.256   0.499   8.079  0.0132  1.9066  2.0822
   33CHL1   C27 2439   4.531   0.429   8.154  0.2209 -0.0329 -0.0578
   33CHL1  H27A 2440   4.568   0.528   8.188  3.0716 -1.0230 -0.0255
   33CHL1  H27B 2441   4.466   0.392   8.236 -0.6911  0.1601 -0.6813
   33CHL1  H27C 2442   4.624   0.368   8.152  0.6064  0.5211  0.5108
   34CHL1    C3 2443   4.222   5.138   6.764 -0.4021 -0.5299 -0.1367
   34CHL1    H3 2444   4.321   5.174   6.799 -0.9442  1.5434 -0.6312
   34CHL1    O3 2445   4.207   5.199   6.639 -0.0986 -0.8862  0.1385
   34CHL1   H3' 2446   4.112   5.196   6.626 -0.1722 -0.9789  0.6634
   34CHL1    C4 2447   4.235   4.983   6.734  0.2565  0.7823 -0.7256
   34CHL1   H4A 2448   4.149   4.947   6.675  0.2827  0.2728 -0.4581
   34CHL1   H4B 2449   4.326   4.965   6.673  1.6550 -0.6217  1.6047
   34CHL1    C5 2450   4.233   4.906   6.864 -0.2310 -0.4152 -0.0619
   34CHL1    C6 2451   4.330   4.825   6.886 -0.0428 -0.0472 -0.1534
   34CHL1    H6 2452   4.398   4.809   6.800 -3.6393 -2.4347 -2.8392
   34CHL1    C7 2453   4.361   4.758   7.015  0.2321  0.1309  0.2810
   34CHL1   H7A 2454   4.395   4.654   7.002  1.2693  0.4677  0.2158
   34CHL1   H7B 2455   4.445   4.811   7.064  1.3718 -2.3342  1.1353
   34CHL1    C8 2456   4.240   4.761   7.109  0.2354  0.0553  0.2975
   34CHL1    H8 2457   4.155   4.698   7.075  0.6157 -0.8816  1.0383
   34CHL1   C14 2458   4.273   4.717   7.250  0.1118  0.1335  0.2993
   34CHL1   H14 2459   4.343   4.797   7.283 -0.3048  0.1601  1.1639
   34CHL1   C15 2460   4.346   4.579   7.262 -0.0018 -0.2623 -0.9558
   34CHL1  H15A 2461   4.299   4.516   7.183 -0.3246  0.2604 -1.1846
   34CHL1  H15B 2462   4.452   4.599   7.234  0.5310 -2.6306 -0.8565
   34CHL1   C16 2463   4.317   4.532   7.408  0.0498 -0.0417 -0.4501
   34CHL1  H16A 2464   4.248   4.446   7.394  0.3046 -0.0412 -1.8586
   34CHL1  H16B 2465   4.405   4.500   7.469  1.6889  2.6424 -1.2643
   34CHL1   C17 2466   4.237   4.652   7.482 -0.6199  0.2222  0.2084
   34CHL1   H17 2467   4.321   4.716   7.516  1.7017 -1.4466 -2.0046
   34CHL1   C13 2468   4.167   4.719   7.358 -0.1549 -0.3107  0.6917
   34CHL1   C18 2469   4.052   4.619   7.313 -0.2778 -0.2516 -0.8785
   34CHL1  H18A 2470   4.019   4.646   7.210  2.3773  0.4848 -1.6209
   34CHL1  H18B 2471   4.088   4.515   7.302  2.0192  0.3006  0.7487
   34CHL1  H18C 2472   3.964   4.644   7.376  1.2272  0.0584  1.1895
   34CHL1   C12 2473   4.107   4.861   7.368 -0.5602  0.0854 -0.4317
   34CHL1  H12A 2474   4.028   4.856   7.446  1.4253  0.3416  1.7288
   34CHL1  H12B 2475   4.185   4.937   7.391 -1.2272  0.9489 -0.9739
   34CHL1   C11 2476   4.066   4.919   7.229 -0.2919 -0.0569  0.3744
   34CHL1  H11A 2477   3.973   4.866   7.200 -0.7664  0.9996 -0.0997
   34CHL1  H11B 2478   4.048   5.025   7.255  0.7464  0.4300 -0.7958
   34CHL1    C9 2479   4.180   4.901   7.116 -0.0537 -0.3944 -0.2325
   34CHL1    H9 2480   4.262   4.962   7.160 -1.4012  0.2737  1.4573
   34CHL1   C10 2481   4.137   4.950   6.979 -0.3738  0.1292  1.0029
   34CHL1   C19 2482   4.007   4.887   6.938  1.1112  0.6888  0.6294
   34CHL1  H19A 2483   3.982   4.921   6.836  0.6969  0.7062  0.7372
   34CHL1  H19B 2484   4.007   4.776   6.947  1.1286  0.5129 -1.1894
   34CHL1  H19C 2485   3.919   4.920   6.996 -0.8695 -1.2814 -1.0903
   34CHL1    C1 2486   4.134   5.107   6.989  1.0119 -0.3733  0.2889
   34CHL1   H1A 2487   4.049   5.118   7.060  1.5342  0.5658  0.7781
   34CHL1   H1B 2488   4.225   5.153   7.033  0.4885  0.3718  0.6109
   34CHL1    C2 2489   4.112   5.179   6.855 -0.4637 -0.2159 -0.1271
   34CHL1   H2A 2490   4.116   5.290   6.868  0.0929 -0.2723  0.2560
   34CHL1   H2B 2491   4.011   5.149   6.822  0.0035 -0.6853 -1.1764
   34CHL1   C20 2492   4.149   4.604   7.596  0.7009 -0.5047  0.5100
   34CHL1   H20 2493   4.068   4.548   7.545  0.0696  0.7882  0.0661
   34CHL1   C21 2494   4.093   4.718   7.690  0.0022 -0.2277  0.1154
   34CHL1  H21A 2495   4.162   4.742   7.774 -1.5148 -1.7511  1.8912
   34CHL1  H21B 2496   3.997   4.693   7.740  1.0014  1.2411  3.0328
   34CHL1  H21C 2497   4.068   4.816   7.643  1.3304  0.0128 -0.1259
   34CHL1   C22 2498   4.229   4.502   7.687  0.3877 -0.9253  0.3773
   34CHL1  H22A 2499   4.237   4.406   7.632  3.1304 -0.3358 -0.4334
   34CHL1  H22B 2500   4.333   4.541   7.693  0.0361  0.0634  0.2926
   34CHL1   C23 2501   4.180   4.475   7.834 -0.0768 -0.0762 -0.6513
   34CHL1  H23A 2502   4.246   4.394   7.871  0.8718  0.9270 -0.0775
   34CHL1  H23B 2503   4.196   4.567   7.896  2.7288 -1.1530  0.3712
   34CHL1   C24 2504   4.037   4.419   7.831  0.8938  0.7312 -0.2550
   34CHL1  H24A 2505   3.965   4.498   7.801 -2.1902 -1.8555 -0.2320
   34CHL1  H24B 2506   4.034   4.345   7.748  2.4222 -0.3636  0.6328
   34CHL1   C25 2507   3.985   4.352   7.956 -0.0679 -0.1746 -0.1150
   34CHL1   H25 2508   3.890   4.306   7.922  0.6146 -0.3932 -1.8443
   34CHL1   C26 2509   4.079   4.236   7.991 -0.1032 -0.3787 -0.2990
   34CHL1  H26A 2510   4.028   4.177   8.071 -0.2200  2.1550  1.6060
   34CHL1  H26B 2511   4.107   4.181   7.898 -1.7964 -0.1122 -1.0023
   34CHL1  H26C 2512   4.178   4.271   8.026  0.0276  1.6225 -2.4570
   34CHL1   C27 2513   3.957   4.442   8.078  0.4851 -0.9708  0.4772
   34CHL1  H27A 2514   3.899   4.528   8.038 -0.6099 -1.8215  0.1533
   34CHL1  H27B 2515   3.897   4.393   8.158 -0.5780  1.4945  1.2715
   34CHL1  H27C 2516   4.053   4.478   8.120  0.2844  0.8097 -0.5114
   35CHL1    C3 2517   1.617   0.605   6.302  0.6163  0.1345  0.7715
   35CHL1    H3 2518   1.606   0.496   6.286 -1.2308  0.4900 -0.6532
   35CHL1    O3 2519   1.637   0.669   6.176  0.2811  0.8601 -0.2182
   35CHL1   H3' 2520   1.672   0.755   6.202  0.7608  0.5999  0.0153
   35CHL1    C4 2521   1.491   0.652   6.361 -0.2570 -0.6302 -0.1570
   35CHL1   H4A 2522   1.478   0.762   6.370  0.3235 -0.6245  0.8193
   35CHL1   H4B 2523   1.405   0.629   6.295 -0.6446  1.2310 -0.3428
   35CHL1    C5 2524   1.472   0.584   6.497  0.8669  0.0190  0.4426
   35CHL1    C6 2525   1.366   0.501   6.528 -0.3061  0.7836  0.1458
   35CHL1    H6 2526   1.289   0.477   6.454 -1.0278 -1.9967  1.6356
   35CHL1    C7 2527   1.346   0.431   6.661 -0.1581 -0.0870 -0.0039
   35CHL1   H7A 2528   1.240   0.420   6.691  0.5394 -0.8389  2.3731
   35CHL1   H7B 2529   1.398   0.333   6.656  2.7990  1.3902 -0.4389
   35CHL1    C8 2530   1.424   0.507   6.776  0.0299  0.0810  0.0390
   35CHL1    H8 2531   1.377   0.607   6.791  0.4118  0.0452  1.7850
   35CHL1   C14 2532   1.420   0.425   6.905 -0.8066  0.1726  0.8379
   35CHL1   H14 2533   1.465   0.325   6.887  0.2207  0.9498 -1.1842
   35CHL1   C15 2534   1.281   0.391   6.966 -0.5275 -0.5383 -0.0502
   35CHL1  H15A 2535   1.208   0.474   6.956  0.5858  0.4156 -0.4626
   35CHL1  H15B 2536   1.237   0.296   6.929 -2.0387 -0.5873  1.7512
   35CHL1   C16 2537   1.312   0.373   7.113  0.4517  0.2872  0.3749
   35CHL1  H16A 2538   1.251   0.456   7.156 -0.2360  0.5157 -0.9741
   35CHL1  H16B 2539   1.265   0.284   7.159 -2.0605  2.5761  2.6895
   35CHL1   C17 2540   1.464   0.385   7.133 -0.8014 -0.0773 -0.2310
   35CHL1   H17 2541   1.511   0.285   7.123 -0.7083  0.0261 -0.8272
   35CHL1   C13 2542   1.510   0.477   7.017 -0.1303  0.6715 -0.5979
   35CHL1   C18 2543   1.471   0.620   7.056  0.4992 -0.8182  0.1543
   35CHL1  H18A 2544   1.471   0.684   6.965  2.5693 -0.5354  0.3059
   35CHL1  H18B 2545   1.370   0.622   7.103  1.0830 -1.2521  1.4819
   35CHL1  H18C 2546   1.534   0.672   7.132 -0.0974 -1.4417  1.0991
   35CHL1   C12 2547   1.655   0.472   6.967 -0.8610 -0.7684  1.0528
   35CHL1  H12A 2548   1.732   0.508   7.039  0.7585 -1.2229 -0.3955
   35CHL1  H12B 2549   1.679   0.366   6.942 -0.4675 -0.3218 -0.5556
   35CHL1   C11 2550   1.676   0.555   6.840  0.2347 -0.3006 -0.7096
   35CHL1  H11A 2551   1.677   0.662   6.868  0.9591 -0.9801  2.1474
   35CHL1  H11B 2552   1.776   0.521   6.804  1.1739  1.0571  0.5132
   35CHL1    C9 2553   1.564   0.526   6.734 -0.8020  0.3226 -0.4515
   35CHL1    H9 2554   1.586   0.420   6.709 -0.7277  0.7117 -2.1913
   35CHL1   C10 2555   1.580   0.607   6.603  0.0376 -0.2168  0.6289
   35CHL1   C19 2556   1.564   0.756   6.639  0.3220 -1.3544 -1.3057
   35CHL1  H19A 2557   1.582   0.825   6.554 -1.0045 -0.4514 -0.8784
   35CHL1  H19B 2558   1.469   0.776   6.693  1.5308  0.5624  0.2439
   35CHL1  H19C 2559   1.653   0.783   6.699 -1.6046  1.7596  0.4401
   35CHL1    C1 2560   1.716   0.586   6.530 -0.1537 -0.1243 -0.4180
   35CHL1   H1A 2561   1.805   0.621   6.586 -1.0516 -0.7093  1.4687
   35CHL1   H1B 2562   1.716   0.475   6.529 -0.3407 -0.2610  2.8356
   35CHL1    C2 2563   1.724   0.640   6.392 -0.2178 -0.4041  0.3123
   35CHL1   H2A 2564   1.822   0.601   6.357 -1.4423 -2.2419 -1.2689
   35CHL1   H2B 2565   1.752   0.747   6.393  1.0532 -0.7148  0.2660
   35CHL1   C20 2566   1.503   0.437   7.271  0.6131  0.3285 -0.3826
   35CHL1   H20 2567   1.461   0.539   7.279  0.9475  0.5175 -1.0194
   35CHL1   C21 2568   1.658   0.459   7.292 -0.1575  0.1195 -0.0403
   35CHL1  H21A 2569   1.716   0.371   7.260 -0.9747 -0.3804 -0.1884
   35CHL1  H21B 2570   1.684   0.472   7.400  0.4275 -2.0340  0.1203
   35CHL1  H21C 2571   1.687   0.550   7.235 -0.7624  1.2175  1.3158
   35CHL1   C22 2572   1.439   0.344   7.378 -0.2275  0.0653 -0.5864
   35CHL1  H22A 2573   1.331   0.366   7.371 -0.3560  0.5498  1.8413
   35CHL1  H22B 2574   1.453   0.237   7.350 -0.3665 -0.0167 -0.3431
   35CHL1   C23 2575   1.484   0.365   7.529 -0.3223 -0.7307  0.0890
   35CHL1  H23A 2576   1.587   0.324   7.535  0.8364  1.8776 -0.5307
   35CHL1  H23B 2577   1.492   0.476   7.534 -0.2250 -0.0190 -6.6673
   35CHL1   C24 2578   1.391   0.307   7.638 -0.4722 -0.1403 -0.1990
   35CHL1  H24A 2579   1.286   0.341   7.625 -0.5585 -0.5913 -0.7132
   35CHL1  H24B 2580   1.404   0.196   7.636  1.5358  0.0554  0.2478
   35CHL1   C25 2581   1.445   0.350   7.778  0.1747  0.3386  0.3283
   35CHL1   H25 2582   1.463   0.459   7.773  3.6421 -0.1497 -1.3742
   35CHL1   C26 2583   1.339   0.336   7.888  0.0842  0.2884  0.0537
   35CHL1  H26A 2584   1.311   0.229   7.903  1.2511  0.0075  0.3739
   35CHL1  H26B 2585   1.388   0.381   7.977 -0.5716  0.7382  0.1912
   35CHL1  H26C 2586   1.255   0.406   7.874  0.1503  0.4457  0.4320
   35CHL1   C27 2587   1.582   0.287   7.811 -0.6391 -0.4869 -0.3517
   35CHL1  H27A 2588   1.649   0.321   7.729 -1.3167  1.6783 -0.0856
   35CHL1  H27B 2589   1.585   0.176   7.809  1.8652 -0.4545 -1.1501
   35CHL1  H27C 2590   1.626   0.317   7.908 -2.0804 -0.2977  0.2754
   36CHL1    C3 2591   1.114   5.329   6.563 -0.7732  0.3374  0.4245
   36CHL1    H3 2592   1.133   5.439   6.568 -2.0070  0.6053 -0.2868
   36CHL1    O3 2593   1.101   5.295   6.426 -0.6748  0.0061 -0.2467
   36CHL1   H3' 2594   1.096   5.199   6.427  1.6223 -0.1752  1.1712
   36CHL1    C4 2595   1.236   5.259   6.619  0.2983  0.1072  0.2110
   36CHL1   H4A 2596   1.231   5.152   6.590 -1.5304  0.6040 -1.5609
   36CHL1   H4B 2597   1.318   5.297   6.553  0.9941 -2.1488 -0.3165
   36CHL1    C5 2598   1.250   5.294   6.761  0.1859 -0.4358  0.0065
   36CHL1    C6 2599   1.362   5.353   6.806  0.2001  0.0041  0.3997
   36CHL1    H6 2600   1.431   5.390   6.729  0.0392  0.3517  0.4203
   36CHL1    C7 2601   1.396   5.381   6.953 -0.0828  0.0476  0.1103
   36CHL1   H7A 2602   1.494   5.342   6.988 -1.1547 -0.3767  2.8994
   36CHL1   H7B 2603   1.368   5.484   6.984  0.7009 -0.1718  1.6421
   36CHL1    C8 2604   1.296   5.301   7.043 -0.3726 -0.0901 -0.7807
   36CHL1    H8 2605   1.329   5.194   7.045 -2.1554 -0.7174  2.7397
   36CHL1   C14 2606   1.309   5.342   7.187  0.1647  0.1337  0.7254
   36CHL1   H14 2607   1.268   5.446   7.190 -0.2057  0.0131  0.0596
   36CHL1   C15 2608   1.449   5.345   7.252  0.7143 -0.2997  0.2959
   36CHL1  H15A 2609   1.499   5.251   7.220  1.6479  0.3664 -0.2254
   36CHL1  H15B 2610   1.506   5.431   7.211 -0.2736 -0.2569 -1.0396
   36CHL1   C16 2611   1.417   5.348   7.400  0.3654  0.1204  0.0576
   36CHL1  H16A 2612   1.466   5.263   7.453 -2.7890 -1.3878  0.7903
   36CHL1  H16B 2613   1.456   5.447   7.431 -0.9315  0.6303  0.1000
   36CHL1   C17 2614   1.259   5.345   7.416 -0.0905  0.5706 -1.1822
   36CHL1   H17 2615   1.214   5.446   7.412 -0.2208  0.4907 -1.7160
   36CHL1   C13 2616   1.212   5.273   7.286  0.0358 -0.5274 -0.3349
   36CHL1   C18 2617   1.230   5.123   7.289 -0.0553  0.2964 -0.4454
   36CHL1  H18A 2618   1.152   5.062   7.339  0.9967 -0.9596 -0.2571
   36CHL1  H18B 2619   1.225   5.072   7.191  0.2322  1.3488 -1.0197
   36CHL1  H18C 2620   1.327   5.108   7.342 -0.5182 -0.1843  0.2889
   36CHL1   C12 2621   1.067   5.309   7.240  0.6155  0.4135 -0.1304
   36CHL1  H12A 2622   1.001   5.251   7.308  1.7390 -0.4320  0.2816
   36CHL1  H12B 2623   1.047   5.418   7.247 -0.3840  0.5210 -3.2878
   36CHL1   C11 2624   1.041   5.262   7.093 -0.5381 -0.5603  0.1070
   36CHL1  H11A 2625   1.046   5.151   7.083 -1.7432 -0.3953 -3.7437
   36CHL1  H11B 2626   0.941   5.297   7.058 -0.1271 -0.2211 -0.7322
   36CHL1    C9 2627   1.151   5.316   6.992  0.5579 -0.4734 -0.0272
   36CHL1    H9 2628   1.133   5.426   6.987 -0.3264 -0.6317 -0.7575
   36CHL1   C10 2629   1.132   5.264   6.847  0.0480  0.1361 -0.3520
   36CHL1   C19 2630   1.118   5.105   6.851 -0.1892 -0.1941  0.0950
   36CHL1  H19A 2631   1.198   5.060   6.912  0.3947 -0.8009 -1.0761
   36CHL1  H19B 2632   1.018   5.071   6.887 -0.6992  2.2571  1.1607
   36CHL1  H19C 2633   1.122   5.057   6.750 -0.7024 -0.4823  0.2077
   36CHL1    C1 2634   1.003   5.332   6.793  0.3640  0.6140  0.2933
   36CHL1   H1A 2635   0.904   5.306   6.838  0.4901  0.1021  0.2864
   36CHL1   H1B 2636   1.014   5.442   6.796 -0.2340  0.7158 -0.6839
   36CHL1    C2 2637   0.987   5.295   6.642  0.0480 -0.0722  0.2129
   36CHL1   H2A 2638   0.892   5.339   6.605  0.2770  1.3345  1.2519
   36CHL1   H2B 2639   0.966   5.187   6.625 -1.3625 -0.2844  2.8665
   36CHL1   C20 2640   1.218   5.284   7.554 -0.3236 -0.5415  0.2575
   36CHL1   H20 2641   1.267   5.185   7.570  0.6200  0.2703  2.9835
   36CHL1   C21 2642   1.064   5.259   7.567 -0.5087  0.4965  0.5743
   36CHL1  H21A 2643   1.035   5.224   7.669 -0.0473 -0.0370  0.5277
   36CHL1  H21B 2644   1.020   5.181   7.502 -1.3820 -0.5833  2.3608
   36CHL1  H21C 2645   1.021   5.360   7.548  0.9556  1.1374  0.5123
   36CHL1   C22 2646   1.280   5.366   7.670  0.5207 -0.8649 -0.0954
   36CHL1  H22A 2647   1.361   5.433   7.634  1.2635 -2.6352 -1.9304
   36CHL1  H22B 2648   1.195   5.425   7.710  1.1269 -0.1155  0.1124
   36CHL1   C23 2649   1.347   5.279   7.777  0.0070  0.9311  0.3604
   36CHL1  H23A 2650   1.271   5.238   7.846 -0.2613  0.5843 -0.1368
   36CHL1  H23B 2651   1.398   5.193   7.729  0.2724  1.0243  0.4719
   36CHL1   C24 2652   1.442   5.364   7.856 -0.9801 -0.7603 -0.4209
   36CHL1  H24A 2653   1.508   5.410   7.780  0.0857  0.4409  1.1442
   36CHL1  H24B 2654   1.381   5.443   7.905  1.3458  0.3177  0.9497
   36CHL1   C25 2655   1.518   5.285   7.964  0.3082  0.1971  1.0260
   36CHL1   H25 2656   1.439   5.236   8.026  0.3168 -1.0329  0.1076
   36CHL1   C26 2657   1.599   5.176   7.896 -0.5578  0.1244  0.3473
   36CHL1  H26A 2658   1.675   5.229   7.836 -1.7695  1.1284 -0.3595
   36CHL1  H26B 2659   1.648   5.117   7.976  2.3455 -0.4570 -1.7128
   36CHL1  H26C 2660   1.544   5.104   7.832  0.2311 -0.0593 -0.1252
   36CHL1   C27 2661   1.608   5.386   8.046 -0.1456 -0.1926  0.0271
   36CHL1  H27A 2662   1.669   5.446   7.975 -0.6107 -0.4276 -0.5837
   36CHL1  H27B 2663   1.542   5.463   8.091  0.8790  2.0928 -2.0738
   36CHL1  H27C 2664   1.672   5.331   8.118 -0.6615 -0.1356  0.5293
   37CHL1    C3 2665   4.055   1.589   6.701  0.4191  0.5138 -0.5458
   37CHL1    H3 2666   4.157   1.619   6.732  0.2130 -0.2650  1.0402
   37CHL1    O3 2667   4.025   1.649   6.573  0.4541  1.1020 -0.6319
   37CHL1   H3' 2668   4.073   1.593   6.511 -1.8025 -2.2842  0.3434
   37CHL1    C4 2669   4.055   1.434   6.688 -0.5067 -0.7532  0.4574
   37CHL1   H4A 2670   3.958   1.395   6.652 -0.9787  1.6354 -1.0868
   37CHL1   H4B 2671   4.123   1.404   6.606 -3.4280 -0.2449 -2.3120
   37CHL1    C5 2672   4.093   1.374   6.827  0.6793  0.3653  0.1273
   37CHL1    C6 2673   4.196   1.295   6.843 -0.5650  0.3021 -0.2081
   37CHL1    H6 2674   4.251   1.275   6.750 -0.1567  3.2761 -0.7156
   37CHL1    C7 2675   4.239   1.234   6.976 -0.7949  0.1870  0.8082
   37CHL1   H7A 2676   4.276   1.131   6.957 -1.7969 -0.1772  0.7864
   37CHL1   H7B 2677   4.328   1.291   7.010  2.3446 -3.1728 -1.0463
   37CHL1    C8 2678   4.126   1.237   7.075 -0.3256 -0.0962 -0.1063
   37CHL1    H8 2679   4.052   1.158   7.050 -3.0315  1.9738  0.8647
   37CHL1   C14 2680   4.177   1.206   7.216  0.1078  0.0182 -0.0002
   37CHL1   H14 2681   4.257   1.279   7.241  0.6922 -1.0859  1.5635
   37CHL1   C15 2682   4.259   1.077   7.242  0.0068 -0.0943 -0.1988
   37CHL1  H15A 2683   4.199   0.999   7.190 -1.4878  0.0923  1.1408
   37CHL1  H15B 2684   4.363   1.092   7.208 -0.0872  1.0755 -0.0304
   37CHL1   C16 2685   4.237   1.045   7.387  0.0676 -0.1343 -0.2960
   37CHL1  H16A 2686   4.184   0.948   7.392 -1.0932  0.5351  1.5121
   37CHL1  H16B 2687   4.334   1.040   7.441 -0.1473 -0.5259  0.0581
   37CHL1   C17 2688   4.137   1.148   7.449 -0.2904 -0.1088  0.0234
   37CHL1   H17 2689   4.188   1.237   7.491  0.2054 -0.4949  0.2417
   37CHL1   C13 2690   4.062   1.204   7.324  0.1410  0.2148  0.5492
   37CHL1   C18 2691   3.957   1.092   7.286  0.0046 -0.4122  0.3389
   37CHL1  H18A 2692   3.999   0.992   7.264  0.4255  0.0168 -0.9136
   37CHL1  H18B 2693   3.884   1.084   7.369  0.8686 -0.7407  1.0795
   37CHL1  H18C 2694   3.905   1.110   7.189  2.2569 -1.0140 -1.0544
   37CHL1   C12 2695   4.002   1.345   7.328  0.1378 -0.0798  0.0353
   37CHL1  H12A 2696   3.927   1.343   7.410  1.8633  0.6389  1.7116
   37CHL1  H12B 2697   4.077   1.420   7.362  0.3753 -0.5674  0.6324
   37CHL1   C11 2698   3.945   1.388   7.189  0.2385 -0.2702 -0.1318
   37CHL1  H11A 2699   3.861   1.318   7.171  1.5638 -1.7416 -0.8396
   37CHL1  H11B 2700   3.905   1.491   7.196 -2.3851 -1.3289  3.9707
   37CHL1    C9 2701   4.049   1.371   7.077  0.3689 -0.6380 -0.5662
   37CHL1    H9 2702   4.127   1.446   7.102  0.0398 -0.6109  0.4437
   37CHL1   C10 2703   3.992   1.412   6.938 -0.4799 -0.3384 -0.0409
   37CHL1   C19 2704   3.850   1.361   6.916 -0.7424 -0.7747 -0.4372
   37CHL1  H19A 2705   3.774   1.401   6.988 -0.5750  0.6432 -1.0250
   37CHL1  H19B 2706   3.803   1.387   6.819 -2.5520  0.3767  0.6707
   37CHL1  H19C 2707   3.855   1.250   6.918 -1.9089 -0.8803 -1.6419
   37CHL1    C1 2708   3.986   1.573   6.939 -0.1662  0.1695 -0.2769
   37CHL1   H1A 2709   3.907   1.598   7.013 -0.4981 -0.1005 -0.5370
   37CHL1   H1B 2710   4.083   1.619   6.966 -0.2540  0.8139 -1.0274
   37CHL1    C2 2711   3.949   1.627   6.805 -0.1031  0.3601 -0.0349
   37CHL1   H2A 2712   3.953   1.737   6.816  0.3414  0.1470  2.4103
   37CHL1   H2B 2713   3.851   1.590   6.768  2.1351 -4.4492 -2.0313
   37CHL1   C20 2714   4.065   1.089   7.572 -0.8264 -0.7614  0.2442
   37CHL1   H20 2715   4.000   1.001   7.553 -1.2722 -1.0543  2.7395
   37CHL1   C21 2716   3.983   1.203   7.629 -0.9037 -0.0658  0.0282
   37CHL1  H21A 2717   3.900   1.226   7.559  0.2841 -2.7057 -2.4302
   37CHL1  H21B 2718   4.048   1.288   7.659 -0.8628 -0.6184  1.6163
   37CHL1  H21C 2719   3.938   1.178   7.727  0.5056  0.1201  0.7478
   37CHL1   C22 2720   4.170   1.039   7.674  1.1386  0.0494 -0.4033
   37CHL1  H22A 2721   4.214   0.943   7.640  1.1372 -0.0780 -0.0466
   37CHL1  H22B 2722   4.262   1.101   7.678 -0.7582  2.9968  1.0730
   37CHL1   C23 2723   4.125   1.030   7.828 -0.6014  0.6203  0.4437
   37CHL1  H23A 2724   4.126   1.138   7.856  0.2340  1.4913 -2.5665
   37CHL1  H23B 2725   4.022   0.993   7.846 -0.9292  0.1528 -2.0676
   37CHL1   C24 2726   4.225   0.953   7.912  0.6475  0.2619  0.2078
   37CHL1  H24A 2727   4.250   0.856   7.865  1.4213  0.6287 -0.1561
   37CHL1  H24B 2728   4.324   1.003   7.907 -0.2277  2.0118 -0.6116
   37CHL1   C25 2729   4.186   0.948   8.060  0.4998 -0.0162  0.1460
   37CHL1   H25 2730   4.138   1.042   8.093  0.5803 -0.3946  1.3878
   37CHL1   C26 2731   4.098   0.824   8.092 -0.0934  0.2022 -0.4996
   37CHL1  H26A 2732   4.146   0.739   8.039  1.8741 -0.0501  1.5183
   37CHL1  H26B 2733   4.091   0.818   8.203  1.9479 -0.4824 -0.3596
   37CHL1  H26C 2734   3.996   0.835   8.050  0.1850  3.1411 -0.5493
   37CHL1   C27 2735   4.318   0.953   8.139  0.6775  0.8921  0.5677
   37CHL1  H27A 2736   4.309   0.935   8.249  1.8558  0.4176  0.5983
   37CHL1  H27B 2737   4.388   0.878   8.097 -1.3339 -0.8064  0.0223
   37CHL1  H27C 2738   4.362   1.053   8.120  2.6557  0.2218  1.4014
   38CHL1    C3 2739   1.308   1.861   6.824 -0.0452  0.2497 -0.8829
   38CHL1    H3 2740   1.203   1.898   6.814 -1.5068 -2.9559  1.1855
   38CHL1    O3 2741   1.367   1.865   6.692  0.3630  0.3396 -0.9284
   38CHL1   H3' 2742   1.347   1.778   6.657 -0.1863 -0.8475  2.0392
   38CHL1    C4 2743   1.397   1.943   6.913  0.5348 -0.1832 -0.4331
   38CHL1   H4A 2744   1.502   1.911   6.894  0.2648 -0.4059 -1.5953
   38CHL1   H4B 2745   1.383   2.049   6.885  0.0870 -0.6191 -1.9278
   38CHL1    C5 2746   1.359   1.936   7.062  0.2463 -0.6838 -0.1214
   38CHL1    C6 2747   1.348   2.042   7.142 -0.0013 -1.3080  0.0380
   38CHL1    H6 2748   1.368   2.144   7.105 -1.0286 -0.5914  1.3527
   38CHL1    C7 2749   1.337   2.040   7.293  0.0060  0.3833  0.3589
   38CHL1   H7A 2750   1.414   2.104   7.341 -0.5091  1.5247 -0.2872
   38CHL1   H7B 2751   1.238   2.080   7.324  0.0090  0.0675  0.7684
   38CHL1    C8 2752   1.340   1.889   7.352  0.0198 -0.5148  1.0306
   38CHL1    H8 2753   1.449   1.870   7.363  0.7414  1.8346 -1.2185
   38CHL1   C14 2754   1.267   1.887   7.489  0.1334 -0.2992  0.8063
   38CHL1   H14 2755   1.162   1.900   7.455 -0.5991  0.1017  3.0510
   38CHL1   C15 2756   1.294   1.994   7.593 -0.2108 -0.0905  0.3402
   38CHL1  H15A 2757   1.402   2.002   7.618 -0.0959  1.5314 -0.5195
   38CHL1  H15B 2758   1.261   2.087   7.541 -0.9814 -0.7651 -0.4104
   38CHL1   C16 2759   1.223   1.943   7.718 -0.2208  0.2025  0.2452
   38CHL1  H16A 2760   1.289   1.961   7.805  1.7599  0.8682 -1.3202
   38CHL1  H16B 2761   1.127   1.993   7.744 -0.3650  0.0584  0.0039
   38CHL1   C17 2762   1.188   1.794   7.689 -0.3665  0.6873 -0.1878
   38CHL1   H17 2763   1.082   1.792   7.656 -0.1007 -1.9976 -1.0777
   38CHL1   C13 2764   1.269   1.755   7.564  0.7393 -0.6736 -0.1613
   38CHL1   C18 2765   1.410   1.731   7.601  0.1026 -0.0124  0.0578
   38CHL1  H18A 2766   1.413   1.625   7.633  0.7282 -1.2878 -3.7221
   38CHL1  H18B 2767   1.481   1.738   7.516 -2.4666  0.3207 -2.2175
   38CHL1  H18C 2768   1.445   1.802   7.679 -2.3574  2.4158 -0.8803
   38CHL1   C12 2769   1.199   1.647   7.475 -0.6837 -0.1089  0.3988
   38CHL1  H12A 2770   1.216   1.542   7.505  1.2225 -0.8113 -2.7036
   38CHL1  H12B 2771   1.090   1.668   7.466 -0.3122  1.3650 -0.9604
   38CHL1   C11 2772   1.266   1.644   7.331 -0.0019 -0.2805  0.3057
   38CHL1  H11A 2773   1.364   1.595   7.346 -0.6123 -2.3878 -1.9095
   38CHL1  H11B 2774   1.208   1.573   7.267  0.4782 -0.7738  0.4095
   38CHL1    C9 2775   1.273   1.794   7.263 -0.3354  0.1939 -0.3902
   38CHL1    H9 2776   1.167   1.824   7.247 -1.0329 -2.1610 -0.5841
   38CHL1   C10 2777   1.335   1.792   7.118 -0.8639  0.0466 -0.3026
   38CHL1   C19 2778   1.464   1.713   7.135 -0.3673  0.7948  0.0221
   38CHL1  H19A 2779   1.538   1.720   7.053 -0.6397  2.2959 -0.1233
   38CHL1  H19B 2780   1.509   1.751   7.229 -0.8227 -0.0883  0.6171
   38CHL1  H19C 2781   1.435   1.608   7.154  0.9398 -0.0266 -2.2301
   38CHL1    C1 2782   1.241   1.706   7.024 -0.0083 -0.4243  0.6346
   38CHL1   H1A 2783   1.239   1.598   7.050 -2.5061 -1.0616 -1.7124
   38CHL1   H1B 2784   1.135   1.738   7.032 -0.6268 -2.4287  0.9350
   38CHL1    C2 2785   1.291   1.719   6.878 -0.0928 -0.4274 -0.0394
   38CHL1   H2A 2786   1.222   1.660   6.814  0.5490 -1.4166  0.1486
   38CHL1   H2B 2787   1.395   1.680   6.871  0.2667  0.5731 -0.3858
   38CHL1   C20 2788   1.185   1.696   7.817 -0.5167 -0.0973  0.0188
   38CHL1   H20 2789   1.292   1.673   7.837 -1.0455 -0.8102  2.3246
   38CHL1   C21 2790   1.125   1.554   7.778 -0.3109  0.4361  0.2110
   38CHL1  H21A 2791   1.205   1.508   7.715 -0.9717  0.8497 -0.9520
   38CHL1  H21B 2792   1.034   1.567   7.715 -1.2912 -0.7312  1.3365
   38CHL1  H21C 2793   1.107   1.493   7.869 -1.1913  1.5366  0.7938
   38CHL1   C22 2794   1.125   1.755   7.945 -0.2520  0.3084 -0.0661
   38CHL1  H22A 2795   1.156   1.857   7.976 -0.4117  0.1724  0.5570
   38CHL1  H22B 2796   1.014   1.758   7.936 -0.3327  1.4775  1.0304
   38CHL1   C23 2797   1.159   1.670   8.070  0.1848 -0.1590 -0.0347
   38CHL1  H23A 2798   1.102   1.574   8.069  0.2912 -0.2399  0.7940
   38CHL1  H23B 2799   1.269   1.654   8.062  0.5998  1.0526  2.3322
   38CHL1   C24 2800   1.115   1.744   8.198  0.2191  0.2858  0.0550
   38CHL1  H24A 2801   1.157   1.847   8.196 -0.6229  0.6289 -0.5209
   38CHL1  H24B 2802   1.004   1.744   8.192  0.2601 -1.5360 -2.4074
   38CHL1   C25 2803   1.164   1.688   8.335  0.2776 -0.4022  0.1884
   38CHL1   H25 2804   1.136   1.581   8.347 -1.7051  0.0320 -0.2658
   38CHL1   C26 2805   1.321   1.686   8.350  0.0653 -0.3126 -0.1161
   38CHL1  H26A 2806   1.372   1.634   8.266  0.5419 -0.3013  0.1644
   38CHL1  H26B 2807   1.352   1.792   8.346 -3.2399  0.7129 -1.6071
   38CHL1  H26C 2808   1.350   1.632   8.443 -4.3573 -1.3156  0.8916
   38CHL1   C27 2809   1.097   1.764   8.452 -0.4455  0.1302 -0.5130
   38CHL1  H27A 2810   1.140   1.729   8.548 -1.3062  2.0689  0.6425
   38CHL1  H27B 2811   1.131   1.870   8.449  1.8311 -0.5268  0.0028
   38CHL1  H27C 2812   0.987   1.765   8.440 -0.6569  0.2226  1.1567
   39CHL1    C3 2813   1.855   1.730   6.814  1.1004  0.2873 -0.3398
   39CHL1    H3 2814   1.746   1.711   6.819  1.2021 -0.0506  1.0259
   39CHL1    O3 2815   1.894   1.703   6.681  0.1590  0.3742 -0.0503
   39CHL1   H3' 2816   1.984   1.734   6.677  0.3770 -0.3491 -2.2676
   39CHL1    C4 2817   1.882   1.877   6.859  0.5255 -0.2357  0.7422
   39CHL1   H4A 2818   1.991   1.887   6.837  0.4168  1.1251  0.7332
   39CHL1   H4B 2819   1.829   1.945   6.789  1.3578 -0.1541  0.1710
   39CHL1    C5 2820   1.855   1.907   7.007 -0.1549  0.2444  0.1263
   39CHL1    C6 2821   1.786   2.011   7.042 -0.2043  0.5891  0.0890
   39CHL1    H6 2822   1.738   2.078   6.969 -3.0035  2.2377  3.1458
   39CHL1    C7 2823   1.764   2.051   7.183  0.3071  0.2839  0.4042
   39CHL1   H7A 2824   1.793   2.157   7.196  1.1165  0.0456  0.6216
   39CHL1   H7B 2825   1.654   2.043   7.197 -0.4619 -1.0928 -4.5656
   39CHL1    C8 2826   1.835   1.973   7.294 -0.8609  1.4601 -0.2818
   39CHL1    H8 2827   1.939   2.012   7.298  0.9514 -2.8206  0.9368
   39CHL1   C14 2828   1.772   1.980   7.436  1.1849 -0.1392 -0.2583
   39CHL1   H14 2829   1.669   1.940   7.429  0.7007  0.8647  0.8438
   39CHL1   C15 2830   1.752   2.116   7.505 -0.1991  0.6994  0.0562
   39CHL1  H15A 2831   1.839   2.179   7.479  1.7109 -0.7591  2.5009
   39CHL1  H15B 2832   1.667   2.172   7.461 -0.0363 -0.0720 -1.3202
   39CHL1   C16 2833   1.747   2.090   7.658  0.4776 -0.5711 -0.6796
   39CHL1  H16A 2834   1.827   2.146   7.711 -0.6427  0.5665 -0.1268
   39CHL1  H16B 2835   1.649   2.118   7.704  2.5759  2.9496  2.2465
   39CHL1   C17 2836   1.773   1.936   7.679 -0.0379 -0.4932  1.4335
   39CHL1   H17 2837   1.676   1.886   7.658  2.0291 -3.7107 -1.4732
   39CHL1   C13 2838   1.850   1.890   7.547 -0.3906  0.3957  0.4187
   39CHL1   C18 2839   2.002   1.927   7.569  0.6850 -0.3108  1.0964
   39CHL1  H18A 2840   2.058   1.946   7.475 -2.3257 -3.6051 -1.6558
   39CHL1  H18B 2841   2.019   2.011   7.639 -2.7673  3.6865 -2.3355
   39CHL1  H18C 2842   2.057   1.841   7.613  0.1452 -0.0493  2.3281
   39CHL1   C12 2843   1.826   1.743   7.500  0.1875 -0.0482 -0.2421
   39CHL1  H12A 2844   1.870   1.676   7.577  1.3790  0.5992 -0.3255
   39CHL1  H12B 2845   1.717   1.725   7.494 -0.3090  2.7727 -1.0339
   39CHL1   C11 2846   1.895   1.723   7.365  0.0278  0.5033 -0.4899
   39CHL1  H11A 2847   2.005   1.735   7.379 -0.0639  0.2125  0.5621
   39CHL1  H11B 2848   1.876   1.618   7.332  1.8551  0.1470 -0.5483
   39CHL1    C9 2849   1.846   1.822   7.251 -0.3794  0.4720 -0.5065
   39CHL1    H9 2850   1.740   1.789   7.237 -0.0754 -1.3884  1.0238
   39CHL1   C10 2851   1.907   1.803   7.110 -0.1744 -0.5940  0.2717
   39CHL1   C19 2852   2.059   1.824   7.128  0.4701 -0.0246 -0.4348
   39CHL1  H19A 2853   2.088   1.918   7.180 -0.6313  1.3908 -2.2540
   39CHL1  H19B 2854   2.104   1.741   7.187 -1.7543 -0.6891  0.4619
   39CHL1  H19C 2855   2.113   1.825   7.032  1.0831 -1.6555 -0.1323
   39CHL1    C1 2856   1.876   1.662   7.060  0.1581 -0.3524  0.6567
   39CHL1   H1A 2857   1.922   1.588   7.129 -0.1987 -2.3886 -1.1814
   39CHL1   H1B 2858   1.765   1.654   7.058  0.1642 -0.6384 -2.4161
   39CHL1    C2 2859   1.924   1.632   6.915 -0.3525 -0.0459  0.4903
   39CHL1   H2A 2860   1.896   1.528   6.889  0.8303 -0.0833 -0.7552
   39CHL1   H2B 2861   2.035   1.644   6.920 -0.3288 -0.4552  1.0003
   39CHL1   C20 2862   1.829   1.904   7.819  0.6027  0.7422  0.1855
   39CHL1   H20 2863   1.919   1.967   7.838  0.8242  0.6077 -0.3875
   39CHL1   C21 2864   1.873   1.755   7.824 -0.0512  0.1853  0.6160
   39CHL1  H21A 2865   1.959   1.739   7.757  0.5368 -0.1726  1.4334
   39CHL1  H21B 2866   1.791   1.688   7.791  1.7642 -1.8811  0.1373
   39CHL1  H21C 2867   1.911   1.729   7.926  0.8367  3.8553  1.3779
   39CHL1   C22 2868   1.727   1.943   7.938  0.3337 -0.5709  0.3034
   39CHL1  H22A 2869   1.778   1.908   8.030 -1.2021  0.2290  1.5002
   39CHL1  H22B 2870   1.716   2.052   7.955  0.6556 -0.7931  2.2098
   39CHL1   C23 2871   1.587   1.887   7.932 -0.0159 -0.1076  0.2929
   39CHL1  H23A 2872   1.523   1.924   7.849 -1.3356 -0.4749  1.1328
   39CHL1  H23B 2873   1.597   1.778   7.911  0.9313 -0.0847  0.5773
   39CHL1   C24 2874   1.516   1.910   8.067 -1.1992 -0.2074  1.2021
   39CHL1  H24A 2875   1.432   1.839   8.081 -0.7160 -0.6936  1.7050
   39CHL1  H24B 2876   1.598   1.880   8.136  0.6581  0.2717 -0.6913
   39CHL1   C25 2877   1.480   2.060   8.104 -1.0777  0.2682 -0.2730
   39CHL1   H25 2878   1.578   2.112   8.100 -0.9984  0.1034 -0.5350
   39CHL1   C26 2879   1.393   2.137   8.002  0.3874  0.6527  0.4994
   39CHL1  H26A 2880   1.358   2.236   8.037  0.1206  2.5963 -4.4904
   39CHL1  H26B 2881   1.454   2.154   7.910  0.7417 -2.1513  0.1161
   39CHL1  H26C 2882   1.305   2.081   7.965 -0.0568  0.4017  1.8973
   39CHL1   C27 2883   1.421   2.061   8.247  0.3059 -0.1792  0.0951
   39CHL1  H27A 2884   1.326   2.005   8.244  0.9940 -1.3628 -0.3620
   39CHL1  H27B 2885   1.489   2.018   8.324  0.8481  0.0610 -0.2436
   39CHL1  H27C 2886   1.411   2.168   8.274  0.7982 -0.0770 -0.1028
   40CHL1    C3 2887   4.566   6.591   6.770 -0.2689  0.2685 -0.5223
   40CHL1    H3 2888   4.677   6.593   6.764 -0.1558  1.6037  1.2614
   40CHL1    O3 2889   4.519   6.644   6.648 -0.0243 -0.1801 -0.2360
   40CHL1   H3' 2890   4.445   6.589   6.622 -0.8548  0.3750  0.8244
   40CHL1    C4 2891   4.516   6.447   6.795  0.3222  0.4173 -0.6450
   40CHL1   H4A 2892   4.406   6.456   6.781  0.4484  0.5199 -1.6019
   40CHL1   H4B 2893   4.555   6.386   6.711 -2.6132  0.1275 -1.9147
   40CHL1    C5 2894   4.546   6.393   6.939  0.0805 -0.0776 -0.3657
   40CHL1    C6 2895   4.606   6.274   6.950  0.2994  0.1268  1.0062
   40CHL1    H6 2896   4.623   6.214   6.859  2.6043  0.0887  1.4143
   40CHL1    C7 2897   4.644   6.202   7.078 -0.0312  0.2198 -0.3044
   40CHL1   H7A 2898   4.609   6.097   7.072 -1.9009  0.7604  0.2718
   40CHL1   H7B 2899   4.753   6.195   7.093 -0.0040  2.2942  0.8290
   40CHL1    C8 2900   4.573   6.274   7.194 -0.6772 -0.0140  0.3511
   40CHL1    H8 2901   4.462   6.267   7.195 -0.5921 -2.1567 -0.2327
   40CHL1   C14 2902   4.633   6.235   7.325 -0.3270  0.1963 -0.0224
   40CHL1   H14 2903   4.742   6.259   7.320  0.0667 -1.6428 -2.4185
   40CHL1   C15 2904   4.639   6.084   7.353  0.0904  0.2244  0.1760
   40CHL1  H15A 2905   4.544   6.035   7.326  0.7813 -0.0583 -1.8951
   40CHL1  H15B 2906   4.722   6.033   7.299  0.3451  0.7447  0.0704
   40CHL1   C16 2907   4.678   6.088   7.501  0.7979 -0.3404 -0.3508
   40CHL1  H16A 2908   4.608   6.016   7.548 -0.0620  0.0582 -0.9926
   40CHL1  H16B 2909   4.783   6.051   7.502  0.9339 -0.0306  1.6517
   40CHL1   C17 2910   4.664   6.227   7.552  0.1192 -0.4696 -0.5105
   40CHL1   H17 2911   4.764   6.274   7.543  0.8552 -1.3406  2.1565
   40CHL1   C13 2912   4.575   6.295   7.451  0.3427 -0.0221 -0.1925
   40CHL1   C18 2913   4.424   6.261   7.478  0.5156 -0.4414  0.0416
   40CHL1  H18A 2914   4.413   6.153   7.504 -1.9992 -0.3437 -0.3209
   40CHL1  H18B 2915   4.388   6.316   7.568 -2.0095 -1.7665 -0.0624
   40CHL1  H18C 2916   4.371   6.281   7.382 -0.7736  0.3591  0.8897
   40CHL1   C12 2917   4.591   6.444   7.439  0.1425 -0.1437  0.2754
   40CHL1  H12A 2918   4.549   6.495   7.529  1.8391 -1.7865  2.0974
   40CHL1  H12B 2919   4.701   6.452   7.439  0.0941  0.5945  0.2649
   40CHL1   C11 2920   4.543   6.502   7.311  0.7461  0.5247  0.8191
   40CHL1  H11A 2921   4.432   6.495   7.317  0.8364 -0.7936  1.1246
   40CHL1  H11B 2922   4.573   6.609   7.308  1.4855  0.3024  0.0599
   40CHL1    C9 2923   4.597   6.426   7.182  0.8209 -0.5714  0.7313
   40CHL1    H9 2924   4.703   6.453   7.162 -0.2910  3.4828 -0.8054
   40CHL1   C10 2925   4.521   6.475   7.059  0.4434 -0.2864 -0.8449
   40CHL1   C19 2926   4.363   6.495   7.069  0.0845 -0.6692 -0.6925
   40CHL1  H19A 2927   4.317   6.402   7.109 -0.6529 -0.5927 -1.3343
   40CHL1  H19B 2928   4.341   6.578   7.139  1.9204  0.2585 -1.1445
   40CHL1  H19C 2929   4.312   6.529   6.976  0.9829 -1.1723 -1.3921
   40CHL1    C1 2930   4.576   6.621   7.025  0.1046 -0.1966 -0.3418
   40CHL1   H1A 2931   4.559   6.687   7.112 -0.1965 -0.7005 -0.0145
   40CHL1   H1B 2932   4.687   6.621   7.025  0.1826 -1.0435 -3.3552
   40CHL1    C2 2933   4.528   6.682   6.886 -0.0435  0.0813 -0.5068
   40CHL1   H2A 2934   4.586   6.776   6.876  2.0434 -0.8388  1.6794
   40CHL1   H2B 2935   4.419   6.702   6.891 -0.3586 -1.6266  0.6069
   40CHL1   C20 2936   4.630   6.250   7.703  0.3722 -0.2007  0.2727
   40CHL1   H20 2937   4.522   6.277   7.711 -0.0229 -1.4892 -0.4380
   40CHL1   C21 2938   4.711   6.374   7.754  0.2026 -0.0379  0.5633
   40CHL1  H21A 2939   4.663   6.408   7.848  2.5482  0.1425  1.7814
   40CHL1  H21B 2940   4.705   6.456   7.679 -0.8862 -0.2000  0.4574
   40CHL1  H21C 2941   4.817   6.352   7.781  0.3684  0.9996  0.7959
   40CHL1   C22 2942   4.638   6.124   7.792  0.0191  0.3301 -0.2305
   40CHL1  H22A 2943   4.547   6.061   7.786 -1.1970  1.8208  1.3386
   40CHL1  H22B 2944   4.730   6.066   7.770  0.5855  0.5807  1.3422
   40CHL1   C23 2945   4.654   6.152   7.943  0.6228 -0.1072  0.3464
   40CHL1  H23A 2946   4.744   6.213   7.965  0.0129 -0.0425  2.9926
   40CHL1  H23B 2947   4.555   6.194   7.969  0.2879 -1.5755  1.6013
   40CHL1   C24 2948   4.664   6.018   8.030 -0.6410  0.0113  0.2936
   40CHL1  H24A 2949   4.575   5.954   8.011  0.2190 -0.7952 -1.1636
   40CHL1  H24B 2950   4.749   5.966   7.981 -0.8874  1.4274 -1.7427
   40CHL1   C25 2951   4.687   6.046   8.179 -0.4042 -0.6524 -0.2867
   40CHL1   H25 2952   4.587   6.074   8.221  0.3228  1.8781 -0.0577
   40CHL1   C26 2953   4.726   5.915   8.252  0.4346  0.5934 -0.2253
   40CHL1  H26A 2954   4.828   5.879   8.227 -0.4918 -2.0633 -0.4778
   40CHL1  H26B 2955   4.713   5.910   8.363 -1.6481 -0.3197 -0.4592
   40CHL1  H26C 2956   4.664   5.835   8.207  1.4562 -1.3247  1.5860
   40CHL1   C27 2957   4.793   6.156   8.206 -0.3619  0.5639 -0.0491
   40CHL1  H27A 2958   4.886   6.136   8.149 -0.5032  2.6299 -1.1090
   40CHL1  H27B 2959   4.761   6.258   8.175 -0.3892  0.6199  0.1628
   40CHL1  H27C 2960   4.814   6.153   8.315  2.6906  1.1540 -0.5424
   41CHL1    C3 2961   4.705   5.675   6.950  0.0797 -0.2230 -0.4996
   41CHL1    H3 2962   4.625   5.600   6.935  1.6221 -2.1521  0.3191
   41CHL1    O3 2963   4.752   5.722   6.823 -0.1147  0.1904  0.0055
   41CHL1   H3' 2964   4.766   5.642   6.773 -1.9724  0.0681 -0.3709
   41CHL1    C4 2965   4.641   5.791   7.034 -0.4787  0.2028  0.2038
   41CHL1   H4A 2966   4.726   5.862   7.044 -1.1326  1.2802 -1.3938
   41CHL1   H4B 2967   4.559   5.838   6.976 -0.4470  0.6004  0.4748
   41CHL1    C5 2968   4.618   5.751   7.179  0.4986  0.0039 -0.5844
   41CHL1    C6 2969   4.498   5.783   7.239 -0.0708 -0.1116 -0.6456
   41CHL1    H6 2970   4.425   5.840   7.180  0.9387  1.7907 -0.1551
   41CHL1    C7 2971   4.459   5.753   7.380  0.2018  0.6543 -0.7203
   41CHL1   H7A 2972   4.407   5.838   7.430 -2.7167 -2.5637  2.2071
   41CHL1   H7B 2973   4.384   5.671   7.374 -0.5550  1.2376  0.4205
   41CHL1    C8 2974   4.581   5.705   7.459  0.1244  0.5506  0.2281
   41CHL1    H8 2975   4.643   5.791   7.494  1.6788 -0.2828 -0.3545
   41CHL1   C14 2976   4.533   5.638   7.592 -0.4666 -0.4513 -0.4668
   41CHL1   H14 2977   4.469   5.551   7.566 -0.0056 -0.1329 -2.8968
   41CHL1   C15 2978   4.449   5.724   7.685  0.2403  0.0074 -0.3628
   41CHL1  H15A 2979   4.496   5.825   7.679 -1.5255  0.9619  0.8085
   41CHL1  H15B 2980   4.343   5.735   7.655  0.7447 -0.1892 -2.3557
   41CHL1   C16 2981   4.461   5.659   7.818  0.4037 -0.0847 -0.6551
   41CHL1  H16A 2982   4.504   5.734   7.888 -0.0758  0.6832 -1.1726
   41CHL1  H16B 2983   4.361   5.623   7.852  0.9198 -2.6783 -1.6465
   41CHL1   C17 2984   4.565   5.540   7.799 -0.4275  0.7430  0.3770
   41CHL1   H17 2985   4.508   5.453   7.761  2.2480 -1.0667  0.2438
   41CHL1   C13 2986   4.646   5.592   7.681  0.7855  0.2899  0.1792
   41CHL1   C18 2987   4.733   5.716   7.726  0.9257  0.0671 -0.2726
   41CHL1  H18A 2988   4.683   5.805   7.772 -0.9315  0.0765 -2.1782
   41CHL1  H18B 2989   4.817   5.683   7.792  0.3137 -1.9118 -0.4178
   41CHL1  H18C 2990   4.783   5.755   7.635  3.0052 -1.4433  0.1370
   41CHL1   C12 2991   4.725   5.480   7.603  0.0075 -0.6366 -0.4987
   41CHL1  H12A 2992   4.816   5.448   7.657 -0.3333 -2.4587 -0.9307
   41CHL1  H12B 2993   4.669   5.384   7.596  0.1784 -0.9336  1.5111
   41CHL1   C11 2994   4.780   5.541   7.469 -0.6209  0.4307  0.4910
   41CHL1  H11A 2995   4.864   5.608   7.499 -1.4597  1.5341  0.4463
   41CHL1  H11B 2996   4.827   5.456   7.415 -1.8125 -1.7605  2.7032
   41CHL1    C9 2997   4.675   5.609   7.376  0.0417  0.4175 -0.4753
   41CHL1    H9 2998   4.604   5.528   7.349  0.6967 -0.0061 -0.9648
   41CHL1   C10 2999   4.725   5.667   7.250 -0.4251 -0.1541  0.0218
   41CHL1   C19 3000   4.845   5.760   7.286 -0.0193 -0.0263 -0.4867
   41CHL1  H19A 3001   4.890   5.813   7.199 -0.3438 -0.0753 -0.6861
   41CHL1  H19B 3002   4.818   5.842   7.356  0.7689  0.9063 -1.2308
   41CHL1  H19C 3003   4.923   5.703   7.341 -1.4082  0.6274  2.3588
   41CHL1    C1 3004   4.782   5.554   7.157 -0.1297 -0.5732 -0.2340
   41CHL1   H1A 3005   4.868   5.514   7.214  0.7859 -1.1897 -1.9696
   41CHL1   H1B 3006   4.696   5.484   7.152  0.4187 -1.4695  1.8187
   41CHL1    C2 3007   4.822   5.603   7.021  0.5820  0.7496  0.3266
   41CHL1   H2A 3008   4.871   5.526   6.957  1.4276  2.2736 -0.9292
   41CHL1   H2B 3009   4.906   5.674   7.031 -0.4316  2.1927 -0.9763
   41CHL1   C20 3010   4.640   5.483   7.920  0.0088  0.0462 -0.1676
   41CHL1   H20 3011   4.749   5.476   7.896  0.9822  3.0032  2.6609
   41CHL1   C21 3012   4.577   5.342   7.946 -0.2603 -0.0515 -0.4847
   41CHL1  H21A 3013   4.601   5.275   7.861 -0.0881  0.1473 -0.5936
   41CHL1  H21B 3014   4.466   5.352   7.953 -0.2070  0.4126 -0.2692
   41CHL1  H21C 3015   4.621   5.294   8.036  2.9206  0.9240 -1.3775
   41CHL1   C22 3016   4.627   5.562   8.043 -0.4340 -0.5204  0.3246
   41CHL1  H22A 3017   4.681   5.656   8.016  1.1926 -1.0612  1.4944
   41CHL1  H22B 3018   4.518   5.575   8.059 -0.0330 -0.0626  3.0689
   41CHL1   C23 3019   4.686   5.511   8.177 -0.9621  0.1596  0.5307
   41CHL1  H23A 3020   4.661   5.589   8.252 -1.0149 -0.5746  1.2979
   41CHL1  H23B 3021   4.619   5.424   8.196 -1.8205  0.9092  1.0661
   41CHL1   C24 3022   4.830   5.473   8.184  0.3051 -0.4054 -0.5685
   41CHL1  H24A 3023   4.853   5.393   8.110 -0.9440 -1.0066 -0.3373
   41CHL1  H24B 3024   4.887   5.566   8.164  0.0036  0.1273  0.9586
   41CHL1   C25 3025   4.863   5.415   8.323  0.1872 -0.2901 -0.0215
   41CHL1   H25 3026   4.816   5.480   8.400 -0.6180  0.3770 -1.0393
   41CHL1   C26 3027   4.801   5.281   8.345 -0.1315 -0.3029  0.3058
   41CHL1  H26A 3028   4.834   5.245   8.445  0.4031 -0.9038 -0.0766
   41CHL1  H26B 3029   4.692   5.298   8.353 -0.0295  0.3449  0.3775
   41CHL1  H26C 3030   4.811   5.208   8.262 -2.3653 -0.1163 -0.1796
   41CHL1   C27 3031   5.017   5.407   8.346  0.2640  0.2106 -0.2311
   41CHL1  H27A 3032   5.041   5.374   8.449  0.4604 -0.6406 -0.5438
   41CHL1  H27B 3033   5.061   5.353   8.260  0.3947  0.9509 -0.6387
   41CHL1  H27C 3034   5.044   5.515   8.339 -1.4716  0.7158  0.3873
   42CHL1    C3 3035   5.343   3.366   6.624  0.4754  0.2193 -0.4213
   42CHL1    H3 3036   5.247   3.389   6.676  0.4811 -0.7295  0.0357
   42CHL1    O3 3037   5.316   3.293   6.502 -0.8123 -0.0868  0.8048
   42CHL1   H3' 3038   5.393   3.241   6.479 -1.4324 -1.6745  2.1641
   42CHL1    C4 3039   5.407   3.494   6.586 -0.1844 -0.3550 -0.3354
   42CHL1   H4A 3040   5.485   3.470   6.511 -0.9530 -0.7069 -1.0371
   42CHL1   H4B 3041   5.339   3.556   6.525 -1.4878 -0.6978  0.7035
   42CHL1    C5 3042   5.469   3.581   6.691 -0.3297 -0.7472  0.5625
   42CHL1    C6 3043   5.438   3.713   6.697 -0.3899  0.1930 -0.3566
   42CHL1    H6 3044   5.380   3.766   6.620  0.5297 -1.3355 -2.1637
   42CHL1    C7 3045   5.488   3.806   6.804 -0.0370  0.0194  0.2382
   42CHL1   H7A 3046   5.508   3.907   6.762 -1.5528 -0.2713 -1.2633
   42CHL1   H7B 3047   5.408   3.808   6.881 -0.4326 -0.8002 -0.1490
   42CHL1    C8 3048   5.603   3.747   6.889 -0.7265  0.1582  1.0655
   42CHL1    H8 3049   5.700   3.757   6.835 -1.7199 -1.8010 -1.2352
   42CHL1   C14 3050   5.606   3.815   7.023  0.1693 -0.2651 -0.0468
   42CHL1   H14 3051   5.517   3.783   7.081  1.5783  0.4033  2.6718
   42CHL1   C15 3052   5.589   3.972   7.041 -0.1236 -0.1034 -0.2290
   42CHL1  H15A 3053   5.654   4.029   6.972  1.2481 -0.5868  0.6060
   42CHL1  H15B 3054   5.480   3.986   7.030 -0.5279 -2.0986  0.6194
   42CHL1   C16 3055   5.641   3.999   7.181  0.1094 -0.4523  0.4802
   42CHL1  H16A 3056   5.741   4.046   7.174  1.1041 -2.4818  0.3050
   42CHL1  H16B 3057   5.576   4.062   7.245  1.6094  1.6346  0.0302
   42CHL1   C17 3058   5.674   3.861   7.242 -0.2327  0.2680  0.0529
   42CHL1   H17 3059   5.577   3.819   7.277  0.5985 -0.6348  1.3620
   42CHL1   C13 3060   5.721   3.777   7.120 -0.7386 -0.2065  0.4176
   42CHL1   C18 3061   5.861   3.821   7.061  0.8279 -0.3667  0.2463
   42CHL1  H18A 3062   5.872   3.803   6.952 -1.2811  1.4583 -0.3577
   42CHL1  H18B 3063   5.881   3.929   7.080 -1.0967 -0.0473  0.7069
   42CHL1  H18C 3064   5.940   3.755   7.102  0.3349 -1.2466 -0.2059
   42CHL1   C12 3065   5.715   3.621   7.135 -0.1958  0.1288  0.3689
   42CHL1  H12A 3066   5.805   3.590   7.192  0.1405 -0.4030 -0.4297
   42CHL1  H12B 3067   5.623   3.604   7.194 -0.6243  3.9489  1.0554
   42CHL1   C11 3068   5.699   3.541   7.003  0.6227  0.2861  0.3682
   42CHL1  H11A 3069   5.788   3.567   6.942  0.2352  0.7957  0.0121
   42CHL1  H11B 3070   5.683   3.432   7.009 -0.2968  0.2957 -1.3119
   42CHL1    C9 3071   5.582   3.592   6.920  0.0546  0.3687  0.6343
   42CHL1    H9 3072   5.493   3.582   6.987  1.8118 -0.1576  3.0529
   42CHL1   C10 3073   5.550   3.510   6.800 -0.4261 -0.1844  0.3715
   42CHL1   C19 3074   5.680   3.477   6.727  0.3304  0.3710  0.0463
   42CHL1  H19A 3075   5.745   3.564   6.700  1.6313 -0.6283 -0.1652
   42CHL1  H19B 3076   5.720   3.391   6.785 -0.5618 -0.1179 -0.0449
   42CHL1  H19C 3077   5.659   3.423   6.632  2.9660 -3.4224  1.3506
   42CHL1    C1 3078   5.479   3.372   6.838 -0.4156 -0.6088 -0.1525
   42CHL1   H1A 3079   5.549   3.322   6.908  0.6473 -1.2128 -1.6032
   42CHL1   H1B 3080   5.391   3.398   6.901 -0.9744  3.0206 -2.1247
   42CHL1    C2 3081   5.435   3.278   6.722  0.0030 -0.0363  0.7168
   42CHL1   H2A 3082   5.377   3.195   6.770 -0.3425  0.2156  0.7387
   42CHL1   H2B 3083   5.521   3.245   6.660  0.2420  3.0629 -0.7482
   42CHL1   C20 3084   5.772   3.880   7.362 -0.0642 -0.1418 -0.4566
   42CHL1   H20 3085   5.865   3.919   7.318 -1.2690  2.4644 -0.8559
   42CHL1   C21 3086   5.780   3.738   7.431 -0.4007 -0.3269 -0.1733
   42CHL1  H21A 3087   5.684   3.688   7.409 -0.2661 -0.2570 -0.9407
   42CHL1  H21B 3088   5.798   3.754   7.540  0.9106  0.5890 -0.4939
   42CHL1  H21C 3089   5.867   3.680   7.394 -0.2365 -0.7594  0.8514
   42CHL1   C22 3090   5.732   3.992   7.461 -0.3025 -0.6029  0.0682
   42CHL1  H22A 3091   5.725   4.089   7.408  0.0433 -1.5806 -1.8822
   42CHL1  H22B 3092   5.631   3.973   7.502 -0.9509  1.7971 -0.2796
   42CHL1   C23 3093   5.835   4.016   7.562 -0.3214  0.0445 -0.2344
   42CHL1  H23A 3094   5.845   3.925   7.625  1.1371  1.2015  1.3186
   42CHL1  H23B 3095   5.928   4.044   7.510 -2.2641  3.8173 -2.0720
   42CHL1   C24 3096   5.804   4.142   7.639  0.0035 -0.6498 -0.7893
   42CHL1  H24A 3097   5.891   4.180   7.696  0.2747 -0.4531 -1.3281
   42CHL1  H24B 3098   5.771   4.229   7.577 -0.1647  0.5480  0.9254
   42CHL1   C25 3099   5.692   4.123   7.740  0.2048  0.0579 -0.3552
   42CHL1   H25 3100   5.602   4.072   7.699 -1.8943  1.3727  2.2563
   42CHL1   C26 3101   5.739   4.050   7.872  0.1314 -0.5508 -0.3334
   42CHL1  H26A 3102   5.659   4.046   7.949 -0.5473 -3.9207 -1.0739
   42CHL1  H26B 3103   5.782   3.949   7.856  0.8236 -0.3668  0.2764
   42CHL1  H26C 3104   5.823   4.107   7.917 -1.4582  0.9215  0.9109
   42CHL1   C27 3105   5.639   4.262   7.776 -0.1460  0.3319  0.3754
   42CHL1  H27A 3106   5.719   4.314   7.832  0.4249  0.7163 -0.7652
   42CHL1  H27B 3107   5.544   4.262   7.834 -0.7951 -2.3192 -0.5300
   42CHL1  H27C 3108   5.618   4.320   7.683  1.9017  1.4693  0.5774
   43CHL1    C3 3109   6.419   0.910   6.870 -0.0401 -0.2182  0.7360
   43CHL1    H3 3110   6.321   0.960   6.889  0.1808  0.1474  0.9380
   43CHL1    O3 3111   6.441   0.884   6.731 -0.8338  0.1649 -0.1354
   43CHL1   H3' 3112   6.413   0.965   6.687  2.3968  0.4984 -1.9174
   43CHL1    C4 3113   6.521   1.008   6.927  0.2720  0.1772 -0.1834
   43CHL1   H4A 3114   6.627   0.977   6.912  0.7102  0.4353  2.0678
   43CHL1   H4B 3115   6.503   1.105   6.876 -4.3985 -0.6214 -0.5031
   43CHL1    C5 3116   6.491   1.022   7.077  0.2856 -0.2029  0.2589
   43CHL1    C6 3117   6.479   1.145   7.131  0.0865  0.0441 -0.4610
   43CHL1    H6 3118   6.502   1.229   7.063 -0.4312  0.2771 -0.3582
   43CHL1    C7 3119   6.462   1.169   7.280 -0.0885  0.2429  0.0102
   43CHL1   H7A 3120   6.545   1.237   7.309 -1.6601  2.5994 -0.7532
   43CHL1   H7B 3121   6.365   1.222   7.284 -1.4252 -2.1128  0.9042
   43CHL1    C8 3122   6.469   1.039   7.377  0.6233  0.2292 -0.6241
   43CHL1    H8 3123   6.578   1.018   7.386  0.2992 -0.5572  2.3717
   43CHL1   C14 3124   6.409   1.071   7.513 -0.0007  0.4942  0.1204
   43CHL1   H14 3125   6.300   1.087   7.499 -0.4330 -0.1277  2.4014
   43CHL1   C15 3126   6.460   1.193   7.585 -0.3942  0.0204 -0.0610
   43CHL1  H15A 3127   6.571   1.203   7.582 -0.4569  0.5515 -0.7008
   43CHL1  H15B 3128   6.418   1.284   7.537  0.6053 -0.8438 -2.7410
   43CHL1   C16 3129   6.406   1.162   7.724  0.0162 -0.1956 -0.3013
   43CHL1  H16A 3130   6.498   1.162   7.786  0.5919  0.6833 -1.1296
   43CHL1  H16B 3131   6.342   1.242   7.766  1.8273  0.7582  0.7604
   43CHL1   C17 3132   6.342   1.020   7.731  0.1493  0.2770 -0.3577
   43CHL1   H17 3133   6.234   1.036   7.713 -0.3954 -1.8575  0.6825
   43CHL1   C13 3134   6.405   0.944   7.608 -0.0780 -0.6815  0.0977
   43CHL1   C18 3135   6.548   0.896   7.641 -0.4444 -0.1962  0.6647
   43CHL1  H18A 3136   6.547   0.829   7.729 -0.0943 -2.2237 -0.8127
   43CHL1  H18B 3137   6.590   0.849   7.549  0.0063  0.0796  0.7295
   43CHL1  H18C 3138   6.613   0.983   7.662 -0.3874 -0.1916  0.4713
   43CHL1   C12 3139   6.328   0.832   7.532 -0.4881  0.8640 -0.0285
   43CHL1  H12A 3140   6.338   0.744   7.599  1.9084 -1.0260 -2.6233
   43CHL1  H12B 3141   6.225   0.864   7.507 -0.7741 -0.0990 -0.1206
   43CHL1   C11 3142   6.398   0.792   7.396 -0.1192 -0.1196 -0.6285
   43CHL1  H11A 3143   6.493   0.738   7.416 -1.0194 -1.3321  0.5234
   43CHL1  H11B 3144   6.332   0.718   7.346 -2.0124  1.9631 -1.4008
   43CHL1    C9 3145   6.405   0.918   7.306 -0.0283  0.1052 -1.3267
   43CHL1    H9 3146   6.298   0.945   7.293 -0.2822  0.3252  0.8845
   43CHL1   C10 3147   6.469   0.891   7.162  0.9186  0.7968  0.3412
   43CHL1   C19 3148   6.602   0.815   7.185  0.2787  0.0317  0.0415
   43CHL1  H19A 3149   6.633   0.773   7.087 -1.8954  1.6851 -1.4390
   43CHL1  H19B 3150   6.675   0.876   7.241 -1.5672  0.1789  2.4643
   43CHL1  H19C 3151   6.582   0.722   7.244  1.5264 -1.4169 -1.7114
   43CHL1    C1 3152   6.362   0.801   7.087 -0.1795 -0.2426 -0.7806
   43CHL1   H1A 3153   6.356   0.707   7.146  0.0493  1.0264  1.3650
   43CHL1   H1B 3154   6.267   0.857   7.092  0.0312  0.0079  2.3469
   43CHL1    C2 3155   6.412   0.780   6.940  0.2828  0.2642  0.2396
   43CHL1   H2A 3156   6.340   0.722   6.877  3.0213  0.1682 -3.1380
   43CHL1   H2B 3157   6.511   0.729   6.927 -1.0739 -2.3224 -0.7576
   43CHL1   C20 3158   6.353   0.968   7.877 -0.0942  0.4478  0.5650
   43CHL1   H20 3159   6.461   0.956   7.901 -0.5581 -1.3016  1.9996
   43CHL1   C21 3160   6.298   0.821   7.874 -0.4065 -0.3511  0.0955
   43CHL1  H21A 3161   6.370   0.748   7.834 -0.1782 -0.6260  0.9796
   43CHL1  H21B 3162   6.200   0.806   7.824 -1.9267 -1.6742  3.1727
   43CHL1  H21C 3163   6.296   0.790   7.981 -0.8273 -1.7696 -0.3145
   43CHL1   C22 3164   6.264   1.042   7.980  0.0878  0.3561 -0.4251
   43CHL1  H22A 3165   6.255   1.152   7.974 -3.2320  0.1727 -1.0528
   43CHL1  H22B 3166   6.163   0.996   7.981 -0.2403  1.0278 -1.2588
   43CHL1   C23 3167   6.329   1.025   8.125  0.0713 -0.5793 -0.3592
   43CHL1  H23A 3168   6.360   0.918   8.134 -0.3356 -0.6435  0.4134
   43CHL1  H23B 3169   6.414   1.096   8.132  0.5966 -1.2692  0.7023
   43CHL1   C24 3170   6.231   1.065   8.236  0.4769 -0.2477 -0.0655
   43CHL1  H24A 3171   6.235   1.174   8.255  1.8972 -0.1021 -1.1178
   43CHL1  H24B 3172   6.128   1.033   8.208  1.3106 -1.8998 -1.4171
   43CHL1   C25 3173   6.260   0.984   8.362  0.7671  0.4900 -0.0219
   43CHL1   H25 3174   6.264   0.877   8.333  0.4827  0.2278  0.8928
   43CHL1   C26 3175   6.387   1.023   8.437 -0.4027 -0.2525 -0.1568
   43CHL1  H26A 3176   6.374   1.128   8.472  1.1186  0.7830 -2.4529
   43CHL1  H26B 3177   6.409   0.946   8.514 -0.0201  1.3480  1.4292
   43CHL1  H26C 3178   6.472   1.020   8.365 -0.2773  1.3113 -0.1161
   43CHL1   C27 3179   6.145   0.998   8.462  0.7553 -0.5376  0.2916
   43CHL1  H27A 3180   6.046   0.998   8.412  1.7285 -2.0741 -1.7816
   43CHL1  H27B 3181   6.152   0.914   8.535  1.8056 -1.8036 -1.2163
   43CHL1  H27C 3182   6.150   1.098   8.510 -0.1668  0.8552 -2.3501
   44CHL1    C3 3183   5.972   0.357   6.595 -0.3943 -0.0854 -0.4309
   44CHL1    H3 3184   5.996   0.251   6.618  1.1967  0.5680  1.1632
   44CHL1    O3 3185   5.997   0.379   6.457 -0.2094  0.3396 -0.3867
   44CHL1   H3' 3186   5.935   0.447   6.430  0.6889  0.2947 -2.8239
   44CHL1    C4 3187   5.836   0.406   6.646 -1.0096 -0.1940  0.5983
   44CHL1   H4A 3188   5.824   0.510   6.608 -2.3556 -0.9506 -1.2129
   44CHL1   H4B 3189   5.760   0.353   6.585  0.7857 -0.8227 -1.2061
   44CHL1    C5 3190   5.817   0.387   6.800  0.3883 -0.1012 -0.4775
   44CHL1    C6 3191   5.716   0.319   6.861  0.0094  0.2525 -0.0713
   44CHL1    H6 3192   5.638   0.276   6.796 -1.3067 -2.0603  2.7751
   44CHL1    C7 3193   5.699   0.302   7.013  0.8823  0.2005  0.5459
   44CHL1   H7A 3194   5.593   0.310   7.046 -0.0148  2.8249 -2.4453
   44CHL1   H7B 3195   5.745   0.205   7.041 -1.1568 -0.7060  0.9646
   44CHL1    C8 3196   5.785   0.408   7.083  0.1337  0.1170 -0.1520
   44CHL1    H8 3197   5.728   0.503   7.080 -3.4683 -1.7916  1.3459
   44CHL1   C14 3198   5.798   0.356   7.227 -0.1542  0.2679  0.6514
   44CHL1   H14 3199   5.859   0.262   7.223  1.3973  1.2564 -2.7299
   44CHL1   C15 3200   5.669   0.334   7.305  0.2558  0.6413  0.4064
   44CHL1  H15A 3201   5.599   0.414   7.272 -0.1146 -0.3831 -1.3970
   44CHL1  H15B 3202   5.624   0.236   7.280  1.3122  0.3740 -0.5157
   44CHL1   C16 3203   5.715   0.338   7.452 -0.1368 -0.6225 -0.2533
   44CHL1  H16A 3204   5.644   0.403   7.507 -0.2786  1.3883 -2.6669
   44CHL1  H16B 3205   5.706   0.236   7.497  1.0931 -0.5922  0.1065
   44CHL1   C17 3206   5.865   0.383   7.447 -0.1111  0.3684 -0.6354
   44CHL1   H17 3207   5.924   0.290   7.446 -0.4258  0.1146  0.8110
   44CHL1   C13 3208   5.878   0.455   7.312  0.7477  0.0233  0.0214
   44CHL1   C18 3209   5.809   0.592   7.329 -1.2182  0.2847 -0.0914
   44CHL1  H18A 3210   5.866   0.663   7.393 -0.5542  1.9093 -2.3300
   44CHL1  H18B 3211   5.792   0.640   7.230  0.2796  0.3546 -0.3463
   44CHL1  H18C 3212   5.710   0.585   7.378 -0.8924  0.0977  0.5441
   44CHL1   C12 3213   6.019   0.469   7.257  0.5974  0.4296  0.4214
   44CHL1  H12A 3214   6.072   0.546   7.317  0.5043 -0.3067  1.4717
   44CHL1  H12B 3215   6.057   0.367   7.276 -0.5987  0.4238  3.3256
   44CHL1   C11 3216   6.024   0.508   7.109 -0.0999 -0.7683 -0.1030
   44CHL1  H11A 3217   5.992   0.614   7.122  1.8261 -0.0634 -0.7810
   44CHL1  H11B 3218   6.129   0.501   7.075 -0.3902 -0.4924 -1.0862
   44CHL1    C9 3219   5.931   0.420   7.025  0.2515  0.2199 -0.3425
   44CHL1    H9 3220   5.975   0.318   7.032  0.2506  0.1964 -0.6570
   44CHL1   C10 3221   5.928   0.456   6.882 -0.3728 -0.3046 -0.6519
   44CHL1   C19 3222   5.901   0.611   6.865 -0.8376  0.5792 -0.0432
   44CHL1  H19A 3223   5.909   0.640   6.758 -0.3267  2.3714  0.4429
   44CHL1  H19B 3224   5.800   0.634   6.908 -1.0780 -1.9486  0.8895
   44CHL1  H19C 3225   5.982   0.663   6.921  0.8644 -1.9937  0.0323
   44CHL1    C1 3226   6.070   0.419   6.823 -0.1704  0.1640  0.2276
   44CHL1   H1A 3227   6.144   0.492   6.863 -0.6039  0.1827  0.9977
   44CHL1   H1B 3228   6.099   0.318   6.859  1.4206  0.5228  0.0675
   44CHL1    C2 3229   6.083   0.429   6.674 -0.5233 -0.3410  0.3466
   44CHL1   H2A 3230   6.183   0.396   6.636  1.7429  4.1427  1.6412
   44CHL1   H2B 3231   6.088   0.537   6.647 -0.0249 -0.5810 -0.5805
   44CHL1   C20 3232   5.919   0.455   7.580  0.5516 -0.2157  0.3611
   44CHL1   H20 3233   5.886   0.561   7.572  1.3302 -0.0137 -0.2537
   44CHL1   C21 3234   6.072   0.454   7.583  0.0659 -0.4460 -0.4288
   44CHL1  H21A 3235   6.106   0.354   7.547  0.9215  0.3447 -1.8795
   44CHL1  H21B 3236   6.109   0.490   7.682 -2.2782  0.4777  0.1834
   44CHL1  H21C 3237   6.124   0.512   7.505  1.3336  0.5208  1.0793
   44CHL1   C22 3238   5.858   0.398   7.712 -1.0673  0.0563  1.1022
   44CHL1  H22A 3239   5.890   0.474   7.787 -0.0630  0.1602  0.5917
   44CHL1  H22B 3240   5.747   0.401   7.711 -1.0664  1.2758 -1.0837
   44CHL1   C23 3241   5.918   0.258   7.734 -0.1924  0.1618  0.4511
   44CHL1  H23A 3242   5.855   0.193   7.669 -1.4210  0.4507  1.3098
   44CHL1  H23B 3243   6.028   0.253   7.717 -0.1615 -0.7170  0.8511
   44CHL1   C24 3244   5.885   0.205   7.878  0.1640 -0.3991 -0.1336
   44CHL1  H24A 3245   5.774   0.196   7.883  0.0224  1.4553  0.7669
   44CHL1  H24B 3246   5.926   0.102   7.870 -1.0299 -0.9944  0.9180
   44CHL1   C25 3247   5.954   0.275   7.996 -0.4966 -0.2838 -0.0935
   44CHL1   H25 3248   5.925   0.382   7.999  0.1968 -0.0901 -0.2054
   44CHL1   C26 3249   5.915   0.198   8.125 -0.3200 -1.0260 -0.3469
   44CHL1  H26A 3250   5.805   0.185   8.133 -0.4562 -0.5067 -1.2338
   44CHL1  H26B 3251   5.952   0.093   8.130  0.6175 -0.8143 -2.0318
   44CHL1  H26C 3252   5.949   0.256   8.214  1.0317  0.8008 -1.9495
   44CHL1   C27 3253   6.101   0.259   7.985 -0.1654 -0.6841 -0.2831
   44CHL1  H27A 3254   6.136   0.335   7.913 -0.8985 -0.8289 -0.8147
   44CHL1  H27B 3255   6.147   0.276   8.085 -3.7785 -0.8929  1.5905
   44CHL1  H27C 3256   6.144   0.161   7.953  0.1151 -1.5575  2.4519
   45CHL1    C3 3257   0.522   5.423   6.756  0.2576 -0.3053  0.1518
   45CHL1    H3 3258   0.486   5.319   6.774  0.0231 -0.6804 -2.2241
   45CHL1    O3 3259   0.519   5.458   6.616  0.1272  0.0880 -0.3592
   45CHL1   H3' 3260   0.576   5.397   6.568 -2.0947 -1.4693 -1.1928
   45CHL1    C4 3261   0.432   5.523   6.828 -0.0903  0.7633 -0.2182
   45CHL1   H4A 3262   0.476   5.621   6.800  1.8311  0.3783  1.2868
   45CHL1   H4B 3263   0.329   5.515   6.787  1.1977  0.5056 -3.7849
   45CHL1    C5 3264   0.450   5.495   6.976  0.0970 -0.2278 -0.0806
   45CHL1    C6 3265   0.342   5.456   7.048 -0.8461 -0.7793 -1.0532
   45CHL1    H6 3266   0.242   5.443   7.005 -1.6324  3.1439 -0.7722
   45CHL1    C7 3267   0.346   5.441   7.193 -0.0352  0.4386 -0.3017
   45CHL1   H7A 3268   0.259   5.490   7.241  0.8821  4.4629 -2.2816
   45CHL1   H7B 3269   0.337   5.333   7.216  0.7375  1.0166  3.4233
   45CHL1    C8 3270   0.473   5.490   7.264 -0.5983  0.2615  0.4204
   45CHL1    H8 3271   0.468   5.597   7.292 -0.4926  0.5721 -0.7322
   45CHL1   C14 3272   0.469   5.425   7.398 -0.1276  0.4363 -0.7205
   45CHL1   H14 3273   0.481   5.316   7.380 -1.0666 -0.2132  2.1454
   45CHL1   C15 3274   0.347   5.447   7.484 -0.0116  0.9280 -0.5889
   45CHL1  H15A 3275   0.320   5.555   7.486  0.9668  1.2254 -1.8014
   45CHL1  H15B 3276   0.266   5.380   7.449  1.6513 -0.4253 -2.0786
   45CHL1   C16 3277   0.389   5.394   7.620 -0.3021  0.7714  0.1049
   45CHL1  H16A 3278   0.362   5.464   7.702  0.2690  1.1377 -0.0147
   45CHL1  H16B 3279   0.346   5.294   7.642  1.9049 -0.7166 -1.8973
   45CHL1   C17 3280   0.549   5.374   7.614  0.4588 -0.3301  0.0080
   45CHL1   H17 3281   0.577   5.268   7.595 -0.9188 -1.2376  2.4906
   45CHL1   C13 3282   0.585   5.452   7.489 -0.4355 -0.2499  0.4774
   45CHL1   C18 3283   0.589   5.610   7.523  0.3519 -0.5168 -0.2766
   45CHL1  H18A 3284   0.671   5.629   7.595  0.7519 -1.1063 -0.5741
   45CHL1  H18B 3285   0.603   5.672   7.432 -0.9699 -0.8472 -0.7306
   45CHL1  H18C 3286   0.497   5.643   7.576  0.4988  0.3383 -0.5401
   45CHL1   C12 3287   0.718   5.416   7.413 -0.6473 -0.0150 -0.1498
   45CHL1  H12A 3288   0.803   5.459   7.469 -2.1437 -1.1773  3.3211
   45CHL1  H12B 3289   0.731   5.306   7.402  1.3551  0.2502 -0.8241
   45CHL1   C11 3290   0.728   5.483   7.273  0.1625  0.1670  0.2106
   45CHL1  H11A 3291   0.737   5.593   7.281  3.4918  0.1024 -1.1441
   45CHL1  H11B 3292   0.818   5.448   7.217 -0.4206 -0.8777 -0.1020
   45CHL1    C9 3293   0.601   5.454   7.192  0.5630 -0.0365  0.4282
   45CHL1    H9 3294   0.596   5.343   7.191  0.8661 -0.0795  2.0378
   45CHL1   C10 3295   0.590   5.508   7.043  0.2962 -0.3394  0.5264
   45CHL1   C19 3296   0.644   5.649   7.038 -0.0411 -0.7319  0.6374
   45CHL1  H19A 3297   0.586   5.711   7.109 -1.6992 -0.7362 -0.6542
   45CHL1  H19B 3298   0.751   5.652   7.068 -0.2541  1.2329  1.3304
   45CHL1  H19C 3299   0.629   5.688   6.935 -0.3990  0.3391  1.0845
   45CHL1    C1 3300   0.673   5.415   6.958  0.3923  0.7501 -0.0683
   45CHL1   H1A 3301   0.782   5.419   6.978  0.5130 -1.8561  0.1103
   45CHL1   H1B 3302   0.642   5.311   6.977  0.0522  0.6650 -0.9993
   45CHL1    C2 3303   0.666   5.430   6.803 -0.2664  0.4404 -0.2109
   45CHL1   H2A 3304   0.717   5.346   6.752 -1.5325 -0.3164 -0.2758
   45CHL1   H2B 3305   0.697   5.534   6.778 -0.1197 -0.2763 -3.2697
   45CHL1   C20 3306   0.626   5.392   7.750  0.2668  0.1877 -0.3655
   45CHL1   H20 3307   0.635   5.499   7.780 -0.7715  0.5855 -1.3963
   45CHL1   C21 3308   0.770   5.352   7.729  0.1658 -0.0796  0.0037
   45CHL1  H21A 3309   0.777   5.256   7.675  0.3666 -0.2271  0.2929
   45CHL1  H21B 3310   0.822   5.361   7.826 -1.2968  0.5349  0.7604
   45CHL1  H21C 3311   0.820   5.428   7.664 -0.8529 -0.7771 -1.6696
   45CHL1   C22 3312   0.557   5.310   7.863  0.5023  1.3197  0.2656
   45CHL1  H22A 3313   0.451   5.339   7.880  0.7183  1.1401  2.2099
   45CHL1  H22B 3314   0.543   5.209   7.818 -0.3149  1.5867 -0.1104
   45CHL1   C23 3315   0.633   5.315   7.998  0.7533  0.1336  0.4535
   45CHL1  H23A 3316   0.728   5.258   7.988  0.7153  0.2188 -0.4894
   45CHL1  H23B 3317   0.662   5.422   8.006  1.2823 -0.0310  0.8058
   45CHL1   C24 3318   0.544   5.275   8.111  0.1973  0.1707 -0.6272
   45CHL1  H24A 3319   0.459   5.346   8.103 -1.6293 -1.3919  2.6513
   45CHL1  H24B 3320   0.484   5.187   8.080 -3.9136  1.9800  1.3609
   45CHL1   C25 3321   0.605   5.260   8.253 -0.6625 -0.0301  0.0270
   45CHL1   H25 3322   0.696   5.199   8.236 -0.5321  0.7480 -2.4134
   45CHL1   C26 3323   0.645   5.396   8.301 -0.0342  0.3873 -0.0017
   45CHL1  H26A 3324   0.699   5.387   8.398 -1.0266 -2.7407  0.3947
   45CHL1  H26B 3325   0.706   5.452   8.227  0.7748  0.5954  0.8048
   45CHL1  H26C 3326   0.545   5.443   8.314 -0.2150 -0.6459  3.1791
   45CHL1   C27 3327   0.505   5.190   8.351 -0.0963 -0.2820  0.6171
   45CHL1  H27A 3328   0.456   5.106   8.299 -2.8891  1.4813  0.1770
   45CHL1  H27B 3329   0.560   5.143   8.436  2.0117 -0.6639 -0.8853
   45CHL1  H27C 3330   0.422   5.255   8.385 -2.3871 -1.7062 -1.8984
   46CHL1    C3 3331   6.612   6.214   6.531 -0.2774 -0.5069  0.9310
   46CHL1    H3 3332   6.577   6.109   6.523  0.0979 -0.5422 -0.5294
   46CHL1    O3 3333   6.629   6.270   6.400  0.4951 -0.2023  0.0108
   46CHL1   H3' 3334   6.721   6.261   6.374  0.7029  1.0850  0.2611
   46CHL1    C4 3335   6.497   6.289   6.604 -0.1587 -0.2631 -0.0274
   46CHL1   H4A 3336   6.520   6.397   6.596 -1.3740  0.0416  0.2822
   46CHL1   H4B 3337   6.400   6.271   6.552 -0.8257  0.9725  0.7456
   46CHL1    C5 3338   6.500   6.258   6.753  0.3165  0.2186 -1.0805
   46CHL1    C6 3339   6.388   6.215   6.810 -0.4564  0.1318 -0.4494
   46CHL1    H6 3340   6.297   6.210   6.748  0.5010 -3.1695 -1.7841
   46CHL1    C7 3341   6.379   6.191   6.960  0.4726  0.9936 -0.2501
   46CHL1   H7A 3342   6.285   6.240   6.993  0.3450  0.6626 -0.1170
   46CHL1   H7B 3343   6.368   6.081   6.977 -1.3173  1.3922  1.6319
   46CHL1    C8 3344   6.495   6.242   7.047 -0.0701  0.2703 -0.2520
   46CHL1    H8 3345   6.474   6.351   7.052 -2.1279 -0.1222  3.6410
   46CHL1   C14 3346   6.485   6.181   7.185 -0.1057  1.1392  0.5631
   46CHL1   H14 3347   6.496   6.072   7.169 -0.1207  1.1733  0.3184
   46CHL1   C15 3348   6.354   6.194   7.264  0.2707 -0.2909  0.4864
   46CHL1  H15A 3349   6.319   6.297   7.244  0.7329  0.1440  1.7790
   46CHL1  H15B 3350   6.275   6.123   7.233  0.9194 -1.0355  0.5062
   46CHL1   C16 3351   6.401   6.180   7.410 -0.0944  0.2739 -0.2337
   46CHL1  H16A 3352   6.374   6.276   7.457  1.2524  0.8414 -0.5667
   46CHL1  H16B 3353   6.342   6.097   7.455  0.5078 -0.5560 -0.9398
   46CHL1   C17 3354   6.556   6.158   7.408  0.3683 -0.8413 -0.3242
   46CHL1   H17 3355   6.573   6.048   7.406 -0.2727 -0.9435 -1.6880
   46CHL1   C13 3356   6.604   6.220   7.278  0.8280  0.4945 -0.4064
   46CHL1   C18 3357   6.608   6.375   7.299 -0.5213  0.6517 -0.0069
   46CHL1  H18A 3358   6.542   6.429   7.370 -0.7917  0.3756 -0.0459
   46CHL1  H18B 3359   6.709   6.404   7.333 -0.4400  3.8766 -2.4718
   46CHL1  H18C 3360   6.591   6.431   7.204 -0.0112  1.6748  0.4928
   46CHL1   C12 3361   6.729   6.162   7.214 -0.1515 -0.0188 -0.3101
   46CHL1  H12A 3362   6.824   6.184   7.267 -0.1461  0.3668 -0.4738
   46CHL1  H12B 3363   6.720   6.051   7.216  1.3021 -0.1514  0.1368
   46CHL1   C11 3364   6.748   6.225   7.074  0.0378  0.5449 -0.5820
   46CHL1  H11A 3365   6.772   6.332   7.087 -0.9245  0.4997  2.1968
   46CHL1  H11B 3366   6.828   6.161   7.029 -1.4985 -2.3925  0.5725
   46CHL1    C9 3367   6.623   6.201   6.979  0.6386  0.3569 -0.5029
   46CHL1    H9 3368   6.609   6.092   6.966  0.6579  0.0906  1.4050
   46CHL1   C10 3369   6.631   6.274   6.841 -0.0776 -0.7836 -0.5298
   46CHL1   C19 3370   6.675   6.422   6.854 -0.2441  0.0701  0.4382
   46CHL1  H19A 3371   6.774   6.451   6.894  0.5956  1.2750 -2.2202
   46CHL1  H19B 3372   6.656   6.470   6.755  0.1566  1.8562  1.2074
   46CHL1  H19C 3373   6.595   6.482   6.903  1.4595  1.6139  1.4169
   46CHL1    C1 3374   6.743   6.206   6.760 -0.3218  0.1432 -0.1544
   46CHL1   H1A 3375   6.836   6.248   6.805 -1.6462  1.2094  1.7283
   46CHL1   H1B 3376   6.746   6.096   6.773  0.6352 -0.0666 -1.8845
   46CHL1    C2 3377   6.742   6.235   6.606  0.4774  0.9546 -0.2835
   46CHL1   H2A 3378   6.814   6.165   6.558 -2.3196 -1.3549 -1.4241
   46CHL1   H2B 3379   6.781   6.337   6.588  1.5340  0.5405 -0.4192
   46CHL1   C20 3380   6.625   6.200   7.545 -0.2406 -0.0293  0.2598
   46CHL1   H20 3381   6.645   6.309   7.546  1.8362 -0.3586 -0.2237
   46CHL1   C21 3382   6.764   6.132   7.550  0.1398 -0.5744  0.3280
   46CHL1  H21A 3383   6.815   6.169   7.458 -0.5946  0.8541  0.4621
   46CHL1  H21B 3384   6.748   6.023   7.545 -1.8878 -0.4675  2.7705
   46CHL1  H21C 3385   6.810   6.160   7.648 -1.1202 -0.1972  0.8325
   46CHL1   C22 3386   6.542   6.170   7.668 -0.0657 -0.6046 -0.0665
   46CHL1  H22A 3387   6.442   6.214   7.649  0.0497 -0.7396 -0.9961
   46CHL1  H22B 3388   6.542   6.059   7.662  1.9750 -0.5653 -3.7653
   46CHL1   C23 3389   6.611   6.228   7.795  0.3514  0.0068 -0.2738
   46CHL1  H23A 3390   6.705   6.176   7.823 -1.7893 -1.8530  4.3584
   46CHL1  H23B 3391   6.620   6.338   7.786  0.5857 -0.0646 -1.0516
   46CHL1   C24 3392   6.513   6.194   7.910 -0.5474 -0.8469 -0.3517
   46CHL1  H24A 3393   6.409   6.223   7.882 -0.7827  2.8962  3.2537
   46CHL1  H24B 3394   6.518   6.088   7.944  1.5499 -0.5285  0.4535
   46CHL1   C25 3395   6.546   6.283   8.032  0.0433  0.2968  0.1701
   46CHL1   H25 3396   6.521   6.385   7.996 -3.6814 -0.5453 -0.0974
   46CHL1   C26 3397   6.448   6.240   8.145 -0.2112  0.0173 -0.2166
   46CHL1  H26A 3398   6.461   6.132   8.168  0.1602  0.2565  0.7496
   46CHL1  H26B 3399   6.467   6.305   8.233  0.2785  0.6293 -0.7603
   46CHL1  H26C 3400   6.345   6.253   8.105 -0.6075 -0.1317  0.7259
   46CHL1   C27 3401   6.688   6.270   8.083  0.1317  0.0707  1.1034
   46CHL1  H27A 3402   6.699   6.343   8.166 -0.4093  3.1965 -1.3992
   46CHL1  H27B 3403   6.707   6.167   8.123  0.5803 -0.1293  0.3943
   46CHL1  H27C 3404   6.762   6.294   8.003 -1.2965  2.2288  0.3582
   47CHL1    C3 3405   6.068   6.659   6.648  0.1167  0.5367 -0.8852
   47CHL1    H3 3406   6.029   6.563   6.689  2.3003 -0.6923 -1.5660
   47CHL1    O3 3407   6.032   6.678   6.517 -0.1019  0.2680 -0.3747
   47CHL1   H3' 3408   5.938   6.659   6.527 -0.1030 -0.1091 -1.0755
   47CHL1    C4 3409   6.009   6.773   6.735  0.7068 -0.0114 -0.4331
   47CHL1   H4A 3410   6.062   6.864   6.701 -0.6768  1.5037  1.2815
   47CHL1   H4B 3411   5.905   6.796   6.704 -0.1068  0.2429  2.2178
   47CHL1    C5 3412   6.023   6.745   6.880  0.3400 -0.3031  0.2270
   47CHL1    C6 3413   5.918   6.734   6.965  0.2613  0.7914  0.2981
   47CHL1    H6 3414   5.816   6.740   6.922 -0.2431 -3.1329  0.5656
   47CHL1    C7 3415   5.925   6.713   7.112 -0.7247 -0.4030  0.1368
   47CHL1   H7A 3416   5.860   6.782   7.169 -0.2074  0.1363  0.0818
   47CHL1   H7B 3417   5.897   6.609   7.140 -0.9251 -0.3088  0.2884
   47CHL1    C8 3418   6.076   6.739   7.160 -0.1213  0.2683 -0.0284
   47CHL1    H8 3419   6.091   6.849   7.165 -0.1471  0.2344  1.0188
   47CHL1   C14 3420   6.092   6.682   7.301  0.4782  0.1708 -0.6318
   47CHL1   H14 3421   6.060   6.576   7.291 -0.0840  0.1556  0.9788
   47CHL1   C15 3422   5.981   6.723   7.400 -0.1411  0.1524  0.0784
   47CHL1  H15A 3423   5.954   6.830   7.400 -0.7117  0.0174 -0.8806
   47CHL1  H15B 3424   5.886   6.667   7.382  0.4654 -0.3682 -1.7354
   47CHL1   C16 3425   6.050   6.681   7.524  0.7049  0.4945  0.0224
   47CHL1  H16A 3426   6.048   6.773   7.586  0.7819 -0.2494  1.1676
   47CHL1  H16B 3427   5.984   6.607   7.574  0.6267  0.2478 -0.4456
   47CHL1   C17 3428   6.187   6.613   7.491 -0.2371 -0.0486 -0.5619
   47CHL1   H17 3429   6.169   6.504   7.476 -0.1751 -0.0312 -0.7578
   47CHL1   C13 3430   6.227   6.676   7.365  0.2080 -0.5301  0.2783
   47CHL1   C18 3431   6.282   6.818   7.388  0.1636 -0.6833  0.5796
   47CHL1  H18A 3432   6.382   6.813   7.436  0.1525  0.2752  0.7282
   47CHL1  H18B 3433   6.300   6.877   7.296  3.2629  1.0043  2.1068
   47CHL1  H18C 3434   6.218   6.880   7.455  0.6450 -1.2245  1.5736
   47CHL1   C12 3435   6.315   6.594   7.267  0.0043 -0.5031  0.1355
   47CHL1  H12A 3436   6.422   6.593   7.298  0.2396 -0.1891 -0.6465
   47CHL1  H12B 3437   6.284   6.487   7.257  0.9921 -0.7069 -0.8900
   47CHL1   C11 3438   6.319   6.651   7.121  0.0923 -0.5189  0.8651
   47CHL1  H11A 3439   6.391   6.734   7.117 -0.3143 -0.1953 -0.1669
   47CHL1  H11B 3440   6.363   6.564   7.068 -2.0000 -1.9759  1.3757
   47CHL1    C9 3441   6.171   6.666   7.069 -0.4897 -0.0452 -0.5433
   47CHL1    H9 3442   6.127   6.564   7.071 -1.5040  0.3708 -0.7531
   47CHL1   C10 3443   6.170   6.723   6.927 -0.2720 -0.1414  0.4436
   47CHL1   C19 3444   6.251   6.858   6.923  0.3818  0.7766 -0.0092
   47CHL1  H19A 3445   6.357   6.843   6.952  0.8955  0.3656 -1.9504
   47CHL1  H19B 3446   6.254   6.907   6.823 -1.8070 -0.9487 -1.0365
   47CHL1  H19C 3447   6.204   6.928   6.996 -0.4408  0.8139 -0.5550
   47CHL1    C1 3448   6.243   6.629   6.830 -0.5771  0.2253  0.5805
   47CHL1   H1A 3449   6.350   6.649   6.849 -0.2624 -1.4130  0.6763
   47CHL1   H1B 3450   6.239   6.522   6.861 -2.7440 -0.0686 -0.5193
   47CHL1    C2 3451   6.219   6.651   6.677  0.0640  0.7079 -0.4565
   47CHL1   H2A 3452   6.267   6.562   6.631  0.3731 -0.1495  1.4265
   47CHL1   H2B 3453   6.257   6.750   6.643  1.6170 -0.4139 -2.1406
   47CHL1   C20 3454   6.276   6.619   7.622 -0.8743  0.5484  1.0113
   47CHL1   H20 3455   6.308   6.724   7.637  1.3992  0.0439  0.1609
   47CHL1   C21 3456   6.408   6.545   7.591  0.0300 -0.2674  0.6270
   47CHL1  H21A 3457   6.465   6.591   7.507 -2.4205 -1.1903 -1.6781
   47CHL1  H21B 3458   6.377   6.440   7.573  0.4327 -0.4034  0.7158
   47CHL1  H21C 3459   6.483   6.542   7.673  1.4960 -0.3028 -0.6723
   47CHL1   C22 3460   6.207   6.569   7.749  0.2722 -0.0107 -1.0977
   47CHL1  H22A 3461   6.120   6.637   7.765  1.4089  1.0716  0.8295
   47CHL1  H22B 3462   6.175   6.463   7.742 -1.9785  0.6297 -1.2947
   47CHL1   C23 3463   6.298   6.578   7.876 -0.2894  0.2392  0.4002
   47CHL1  H23A 3464   6.359   6.485   7.880 -0.0394  0.2806 -1.5911
   47CHL1  H23B 3465   6.367   6.662   7.853 -0.4488 -0.0214 -1.1196
   47CHL1   C24 3466   6.231   6.624   8.009  0.5670 -0.0114 -0.8795
   47CHL1  H24A 3467   6.316   6.664   8.068 -0.0759  3.9711 -2.3066
   47CHL1  H24B 3468   6.168   6.716   8.004  1.9828  1.0724  0.2713
   47CHL1   C25 3469   6.150   6.514   8.090 -0.2987 -0.1352 -0.3026
   47CHL1   H25 3470   6.227   6.442   8.125 -1.4153 -0.1851  2.2850
   47CHL1   C26 3471   6.089   6.570   8.216  0.9533 -0.3962 -0.2809
   47CHL1  H26A 3472   6.161   6.627   8.277  2.4190 -0.3966 -1.9223
   47CHL1  H26B 3473   6.006   6.640   8.193  1.2377  0.0412  0.0160
   47CHL1  H26C 3474   6.040   6.492   8.279 -0.6521  0.4314 -0.4416
   47CHL1   C27 3475   6.041   6.464   8.001  0.5518 -0.8713 -0.4877
   47CHL1  H27A 3476   5.951   6.411   8.039 -0.8037 -0.9856 -3.5403
   47CHL1  H27B 3477   6.000   6.537   7.928 -0.8579  0.0099  1.1055
   47CHL1  H27C 3478   6.093   6.389   7.938  0.2317 -1.5575  0.0477
   48CHL1    C3 3479   3.924   2.815   6.670 -0.5283  0.1851 -0.1382
   48CHL1    H3 3480   3.853   2.737   6.637 -0.1341  0.2388 -1.1457
   48CHL1    O3 3481   4.002   2.862   6.557  0.3139 -0.3482  0.3621
   48CHL1   H3' 3482   4.084   2.885   6.602  0.1537 -0.0900  0.5203
   48CHL1    C4 3483   3.846   2.937   6.727  0.1870 -0.0244  0.2874
   48CHL1   H4A 3484   3.920   3.019   6.738  0.9722 -0.9904  3.3078
   48CHL1   H4B 3485   3.770   2.960   6.650  0.2837 -0.1256  0.1617
   48CHL1    C5 3486   3.783   2.909   6.860 -0.1427  1.0413 -0.3132
   48CHL1    C6 3487   3.652   2.935   6.886 -0.1895  0.6429  0.2380
   48CHL1    H6 3488   3.596   2.996   6.814  0.0496  0.7593  0.1514
   48CHL1    C7 3489   3.576   2.892   7.010 -0.1490 -0.4361 -0.5316
   48CHL1   H7A 3490   3.496   2.962   7.043 -0.8744 -0.1120 -2.8047
   48CHL1   H7B 3491   3.524   2.795   6.999  0.1828 -0.9103  1.7551
   48CHL1    C8 3492   3.670   2.858   7.127  0.0793  0.1340  0.2339
   48CHL1    H8 3493   3.723   2.948   7.164 -0.0960  0.8774 -1.2226
   48CHL1   C14 3494   3.589   2.788   7.239  0.0898 -1.1552 -0.2738
   48CHL1   H14 3495   3.546   2.700   7.186 -0.4815 -0.7474 -0.4929
   48CHL1   C15 3496   3.473   2.857   7.313 -0.2662 -0.2669  0.6223
   48CHL1  H15A 3497   3.520   2.957   7.332 -0.6444 -0.1857  1.1532
   48CHL1  H15B 3498   3.381   2.877   7.256 -1.5822 -3.1755  1.5580
   48CHL1   C16 3499   3.456   2.776   7.440  0.2681 -0.1028 -0.0553
   48CHL1  H16A 3500   3.468   2.842   7.529  0.1820  0.0841 -0.1806
   48CHL1  H16B 3501   3.356   2.727   7.433  0.2456  0.1414 -1.9274
   48CHL1   C17 3502   3.567   2.673   7.451  0.2144  0.3243 -0.1124
   48CHL1   H17 3503   3.527   2.589   7.392 -2.3747  1.4168 -0.0448
   48CHL1   C13 3504   3.675   2.730   7.355  0.2888  0.4896  0.2685
   48CHL1   C18 3505   3.738   2.853   7.422 -0.5724  0.4766 -0.7039
   48CHL1  H18A 3506   3.782   2.799   7.508 -0.3350 -0.8277 -1.6097
   48CHL1  H18B 3507   3.823   2.907   7.376 -0.2436  0.8569  0.3197
   48CHL1  H18C 3508   3.664   2.928   7.459 -0.6027  0.6786 -1.1622
   48CHL1   C12 3509   3.774   2.632   7.294 -0.2641  0.8681  0.6978
   48CHL1  H12A 3510   3.841   2.598   7.376  0.1453  0.1316  0.0633
   48CHL1  H12B 3511   3.727   2.537   7.262  0.6263  1.0635 -1.2758
   48CHL1   C11 3512   3.862   2.692   7.178 -0.6150 -0.2024 -0.5335
   48CHL1  H11A 3513   3.931   2.760   7.233 -1.2061 -1.3735  1.7560
   48CHL1  H11B 3514   3.926   2.617   7.126  0.9997  1.1962 -0.6727
   48CHL1    C9 3515   3.778   2.765   7.068  0.6843 -0.6035  0.8631
   48CHL1    H9 3516   3.723   2.684   7.016 -0.1214  0.4511  0.0125
   48CHL1   C10 3517   3.866   2.830   6.961 -0.2243  0.2134 -0.1717
   48CHL1   C19 3518   3.949   2.942   7.017  0.5777 -0.6406  0.0071
   48CHL1  H19A 3519   4.015   2.896   7.094  0.1882 -1.5596 -0.1895
   48CHL1  H19B 3520   4.004   2.997   6.938 -0.1627 -1.4396 -1.0911
   48CHL1  H19C 3521   3.896   3.020   7.075 -0.2869  0.2964 -1.9693
   48CHL1    C1 3522   3.958   2.724   6.885 -0.3212  0.1706  0.6461
   48CHL1   H1A 3523   4.042   2.688   6.948 -0.4987  0.1884  0.8957
   48CHL1   H1B 3524   3.893   2.639   6.854  0.0470 -0.2559  1.0391
   48CHL1    C2 3525   4.027   2.778   6.764  0.5652  0.5126 -0.3175
   48CHL1   H2A 3526   4.086   2.692   6.725 -0.2181 -0.2770  0.1919
   48CHL1   H2B 3527   4.105   2.855   6.785  0.4870  0.2070  1.2036
   48CHL1   C20 3528   3.598   2.616   7.587 -0.2350  0.0049 -0.5426
   48CHL1   H20 3529   3.649   2.703   7.633 -0.4353 -0.2940  0.2733
   48CHL1   C21 3530   3.704   2.494   7.583  0.1460  0.2674  0.3981
   48CHL1  H21A 3531   3.710   2.439   7.679  0.5306  0.6691  0.6073
   48CHL1  H21B 3532   3.805   2.533   7.562  0.3555  0.7019  2.0723
   48CHL1  H21C 3533   3.686   2.426   7.498  0.5584 -0.8897  1.2137
   48CHL1   C22 3534   3.483   2.567   7.687  0.0129  0.7469 -0.4627
   48CHL1  H22A 3535   3.384   2.617   7.678  0.0068  0.5928 -1.3742
   48CHL1  H22B 3536   3.455   2.464   7.657  0.5896  0.8437 -1.3869
   48CHL1   C23 3537   3.523   2.563   7.832 -0.0996 -0.0543  0.3130
   48CHL1  H23A 3538   3.617   2.505   7.847 -0.6625 -1.2925 -0.6795
   48CHL1  H23B 3539   3.533   2.668   7.864  1.0565 -0.3845  1.1001
   48CHL1   C24 3540   3.425   2.493   7.929  0.2790 -0.4979 -0.2482
   48CHL1  H24A 3541   3.342   2.565   7.945 -1.5298 -2.6563  0.5670
   48CHL1  H24B 3542   3.373   2.409   7.878 -0.6017  1.5797 -3.0387
   48CHL1   C25 3543   3.479   2.453   8.066  0.1364  0.1553 -0.4045
   48CHL1   H25 3544   3.546   2.537   8.093 -0.9679  0.9892 -0.1848
   48CHL1   C26 3545   3.371   2.456   8.174 -0.7919  0.1929 -0.2245
   48CHL1  H26A 3546   3.319   2.553   8.181  1.4135  1.4152  0.1115
   48CHL1  H26B 3547   3.295   2.377   8.156 -0.7026  0.5366 -2.2733
   48CHL1  H26C 3548   3.406   2.439   8.279 -0.4563 -2.0178 -0.6374
   48CHL1   C27 3549   3.553   2.317   8.069 -0.1007  0.0703  0.7601
   48CHL1  H27A 3550   3.597   2.312   8.172 -0.7016  1.1346  1.0857
   48CHL1  H27B 3551   3.479   2.235   8.055  0.6030 -0.5392  0.5153
   48CHL1  H27C 3552   3.631   2.310   7.991 -0.2081  2.9406  0.2835
   49CHL1    C3 3553   2.159   2.436   6.668  0.0460  0.0887 -0.4430
   49CHL1    H3 3554   2.197   2.539   6.683 -0.5555  0.1353  1.0171
   49CHL1    O3 3555   2.160   2.416   6.522 -0.5880 -0.5228  0.3045
   49CHL1   H3' 3556   2.188   2.326   6.510 -1.0749 -0.3888 -2.3845
   49CHL1    C4 3557   2.261   2.339   6.729  0.2963 -0.1667 -0.0017
   49CHL1   H4A 3558   2.225   2.240   6.695 -0.3475 -0.1815  0.7087
   49CHL1   H4B 3559   2.356   2.351   6.673  0.1394  1.2801  0.0033
   49CHL1    C5 3560   2.274   2.341   6.871  0.3981 -0.6304 -0.5402
   49CHL1    C6 3561   2.396   2.372   6.926  0.1033 -0.1323 -0.0281
   49CHL1    H6 3562   2.483   2.390   6.860 -0.1522 -0.6473 -0.5165
   49CHL1    C7 3563   2.424   2.370   7.073  0.0363 -0.2895  0.2190
   49CHL1   H7A 3564   2.504   2.295   7.085 -0.2296 -1.0312 -2.1653
   49CHL1   H7B 3565   2.450   2.473   7.106 -0.9422 -0.3980  1.4119
   49CHL1    C8 3566   2.313   2.320   7.160 -0.3969 -0.2505  0.8163
   49CHL1    H8 3567   2.307   2.210   7.146 -0.4622 -0.0049 -1.4049
   49CHL1   C14 3568   2.328   2.359   7.311  0.4739  0.4544  0.9990
   49CHL1   H14 3569   2.331   2.469   7.302  0.1887  0.5370  1.8409
   49CHL1   C15 3570   2.456   2.322   7.392  0.3443  0.8120 -0.3704
   49CHL1  H15A 3571   2.487   2.216   7.382 -1.0010  0.4392 -0.8055
   49CHL1  H15B 3572   2.538   2.381   7.346  0.7859  0.8471  0.4603
   49CHL1   C16 3573   2.412   2.346   7.538 -0.0407  0.8502 -0.6421
   49CHL1  H16A 3574   2.402   2.243   7.578  3.0035  1.5783  2.5095
   49CHL1  H16B 3575   2.490   2.392   7.603  1.7854 -1.1961 -1.2626
   49CHL1   C17 3576   2.265   2.406   7.535 -0.1232 -0.5702 -0.3260
   49CHL1   H17 3577   2.274   2.516   7.518  1.2486 -0.4701  0.8920
   49CHL1   C13 3578   2.209   2.346   7.401  0.0225 -0.0092 -0.5080
   49CHL1   C18 3579   2.167   2.194   7.424  0.8385 -0.7274  0.3062
   49CHL1  H18A 3580   2.061   2.189   7.458  0.5572 -0.8811 -0.5562
   49CHL1  H18B 3581   2.175   2.136   7.330  2.1614  1.3274 -0.9438
   49CHL1  H18C 3582   2.220   2.141   7.506  0.0620 -0.1528  1.2105
   49CHL1   C12 3583   2.087   2.420   7.344 -0.8742 -0.8760 -0.1891
   49CHL1  H12A 3584   1.992   2.403   7.399 -1.2625 -0.6723 -0.7834
   49CHL1  H12B 3585   2.104   2.529   7.332 -1.2528 -0.7171  0.6723
   49CHL1   C11 3586   2.059   2.366   7.203  0.5276 -0.0643 -0.1368
   49CHL1  H11A 3587   2.027   2.260   7.197  0.7080 -0.0917 -0.6430
   49CHL1  H11B 3588   1.970   2.424   7.169  1.5889  0.0637 -2.9032
   49CHL1    C9 3589   2.179   2.380   7.105  0.1307  0.4997  0.5243
   49CHL1    H9 3590   2.201   2.489   7.105  1.6774  0.2000  0.1825
   49CHL1   C10 3591   2.149   2.335   6.953  0.1708 -0.8113  0.2288
   49CHL1   C19 3592   2.084   2.194   6.937  0.4220 -0.2649 -0.7708
   49CHL1  H19A 3593   2.139   2.115   6.992 -0.5102 -3.1855 -3.6644
   49CHL1  H19B 3594   1.980   2.208   6.975  0.3982 -2.1818 -0.0277
   49CHL1  H19C 3595   2.071   2.168   6.830  0.4718 -0.0493 -0.8295
   49CHL1    C1 3596   2.044   2.438   6.891  0.0819  0.1898 -0.6680
   49CHL1   H1A 3597   1.949   2.420   6.945  0.2023  2.1221  0.2710
   49CHL1   H1B 3598   2.071   2.543   6.916  1.4935  0.1307 -1.8345
   49CHL1    C2 3599   2.028   2.421   6.737  0.3273 -0.1701  0.0092
   49CHL1   H2A 3600   1.944   2.485   6.700  0.6659  0.8375  0.9337
   49CHL1   H2B 3601   1.988   2.318   6.725 -0.2942  0.2079 -1.4230
   49CHL1   C20 3602   2.193   2.375   7.667  0.2260 -0.0681  0.0834
   49CHL1   H20 3603   2.191   2.266   7.686 -1.2103 -0.0904 -0.0331
   49CHL1   C21 3604   2.042   2.422   7.676 -0.2016 -0.9506  0.2112
   49CHL1  H21A 3605   1.973   2.336   7.660  0.2737 -1.4761  0.9061
   49CHL1  H21B 3606   2.022   2.492   7.592  1.1196 -0.8775 -0.0665
   49CHL1  H21C 3607   2.013   2.482   7.765  0.6117  1.1375 -0.8729
   49CHL1   C22 3608   2.271   2.445   7.783  0.4317 -0.0082 -0.4322
   49CHL1  H22A 3609   2.208   2.427   7.873 -0.1074  1.5064 -0.4749
   49CHL1  H22B 3610   2.374   2.406   7.797  0.2564 -0.9805 -1.6820
   49CHL1   C23 3611   2.272   2.596   7.773 -0.2749 -0.1971 -0.3062
   49CHL1  H23A 3612   2.340   2.626   7.690 -2.1585  3.4484 -0.7574
   49CHL1  H23B 3613   2.173   2.645   7.761 -0.0464  0.9785  1.9999
   49CHL1   C24 3614   2.332   2.669   7.894 -1.2053 -0.5509 -0.8945
   49CHL1  H24A 3615   2.343   2.776   7.866 -0.8402 -0.8456 -1.9529
   49CHL1  H24B 3616   2.259   2.654   7.976 -1.1032 -1.2579 -0.9256
   49CHL1   C25 3617   2.476   2.621   7.936  0.1426 -0.0849 -0.1998
   49CHL1   H25 3618   2.463   2.510   7.943 -1.2069  0.0065 -0.9017
   49CHL1   C26 3619   2.573   2.643   7.823 -0.0218  0.5455  0.0881
   49CHL1  H26A 3620   2.564   2.568   7.742  2.1303 -0.2194  0.4996
   49CHL1  H26B 3621   2.560   2.743   7.777  0.8218 -0.9408 -3.7680
   49CHL1  H26C 3622   2.681   2.645   7.850  0.0247  0.4249 -0.0907
   49CHL1   C27 3623   2.542   2.675   8.067  0.3313 -0.3608 -0.4670
   49CHL1  H27A 3624   2.638   2.621   8.087  0.8610  1.1935  1.6056
   49CHL1  H27B 3625   2.569   2.782   8.055  2.6381 -0.7750  0.4475
   49CHL1  H27C 3626   2.466   2.655   8.146 -1.6497 -2.5229 -2.7845
   50CHL1    C3 3627   1.545   4.969   6.619 -0.3431  0.4806 -0.2904
   50CHL1    H3 3628   1.545   5.079   6.637  0.3957  0.3254  0.7302
   50CHL1    O3 3629   1.528   4.936   6.479  0.5235 -0.3094 -0.4951
   50CHL1   H3' 3630   1.551   4.844   6.464 -1.7212 -0.7100 -1.9500
   50CHL1    C4 3631   1.677   4.903   6.665 -0.3799  0.3826 -0.5315
   50CHL1   H4A 3632   1.677   4.796   6.636 -0.2200  0.1083  0.4340
   50CHL1   H4B 3633   1.759   4.946   6.603  2.3682 -2.3066  0.9293
   50CHL1    C5 3634   1.701   4.913   6.816 -0.6557 -0.0709  0.2862
   50CHL1    C6 3635   1.812   4.962   6.870 -0.2187 -0.8388 -0.4456
   50CHL1    H6 3636   1.888   4.999   6.800  1.4599 -0.6852  1.3808
   50CHL1    C7 3637   1.845   4.962   7.017 -0.5697  0.3661  1.0483
   50CHL1   H7A 3638   1.935   4.899   7.028 -0.6315  0.1324  0.2470
   50CHL1   H7B 3639   1.862   5.067   7.049  2.9473  1.3681 -3.1662
   50CHL1    C8 3640   1.743   4.891   7.104  0.2177 -0.3063  0.4168
   50CHL1    H8 3641   1.775   4.786   7.088  1.0167 -0.2205  1.2942
   50CHL1   C14 3642   1.760   4.927   7.241  0.2239  0.1982 -0.4396
   50CHL1   H14 3643   1.727   5.033   7.243  0.5910  0.4053 -2.8591
   50CHL1   C15 3644   1.896   4.939   7.305  0.3297 -0.5636 -0.3512
   50CHL1  H15A 3645   1.955   4.854   7.266  1.3275 -0.3991  0.7514
   50CHL1  H15B 3646   1.955   5.028   7.271 -0.1879 -0.6106 -1.4430
   50CHL1   C16 3647   1.881   4.922   7.458  0.7088  0.1044 -0.5077
   50CHL1  H16A 3648   1.924   4.822   7.481  0.9074  0.4372  0.6317
   50CHL1  H16B 3649   1.915   5.002   7.527  0.1791 -1.7044  1.9973
   50CHL1   C17 3650   1.724   4.898   7.475  0.1639 -0.1875  0.0130
   50CHL1   H17 3651   1.678   4.998   7.486  2.8498  1.1046  0.2706
   50CHL1   C13 3652   1.671   4.847   7.340 -0.1539  0.4245  0.5373
   50CHL1   C18 3653   1.707   4.695   7.320 -0.1874 -0.4534 -0.3496
   50CHL1  H18A 3654   1.812   4.685   7.354  0.3740 -0.6455 -2.0663
   50CHL1  H18B 3655   1.643   4.645   7.396 -0.2906  0.7933  0.4141
   50CHL1  H18C 3656   1.702   4.658   7.215  0.7772  0.0807 -0.5948
   50CHL1   C12 3657   1.527   4.871   7.303 -0.8678 -0.3349 -0.5460
   50CHL1  H12A 3658   1.464   4.796   7.357 -0.9444  0.0073 -0.1635
   50CHL1  H12B 3659   1.502   4.975   7.333 -1.3530 -1.0270  1.6702
   50CHL1   C11 3660   1.499   4.838   7.151 -0.6649  0.3664 -0.3202
   50CHL1  H11A 3661   1.503   4.727   7.147 -0.3839  0.3837 -0.5112
   50CHL1  H11B 3662   1.395   4.868   7.123 -0.1969  0.3062 -2.2318
   50CHL1    C9 3663   1.597   4.908   7.054 -0.1066  0.2872 -0.8103
   50CHL1    H9 3664   1.580   5.018   7.054 -0.3860  0.2461 -0.6324
   50CHL1   C10 3665   1.590   4.863   6.905 -0.0737  0.2423  0.8702
   50CHL1   C19 3666   1.582   4.712   6.891  0.4909  0.4278 -0.2902
   50CHL1  H19A 3667   1.663   4.668   6.953 -1.6690  1.0831  3.2794
   50CHL1  H19B 3668   1.484   4.666   6.917  0.5882 -0.0650 -0.7872
   50CHL1  H19C 3669   1.596   4.683   6.785 -0.6642  3.4350 -1.3678
   50CHL1    C1 3670   1.453   4.918   6.854 -0.3025  0.4485  0.0618
   50CHL1   H1A 3671   1.363   4.875   6.903 -0.5997 -1.7687 -2.2103
   50CHL1   H1B 3672   1.462   5.026   6.879  1.0174  0.3993 -0.1580
   50CHL1    C2 3673   1.433   4.915   6.704 -0.7562  0.0251 -0.2546
   50CHL1   H2A 3674   1.341   4.971   6.676 -0.8169  0.3907  0.6618
   50CHL1   H2B 3675   1.419   4.809   6.676  2.0413 -1.4841  3.3631
   50CHL1   C20 3676   1.687   4.835   7.609  0.5655 -0.1910 -0.1396
   50CHL1   H20 3677   1.699   4.724   7.607  2.1303 -0.1528  2.6421
   50CHL1   C21 3678   1.544   4.860   7.637 -0.0333  0.1679 -0.2780
   50CHL1  H21A 3679   1.478   4.799   7.571  0.7544 -3.5203  2.0542
   50CHL1  H21B 3680   1.527   4.970   7.636  1.3863  0.4254  0.8128
   50CHL1  H21C 3681   1.511   4.816   7.733 -0.5403 -2.1090 -1.4285
   50CHL1   C22 3682   1.785   4.885   7.721 -0.7178  0.3499  0.0351
   50CHL1  H22A 3683   1.887   4.850   7.696 -1.5985 -1.8154 -0.8040
   50CHL1  H22B 3684   1.777   4.996   7.715 -3.1938  0.1735 -1.3074
   50CHL1   C23 3685   1.756   4.834   7.861 -0.4414 -0.2635  0.9329
   50CHL1  H23A 3686   1.678   4.881   7.924 -0.8423  0.4907 -0.1027
   50CHL1  H23B 3687   1.710   4.733   7.851 -1.6628  0.4993 -2.4941
   50CHL1   C24 3688   1.884   4.830   7.938  0.0441  0.4631 -0.4765
   50CHL1  H24A 3689   1.943   4.751   7.888 -2.0536 -1.3770 -0.2224
   50CHL1  H24B 3690   1.936   4.928   7.939  2.6321 -0.8250  0.9760
   50CHL1   C25 3691   1.867   4.808   8.088  0.4200  0.2088 -0.3120
   50CHL1   H25 3692   1.830   4.904   8.128 -1.8083 -1.5016  2.0601
   50CHL1   C26 3693   1.766   4.696   8.129 -0.4702  0.2478 -0.3103
   50CHL1  H26A 3694   1.775   4.668   8.236  0.4982 -2.8979 -1.0853
   50CHL1  H26B 3695   1.661   4.731   8.120 -1.6416 -2.2652  2.1678
   50CHL1  H26C 3696   1.778   4.604   8.068 -0.1265  0.9742 -1.3642
   50CHL1   C27 3697   1.996   4.769   8.167  0.0222 -0.3742  0.6615
   50CHL1  H27A 3698   2.075   4.842   8.137  1.2800 -2.2198 -0.8237
   50CHL1  H27B 3699   1.982   4.764   8.277 -1.9753 -1.0197  0.4198
   50CHL1  H27C 3700   2.036   4.668   8.141  0.9727  0.1898 -0.1788
   51CHL1    C3 3701   2.461   4.272   6.805  0.5771 -0.1880 -0.2889
   51CHL1    H3 3702   2.568   4.295   6.790  1.2484 -1.6712  1.7332
   51CHL1    O3 3703   2.390   4.257   6.679 -0.4282 -0.0163  0.5246
   51CHL1   H3' 3704   2.378   4.163   6.668 -1.2762  0.2305 -0.8934
   51CHL1    C4 3705   2.450   4.142   6.880 -0.0639 -0.2297 -0.7367
   51CHL1   H4A 3706   2.342   4.118   6.889 -0.6067  1.9674 -0.9264
   51CHL1   H4B 3707   2.489   4.064   6.811 -2.3690  1.0202 -3.6794
   51CHL1    C5 3708   2.514   4.152   7.015 -0.3572 -0.0192 -0.2387
   51CHL1    C6 3709   2.614   4.071   7.055  0.1616  0.2478  0.6716
   51CHL1    H6 3710   2.639   3.992   6.982  0.7204  0.0801  1.0380
   51CHL1    C7 3711   2.677   4.067   7.190 -0.1242  0.1609 -0.4405
   51CHL1   H7A 3712   2.683   3.965   7.235  2.3596  0.4128 -0.0862
   51CHL1   H7B 3713   2.782   4.101   7.176  0.1418 -0.6325 -0.4206
   51CHL1    C8 3714   2.601   4.154   7.297 -0.1751 -1.2189 -0.4198
   51CHL1    H8 3715   2.517   4.092   7.336 -0.1821  0.8185  3.2182
   51CHL1   C14 3716   2.698   4.190   7.406 -0.2303  0.2551 -0.8658
   51CHL1   H14 3717   2.767   4.264   7.360  1.2243 -0.8040 -0.4737
   51CHL1   C15 3718   2.799   4.082   7.463 -0.0727 -0.8878  0.6982
   51CHL1  H15A 3719   2.750   3.983   7.463 -0.7736 -0.5518  0.2220
   51CHL1  H15B 3720   2.894   4.076   7.407 -0.5237  1.5003 -0.4705
   51CHL1   C16 3721   2.828   4.134   7.604 -0.3502  0.0290 -0.3440
   51CHL1  H16A 3722   2.777   4.063   7.674 -0.5687 -1.1857 -1.6863
   51CHL1  H16B 3723   2.932   4.150   7.639 -1.3222  1.1355  2.3199
   51CHL1   C17 3724   2.764   4.278   7.612  0.3797  0.7991  0.5605
   51CHL1   H17 3725   2.833   4.347   7.558  0.9499 -0.9597 -1.0723
   51CHL1   C13 3726   2.637   4.275   7.529  0.0567  0.9109  0.3237
   51CHL1   C18 3727   2.528   4.191   7.607  0.2711 -0.4779 -0.0161
   51CHL1  H18A 3728   2.441   4.152   7.550  0.7988 -1.7497  0.0000
   51CHL1  H18B 3729   2.571   4.109   7.668 -1.2864  0.3451  2.3054
   51CHL1  H18C 3730   2.488   4.253   7.689 -2.0890  0.1549 -1.5385
   51CHL1   C12 3731   2.583   4.404   7.467  0.2043  0.2787  0.1432
   51CHL1  H12A 3732   2.524   4.458   7.545  2.3844 -0.1475  2.2366
   51CHL1  H12B 3733   2.663   4.466   7.421  0.5861 -0.0115  0.4107
   51CHL1   C11 3734   2.484   4.373   7.350 -0.0464 -0.5748 -0.4696
   51CHL1  H11A 3735   2.396   4.317   7.389 -0.2130  0.2139  0.3246
   51CHL1  H11B 3736   2.448   4.471   7.312 -0.3032  0.3896  2.0842
   51CHL1    C9 3737   2.542   4.284   7.235 -0.5152  0.1953  0.4901
   51CHL1    H9 3738   2.637   4.338   7.213  1.0204 -2.3406  0.4513
   51CHL1   C10 3739   2.461   4.264   7.107 -0.0926  0.2582  0.0177
   51CHL1   C19 3740   2.318   4.231   7.139  0.1671 -1.0203  0.4125
   51CHL1  H19A 3741   2.277   4.318   7.193  0.6030 -1.0153  0.7412
   51CHL1  H19B 3742   2.256   4.220   7.048  1.6275 -1.8473 -0.5355
   51CHL1  H19C 3743   2.301   4.142   7.204  2.7118 -0.5693  1.8345
   51CHL1    C1 3744   2.469   4.401   7.024 -0.1148  0.1100 -0.7280
   51CHL1   H1A 3745   2.414   4.474   7.087 -0.1860  2.2224 -3.0695
   51CHL1   H1B 3746   2.573   4.442   7.026  0.0078 -0.2037  0.9588
   51CHL1    C2 3747   2.402   4.391   6.887 -0.1613 -0.4651 -0.2782
   51CHL1   H2A 3748   2.431   4.477   6.824  1.9378 -2.1555 -1.7495
   51CHL1   H2B 3749   2.291   4.388   6.895 -0.0511 -0.6120  1.7049
   51CHL1   C20 3750   2.748   4.343   7.755  0.1828 -0.3249 -0.0986
   51CHL1   H20 3751   2.648   4.311   7.789 -0.6243  2.1063 -0.0379
   51CHL1   C21 3752   2.744   4.496   7.749  0.7605  0.1680 -0.1551
   51CHL1  H21A 3753   2.696   4.535   7.657  1.4456  4.8577  1.2568
   51CHL1  H21B 3754   2.849   4.532   7.752  0.2204  1.9007  3.2929
   51CHL1  H21C 3755   2.684   4.540   7.832  2.7646  2.6527  0.0762
   51CHL1   C22 3756   2.850   4.293   7.863  0.3043 -0.2261  0.3657
   51CHL1  H22A 3757   2.839   4.182   7.868  0.2600 -0.2856 -0.7459
   51CHL1  H22B 3758   2.954   4.316   7.830  0.6925 -1.1314  0.9149
   51CHL1   C23 3759   2.833   4.352   8.010 -0.6586 -0.1651  0.0752
   51CHL1  H23A 3760   2.926   4.361   8.070 -1.2427 -0.0095  0.9807
   51CHL1  H23B 3761   2.793   4.456   8.003 -0.5735 -0.2232 -1.8449
   51CHL1   C24 3762   2.744   4.276   8.106  0.5783  0.6232  0.5401
   51CHL1  H24A 3763   2.661   4.220   8.057 -0.4774  1.3031  1.5040
   51CHL1  H24B 3764   2.799   4.188   8.148  0.7225  0.0417 -0.8330
   51CHL1   C25 3765   2.687   4.351   8.219  0.3573 -0.5985  0.2818
   51CHL1   H25 3766   2.621   4.428   8.174  0.4377 -1.0484 -0.6303
   51CHL1   C26 3767   2.598   4.259   8.303  0.0259 -0.3535  0.8706
   51CHL1  H26A 3768   2.503   4.232   8.251 -1.5278  2.4778  1.9919
   51CHL1  H26B 3769   2.658   4.168   8.320  0.6899  0.0161  0.5364
   51CHL1  H26C 3770   2.566   4.308   8.398  1.4703  1.6287  0.3932
   51CHL1   C27 3771   2.798   4.425   8.303  0.3027  0.0985 -0.0734
   51CHL1  H27A 3772   2.750   4.468   8.394 -1.3837  0.9182 -1.2863
   51CHL1  H27B 3773   2.876   4.351   8.333 -1.3034 -1.6210  0.0884
   51CHL1  H27C 3774   2.851   4.507   8.252  0.9897 -0.7956 -0.8330
   52CHL1    C3 3775   3.578   4.719   6.803 -0.2993 -0.4992 -0.1490
   52CHL1    H3 3776   3.512   4.806   6.821  1.4349  0.4274  2.4380
   52CHL1    O3 3777   3.625   4.709   6.668  0.4420  0.0100 -0.1293
   52CHL1   H3' 3778   3.652   4.617   6.668 -0.9112 -0.4972 -2.9952
   52CHL1    C4 3779   3.692   4.716   6.910 -0.4778 -0.4628  0.4752
   52CHL1   H4A 3780   3.775   4.645   6.893  0.3761  0.2835  1.4159
   52CHL1   H4B 3781   3.741   4.815   6.900  1.6568 -1.5517 -0.4812
   52CHL1    C5 3782   3.637   4.689   7.045 -0.1335  0.9927  0.5767
   52CHL1    C6 3783   3.675   4.769   7.147  0.1795 -0.1562 -0.0422
   52CHL1    H6 3784   3.746   4.852   7.137  0.7863 -0.6529  0.1028
   52CHL1    C7 3785   3.645   4.736   7.295  0.8945  0.1633 -0.2232
   52CHL1   H7A 3786   3.742   4.759   7.344  1.3960  0.0888 -1.1592
   52CHL1   H7B 3787   3.572   4.814   7.325 -0.0869 -0.7957 -0.0564
   52CHL1    C8 3788   3.599   4.591   7.326  0.1190  0.7456  0.7212
   52CHL1    H8 3789   3.684   4.520   7.329  1.9891  2.7219 -1.4105
   52CHL1   C14 3790   3.533   4.587   7.459 -0.8721 -0.2028 -0.3864
   52CHL1   H14 3791   3.438   4.644   7.443 -0.5697  0.4467  0.0758
   52CHL1   C15 3792   3.600   4.657   7.582  0.4095 -0.1707 -0.2201
   52CHL1  H15A 3793   3.710   4.641   7.586  0.3782 -0.1714  0.7150
   52CHL1  H15B 3794   3.588   4.767   7.579 -0.6005 -0.2725 -3.1685
   52CHL1   C16 3795   3.512   4.604   7.702 -0.6739 -0.5743 -0.3555
   52CHL1  H16A 3796   3.593   4.565   7.767 -2.9977 -0.5644  2.7785
   52CHL1  H16B 3797   3.452   4.674   7.763  0.6637  0.1246  0.2059
   52CHL1   C17 3798   3.424   4.485   7.642  0.8924 -0.2977 -0.7009
   52CHL1   H17 3799   3.324   4.528   7.619  0.6076 -0.2409  0.5840
   52CHL1   C13 3800   3.487   4.446   7.507 -0.5764  0.6064 -0.1247
   52CHL1   C18 3801   3.614   4.352   7.522  0.4452  0.5219 -0.5360
   52CHL1  H18A 3802   3.676   4.341   7.431  0.7557  0.3537 -0.3085
   52CHL1  H18B 3803   3.671   4.378   7.614  0.4289 -1.1413 -0.0220
   52CHL1  H18C 3804   3.568   4.254   7.545 -3.0514  2.1528  0.1359
   52CHL1   C12 3805   3.398   4.379   7.398 -0.4854 -0.6956 -0.1221
   52CHL1  H12A 3806   3.376   4.271   7.411  0.5890 -0.9645 -0.4723
   52CHL1  H12B 3807   3.302   4.435   7.406 -1.5183 -2.5175  0.9579
   52CHL1   C11 3808   3.463   4.392   7.257  0.4021  0.3062  0.4073
   52CHL1  H11A 3809   3.541   4.314   7.266 -1.7341 -1.7311  2.9459
   52CHL1  H11B 3810   3.384   4.359   7.187 -1.9882  1.6127  2.2996
   52CHL1    C9 3811   3.502   4.538   7.220 -0.1881  0.0602  0.0091
   52CHL1    H9 3812   3.411   4.600   7.230 -0.1649 -0.2848  3.1387
   52CHL1   C10 3813   3.554   4.561   7.066 -0.9653 -0.5444 -1.0612
   52CHL1   C19 3814   3.652   4.447   7.039  0.2819  0.0624 -0.0062
   52CHL1  H19A 3815   3.700   4.455   6.939 -0.9075  0.0904 -0.5888
   52CHL1  H19B 3816   3.717   4.431   7.128 -1.4943  1.5380  1.6376
   52CHL1  H19C 3817   3.597   4.350   7.034 -0.0291  0.1845  0.8784
   52CHL1    C1 3818   3.434   4.575   6.961  0.3717 -0.1357 -0.0799
   52CHL1   H1A 3819   3.366   4.487   6.957  0.2671 -0.0131 -1.9448
   52CHL1   H1B 3820   3.365   4.656   6.992  1.0656 -0.3368  2.1873
   52CHL1    C2 3821   3.481   4.599   6.816  0.0688  0.3502 -0.7146
   52CHL1   H2A 3822   3.403   4.618   6.740 -1.8700 -0.5571  0.9552
   52CHL1   H2B 3823   3.542   4.510   6.788  1.8511  0.8625  1.2448
   52CHL1   C20 3824   3.394   4.372   7.752  0.8207  0.8029  0.7240
   52CHL1   H20 3825   3.486   4.312   7.767  1.4885  1.8492  0.9812
   52CHL1   C21 3826   3.289   4.282   7.693  0.5647  0.1641  0.8006
   52CHL1  H21A 3827   3.321   4.219   7.607  1.0351 -1.8063  2.3300
   52CHL1  H21B 3828   3.208   4.346   7.651  1.4902 -0.2636 -1.8469
   52CHL1  H21C 3829   3.244   4.216   7.770  1.1143 -1.4135 -0.1823
   52CHL1   C22 3830   3.333   4.414   7.893 -0.6303 -0.0318  0.2521
   52CHL1  H22A 3831   3.321   4.317   7.946 -0.9585 -0.5656 -0.7703
   52CHL1  H22B 3832   3.413   4.468   7.948  0.9703 -2.7786  0.8089
   52CHL1   C23 3833   3.209   4.504   7.894  0.1234 -0.3669  0.3147
   52CHL1  H23A 3834   3.227   4.603   7.847 -4.8066  0.7998  0.3270
   52CHL1  H23B 3835   3.131   4.450   7.837 -0.4004  0.6709  0.0337
   52CHL1   C24 3836   3.153   4.530   8.037  0.4072  0.8376  0.4370
   52CHL1  H24A 3837   3.052   4.578   8.034 -0.4547 -0.9416 -0.8430
   52CHL1  H24B 3838   3.128   4.432   8.083  0.0022  1.3450  1.3345
   52CHL1   C25 3839   3.246   4.604   8.136  0.6476  0.2686 -0.0222
   52CHL1   H25 3840   3.294   4.692   8.089  1.4507 -0.1603 -0.0288
   52CHL1   C26 3841   3.157   4.658   8.245 -0.1515 -0.0811  0.1491
   52CHL1  H26A 3842   3.221   4.716   8.315  0.0185 -2.3082  1.9505
   52CHL1  H26B 3843   3.082   4.727   8.199  0.3543 -0.0967 -0.7291
   52CHL1  H26C 3844   3.103   4.576   8.296  0.3169 -0.2167  0.4316
   52CHL1   C27 3845   3.365   4.523   8.206 -0.0906 -0.5556 -0.0161
   52CHL1  H27A 3846   3.450   4.539   8.135 -1.0174  1.7763 -0.6720
   52CHL1  H27B 3847   3.386   4.566   8.306 -0.2985  0.4160 -0.3825
   52CHL1  H27C 3848   3.323   4.421   8.221  0.1350 -1.1307 -2.7131
   53CHL1    C3 3849   0.826   1.465   6.599  0.5034 -0.0619  0.0575
   53CHL1    H3 3850   0.724   1.501   6.622  1.1819  0.2744  2.8610
   53CHL1    O3 3851   0.864   1.486   6.464  0.6551 -0.6529  0.6435
   53CHL1   H3' 3852   0.959   1.478   6.477  1.0127  0.0876 -1.1481
   53CHL1    C4 3853   0.915   1.549   6.691 -0.2440  0.3670 -0.3179
   53CHL1   H4A 3854   1.021   1.520   6.675 -0.0434 -0.3662  2.0555
   53CHL1   H4B 3855   0.911   1.656   6.662 -1.4196  0.3230 -0.3548
   53CHL1    C5 3856   0.889   1.526   6.840  0.0070 -0.0533 -0.1224
   53CHL1    C6 3857   0.866   1.627   6.927 -0.1676  0.9208  0.2001
   53CHL1    H6 3858   0.868   1.733   6.899  2.2600  0.4651 -1.5699
   53CHL1    C7 3859   0.845   1.602   7.073 -0.1229  0.5048 -0.1159
   53CHL1   H7A 3860   0.920   1.665   7.125 -0.5472  2.2436 -1.4930
   53CHL1   H7B 3861   0.744   1.638   7.103 -0.7724 -1.4387  0.1873
   53CHL1    C8 3862   0.871   1.459   7.115 -0.5879  0.5615  0.1350
   53CHL1    H8 3863   0.980   1.435   7.121 -1.0884 -1.7266  1.1768
   53CHL1   C14 3864   0.807   1.426   7.251 -0.7466 -0.1954  0.0839
   53CHL1   H14 3865   0.699   1.439   7.231 -0.7432  0.4968  0.4895
   53CHL1   C15 3866   0.838   1.527   7.361 -0.4953 -0.5954 -0.7768
   53CHL1  H15A 3867   0.946   1.551   7.367 -0.5767 -0.6047  1.5897
   53CHL1  H15B 3868   0.779   1.618   7.338  0.9056  0.8492  1.0741
   53CHL1   C16 3869   0.792   1.458   7.490 -1.2049 -0.3621  0.1553
   53CHL1  H16A 3870   0.882   1.451   7.554 -1.2519  2.4133  0.6188
   53CHL1  H16B 3871   0.712   1.521   7.534 -0.8514  0.8976 -0.9471
   53CHL1   C17 3872   0.757   1.316   7.443 -0.4949 -0.1642 -0.0082
   53CHL1   H17 3873   0.649   1.312   7.415 -0.4427  0.8147 -0.3793
   53CHL1   C13 3874   0.836   1.288   7.308  0.1050 -0.2814 -0.1404
   53CHL1   C18 3875   0.990   1.259   7.325  0.1277 -0.2513  0.1282
   53CHL1  H18A 3876   1.029   1.349   7.376  0.9952  0.1623 -1.2076
   53CHL1  H18B 3877   1.007   1.166   7.384 -2.6586 -2.0151 -1.5947
   53CHL1  H18C 3878   1.039   1.259   7.225  1.6935 -3.2735  0.7839
   53CHL1   C12 3879   0.772   1.192   7.206  0.1328  0.4054  0.0542
   53CHL1  H12A 3880   0.798   1.092   7.246 -0.4113  1.3256  2.9069
   53CHL1  H12B 3881   0.661   1.198   7.209  0.1345  0.6732  3.4470
   53CHL1   C11 3882   0.833   1.204   7.061  0.4970  0.8684  0.1927
   53CHL1  H11A 3883   0.939   1.170   7.068  0.2614 -0.0606 -0.5506
   53CHL1  H11B 3884   0.785   1.139   6.985 -0.5412  1.6680  0.1446
   53CHL1    C9 3885   0.823   1.355   7.013  0.0551  0.0139  1.1583
   53CHL1    H9 3886   0.714   1.377   7.008  0.0137 -0.3771  0.1591
   53CHL1   C10 3887   0.883   1.380   6.877 -0.2701 -0.4553  0.3512
   53CHL1   C19 3888   1.034   1.325   6.866  0.0274 -0.5034  0.0644
   53CHL1  H19A 3889   1.086   1.349   6.770  0.0531 -1.3424 -0.1451
   53CHL1  H19B 3890   1.094   1.361   6.952  2.2874  0.5012 -1.8148
   53CHL1  H19C 3891   1.019   1.215   6.873 -2.8226 -0.3536 -2.0368
   53CHL1    C1 3892   0.791   1.297   6.777 -0.0435 -0.3102  0.3622
   53CHL1   H1A 3893   0.799   1.189   6.804  1.3542 -0.2500  0.2678
   53CHL1   H1B 3894   0.686   1.329   6.786 -0.1458 -0.5914  0.1913
   53CHL1    C2 3895   0.834   1.315   6.631  0.2135 -0.2040 -0.2650
   53CHL1   H2A 3896   0.758   1.272   6.563 -0.3388  1.5473 -0.8016
   53CHL1   H2B 3897   0.930   1.262   6.612 -0.7779 -2.7983  1.3968
   53CHL1   C20 3898   0.770   1.216   7.560 -0.2983  0.0758  0.0117
   53CHL1   H20 3899   0.877   1.192   7.577 -0.7584 -2.2881 -0.0935
   53CHL1   C21 3900   0.693   1.092   7.521  0.2189 -0.1799  0.0392
   53CHL1  H21A 3901   0.696   1.018   7.603 -0.6871 -1.0662 -0.7078
   53CHL1  H21B 3902   0.733   1.048   7.427  2.1569  0.9477  0.2825
   53CHL1  H21C 3903   0.588   1.119   7.495  0.7661  1.1206 -0.9694
   53CHL1   C22 3904   0.713   1.272   7.695  0.1069 -0.4115 -1.1639
   53CHL1  H22A 3905   0.747   1.376   7.715  2.4978 -1.4290  0.7122
   53CHL1  H22B 3906   0.603   1.266   7.680 -0.3167  1.5009  0.6174
   53CHL1   C23 3907   0.768   1.189   7.811 -0.5695  0.2490  0.0489
   53CHL1  H23A 3908   0.745   1.082   7.791 -3.2152  0.8712 -0.6826
   53CHL1  H23B 3909   0.878   1.199   7.803 -0.3115 -2.2158 -0.0838
   53CHL1   C24 3910   0.727   1.228   7.949  0.6650  0.8106 -0.5758
   53CHL1  H24A 3911   0.763   1.333   7.958 -1.8712  1.5590  2.4906
   53CHL1  H24B 3912   0.618   1.227   7.967  1.0701 -1.8122  2.6356
   53CHL1   C25 3913   0.804   1.156   8.061  0.2637 -1.2054  0.3120
   53CHL1   H25 3914   0.908   1.137   8.027  1.2952  0.8844  2.0135
   53CHL1   C26 3915   0.817   1.253   8.186 -0.3395  0.0257  0.1460
   53CHL1  H26A 3916   0.835   1.185   8.272 -4.4559  0.4615  1.5620
   53CHL1  H26B 3917   0.897   1.328   8.168  0.6300 -0.7058  1.2819
   53CHL1  H26C 3918   0.721   1.302   8.210  0.8140  1.4661  2.1559
   53CHL1   C27 3919   0.742   1.018   8.098 -0.0621  0.0507  0.2363
   53CHL1  H27A 3920   0.809   0.964   8.168 -0.1286 -0.1707  0.1325
   53CHL1  H27B 3921   0.641   1.023   8.143  0.6423 -0.0969  1.8881
   53CHL1  H27C 3922   0.738   0.955   8.006  1.6045  1.9595 -1.2399
   54CHL1    C3 3923   0.410   5.084   6.561  0.4265  0.4791  0.2072
   54CHL1    H3 3924   0.443   5.188   6.585 -0.3765  0.7817  0.0427
   54CHL1    O3 3925   0.389   5.083   6.422 -0.5499 -0.3794  0.3273
   54CHL1   H3' 3926   0.477   5.084   6.383 -1.0776 -0.6298 -0.9237
   54CHL1    C4 3927   0.516   4.974   6.584  0.6431 -0.5530  0.2768
   54CHL1   H4A 3928   0.466   4.884   6.544 -1.3525  0.3747  0.5334
   54CHL1   H4B 3929   0.608   4.991   6.525 -0.1402 -0.0936 -0.8636
   54CHL1    C5 3930   0.537   4.939   6.729 -0.0762 -0.3682 -0.2371
   54CHL1    C6 3931   0.663   4.940   6.776 -0.5959  0.4148  0.3520
   54CHL1    H6 3932   0.745   4.962   6.706 -1.0491  1.1769  0.0561
   54CHL1    C7 3933   0.704   4.903   6.916 -0.7276  0.1815 -0.1044
   54CHL1   H7A 3934   0.762   4.808   6.913 -1.6247 -0.3577 -1.6993
   54CHL1   H7B 3935   0.761   4.993   6.948 -1.0259  0.9477 -1.6157
   54CHL1    C8 3936   0.577   4.873   7.006  0.2374  1.1367  0.8080
   54CHL1    H8 3937   0.556   4.764   6.999  0.3329  1.1685 -0.0583
   54CHL1   C14 3938   0.606   4.901   7.154  0.7507 -0.3546 -0.1839
   54CHL1   H14 3939   0.623   5.010   7.150 -0.2009 -0.2126 -0.5927
   54CHL1   C15 3940   0.728   4.824   7.213 -0.6443 -0.2299 -0.2908
   54CHL1  H15A 3941   0.717   4.718   7.184 -1.3271  0.1898 -1.6654
   54CHL1  H15B 3942   0.820   4.862   7.165 -0.5339 -0.9686 -0.6735
   54CHL1   C16 3943   0.706   4.861   7.365 -0.2049  0.1704 -0.0334
   54CHL1  H16A 3944   0.703   4.763   7.417 -1.9108  0.3413  0.2537
   54CHL1  H16B 3945   0.780   4.932   7.407  2.8968 -2.0866 -1.3293
   54CHL1   C17 3946   0.564   4.930   7.388  0.3858  0.0879 -0.1457
   54CHL1   H17 3947   0.581   5.039   7.374 -1.1805  0.3045 -0.4576
   54CHL1   C13 3948   0.493   4.883   7.254 -0.4609  0.1007  0.0651
   54CHL1   C18 3949   0.460   4.738   7.269  0.3412  0.4852 -0.7147
   54CHL1  H18A 3950   0.453   4.686   7.172  0.9973 -0.8498 -0.0777
   54CHL1  H18B 3951   0.534   4.685   7.334 -0.6922 -0.1288 -0.0151
   54CHL1  H18C 3952   0.364   4.723   7.323  2.4159 -2.2240  2.6698
   54CHL1   C12 3953   0.378   4.968   7.203  0.3681  0.3583  0.7687
   54CHL1  H12A 3954   0.284   4.959   7.261 -0.2480 -0.3286 -0.3028
   54CHL1  H12B 3955   0.418   5.072   7.203  1.2856  0.0238 -0.6337
   54CHL1   C11 3956   0.339   4.939   7.062  0.0268 -0.0912 -0.1118
   54CHL1  H11A 3957   0.297   4.836   7.057 -1.2277  0.4533 -1.8310
   54CHL1  H11B 3958   0.253   5.005   7.038  1.0152  0.3401 -2.7897
   54CHL1    C9 3959   0.454   4.952   6.959 -0.2931  0.7435 -0.0991
   54CHL1    H9 3960   0.491   5.056   6.972 -0.9222  0.8979  0.4983
   54CHL1   C10 3961   0.420   4.922   6.816 -0.5728 -0.7872 -0.0688
   54CHL1   C19 3962   0.358   4.784   6.802  0.2879 -0.7379 -0.4933
   54CHL1  H19A 3963   0.433   4.704   6.819 -0.2573 -0.9144  1.3367
   54CHL1  H19B 3964   0.265   4.759   6.859 -1.1189  0.6655 -2.0898
   54CHL1  H19C 3965   0.317   4.769   6.700  0.9402 -0.1874 -0.8377
   54CHL1    C1 3966   0.315   5.034   6.780  1.1369 -0.2878 -0.0554
   54CHL1   H1A 3967   0.222   5.034   6.841 -0.4230  2.5277 -2.1556
   54CHL1   H1B 3968   0.359   5.129   6.815 -0.0619  0.0730  0.5300
   54CHL1    C2 3969   0.276   5.052   6.636 -0.1094 -0.1704 -0.6243
   54CHL1   H2A 3970   0.218   5.147   6.633  1.9900  1.1751 -0.5969
   54CHL1   H2B 3971   0.216   4.964   6.604  0.2039  0.5959 -3.6454
   54CHL1   C20 3972   0.489   4.902   7.519 -0.3618  0.5234 -0.5381
   54CHL1   H20 3973   0.445   4.800   7.526  5.2997 -2.4155 -1.6956
   54CHL1   C21 3974   0.376   5.004   7.530 -0.0418 -0.1521  0.2818
   54CHL1  H21A 3975   0.295   4.991   7.455 -3.1630 -1.5054  3.5812
   54CHL1  H21B 3976   0.410   5.109   7.528  0.6513 -0.3726  0.0374
   54CHL1  H21C 3977   0.325   4.997   7.628 -0.1301 -0.3641  0.2227
   54CHL1   C22 3978   0.588   4.920   7.640 -0.6999  0.0449 -0.0672
   54CHL1  H22A 3979   0.669   4.849   7.612  1.8806  2.7360  0.1183
   54CHL1  H22B 3980   0.632   5.022   7.640  1.3628 -0.7690  1.6082
   54CHL1   C23 3981   0.541   4.876   7.782  0.2489 -0.2083 -0.4359
   54CHL1  H23A 3982   0.510   4.962   7.845  0.6203 -0.8558  0.6659
   54CHL1  H23B 3983   0.456   4.805   7.768 -0.5447  0.4900  0.6111
   54CHL1   C24 3984   0.650   4.803   7.869  0.5665  0.0013  0.6409
   54CHL1  H24A 3985   0.699   4.717   7.818  1.6099  0.1456  1.3625
   54CHL1  H24B 3986   0.733   4.876   7.887  0.2650  0.6355 -0.4267
   54CHL1   C25 3987   0.596   4.763   8.007  0.2479 -0.1203 -0.2898
   54CHL1   H25 3988   0.500   4.708   7.995 -0.4566  1.4850 -2.5897
   54CHL1   C26 3989   0.703   4.682   8.078  0.8470  0.1829  0.3141
   54CHL1  H26A 3990   0.679   4.652   8.182  0.1537 -1.3524 -0.2683
   54CHL1  H26B 3991   0.729   4.591   8.020  3.4269  2.7790 -3.0160
   54CHL1  H26C 3992   0.793   4.746   8.085  0.0123  1.2680  1.6631
   54CHL1   C27 3993   0.566   4.887   8.091 -0.3373  0.2982 -0.4497
   54CHL1  H27A 3994   0.484   4.955   8.060 -0.3558  1.3276  1.6336
   54CHL1  H27B 3995   0.541   4.858   8.196  1.0865  1.0605  0.1267
   54CHL1  H27C 3996   0.660   4.945   8.093  0.4942 -1.0045  0.5703
   55CHL1    C3 3997   0.139   4.409   6.751  0.2810 -0.2518 -0.4544
   55CHL1    H3 3998   0.246   4.437   6.739  0.3155 -1.2829 -3.1864
   55CHL1    O3 3999   0.088   4.410   6.619  0.3879  0.5950  0.2142
   55CHL1   H3' 4000  -0.005   4.421   6.640 -0.2638 -3.0077 -0.0952
   55CHL1    C4 4001   0.127   4.269   6.802  0.4231  0.9756 -0.1264
   55CHL1   H4A 4002   0.020   4.239   6.805  0.4769  0.6674 -1.0305
   55CHL1   H4B 4003   0.176   4.204   6.727  2.3054  0.1835  1.6941
   55CHL1    C5 4004   0.178   4.241   6.938  0.1399 -0.2866 -0.3176
   55CHL1    C6 4005   0.273   4.150   6.957 -0.6142 -0.0668  0.5016
   55CHL1    H6 4006   0.307   4.087   6.874 -2.6415 -2.1115  1.1186
   55CHL1    C7 4007   0.332   4.122   7.091  0.2939 -0.0370  0.5357
   55CHL1   H7A 4008   0.321   4.014   7.115 -1.0177  0.1720  0.9639
   55CHL1   H7B 4009   0.439   4.151   7.105  0.1364  2.2000 -2.1450
   55CHL1    C8 4010   0.256   4.197   7.209 -0.2608  0.2366 -0.0190
   55CHL1    H8 4011   0.167   4.132   7.224  0.0032  0.1442  1.2326
   55CHL1   C14 4012   0.350   4.210   7.334 -0.1302  0.0355 -0.9300
   55CHL1   H14 4013   0.442   4.260   7.296  1.3440 -0.9825  1.0830
   55CHL1   C15 4014   0.417   4.087   7.393 -0.2109  0.5721  0.7676
   55CHL1  H15A 4015   0.340   4.007   7.405 -1.0252  1.5064  1.9370
   55CHL1  H15B 4016   0.499   4.052   7.327  0.5899  1.9953  0.9798
   55CHL1   C16 4017   0.467   4.120   7.534  0.3229  0.0356 -0.5025
   55CHL1  H16A 4018   0.438   4.032   7.596 -1.0328  2.6366  2.8651
   55CHL1  H16B 4019   0.577   4.125   7.533  0.2680  2.7148  0.1054
   55CHL1   C17 4020   0.402   4.257   7.561  0.2443  0.1074  0.2218
   55CHL1   H17 4021   0.471   4.336   7.524 -1.9466  0.4161 -3.7692
   55CHL1   C13 4022   0.294   4.277   7.453 -0.5662  0.0928 -0.4744
   55CHL1   C18 4023   0.161   4.204   7.495 -0.5341  0.3361 -0.4229
   55CHL1  H18A 4024   0.096   4.200   7.406 -0.7748 -0.8568 -0.2191
   55CHL1  H18B 4025   0.184   4.104   7.538  1.1856  0.8070 -0.1608
   55CHL1  H18C 4026   0.108   4.263   7.573 -1.2615  1.8916 -2.0351
   55CHL1   C12 4027   0.253   4.418   7.413 -0.2075 -0.9864 -0.4794
   55CHL1  H12A 4028   0.211   4.479   7.497  0.2451  0.1213 -1.0355
   55CHL1  H12B 4029   0.347   4.468   7.379 -1.0159 -0.6788 -2.3268
   55CHL1   C11 4030   0.157   4.414   7.291  0.5244 -0.2225 -0.3611
   55CHL1  H11A 4031   0.058   4.374   7.321  0.4356 -0.2184 -0.6516
   55CHL1  H11B 4032   0.134   4.518   7.257  1.5973  0.6727  1.4823
   55CHL1    C9 4033   0.213   4.337   7.170  0.7529  0.9537  0.2345
   55CHL1    H9 4034   0.300   4.399   7.141 -1.1678  3.8460  0.2959
   55CHL1   C10 4035   0.113   4.337   7.039  0.2363  1.0488 -0.1505
   55CHL1   C19 4036  -0.033   4.291   7.071 -0.5306  0.8762 -0.6058
   55CHL1  H19A 4037  -0.101   4.274   6.985  0.4477 -2.2656 -0.8756
   55CHL1  H19B 4038  -0.040   4.200   7.135  1.0238  2.8640  2.6594
   55CHL1  H19C 4039  -0.078   4.373   7.130  0.0887 -0.4864  1.9203
   55CHL1    C1 4040   0.122   4.480   6.986 -0.3208  0.3030  0.0556
   55CHL1   H1A 4041   0.060   4.534   7.060 -1.7078 -1.4510  0.2267
   55CHL1   H1B 4042   0.228   4.515   6.989  0.1179 -1.0452  0.8685
   55CHL1    C2 4043   0.069   4.501   6.847  0.1837 -0.2840  0.4739
   55CHL1   H2A 4044   0.067   4.606   6.811 -0.0721 -0.5414 -0.2691
   55CHL1   H2B 4045  -0.036   4.468   6.860 -0.2626  1.4252  1.4419
   55CHL1   C20 4046   0.369   4.263   7.711 -0.0925 -0.0611 -0.0100
   55CHL1   H20 4047   0.303   4.176   7.734 -1.8289  1.0009 -0.7437
   55CHL1   C21 4048   0.292   4.395   7.741 -0.0444 -0.2682 -0.7917
   55CHL1  H21A 4049   0.192   4.379   7.696  0.0147 -3.3383 -0.1139
   55CHL1  H21B 4050   0.343   4.484   7.700 -2.5973  0.8713 -1.6309
   55CHL1  H21C 4051   0.276   4.409   7.850 -4.9715  3.0003 -1.6651
   55CHL1   C22 4052   0.496   4.239   7.798 -0.1860 -0.2267 -0.3737
   55CHL1  H22A 4053   0.576   4.193   7.734  0.2829  1.2697 -0.9069
   55CHL1  H22B 4054   0.539   4.341   7.804  2.2340 -1.0979 -1.3628
   55CHL1   C23 4055   0.489   4.147   7.927 -0.4824 -0.4089 -0.0688
   55CHL1  H23A 4056   0.421   4.180   8.008 -0.3339 -1.2438  0.4121
   55CHL1  H23B 4057   0.449   4.047   7.899 -2.7740  0.5986 -0.6178
   55CHL1   C24 4058   0.625   4.122   7.995  0.2632  0.4296  0.5911
   55CHL1  H24A 4059   0.697   4.069   7.930  0.0841  2.1743 -1.1152
   55CHL1  H24B 4060   0.678   4.217   8.019  0.5669  0.5883 -0.6326
   55CHL1   C25 4061   0.607   4.051   8.127  0.5500  0.5342  0.2199
   55CHL1   H25 4062   0.522   3.979   8.126 -0.5157  1.7405  1.4095
   55CHL1   C26 4063   0.739   3.966   8.152  0.0144  0.0330  0.0868
   55CHL1  H26A 4064   0.762   3.921   8.053 -0.7404  0.5549 -0.3360
   55CHL1  H26B 4065   0.824   4.035   8.170  0.5486 -0.7056  0.4705
   55CHL1  H26C 4066   0.728   3.897   8.239  1.2888  0.3595  0.5313
   55CHL1   C27 4067   0.583   4.141   8.244  0.4779 -0.2050 -0.6732
   55CHL1  H27A 4068   0.491   4.202   8.233 -2.2414 -3.7723  0.5073
   55CHL1  H27B 4069   0.572   4.095   8.344 -1.5730 -1.6760 -1.5100
   55CHL1  H27C 4070   0.670   4.211   8.244  0.2951  0.0206 -0.6141
   56CHL1    C3 4071   0.964   3.371   6.564  0.0071  0.2015  0.3780
   56CHL1    H3 4072   1.074   3.358   6.579  0.0135 -0.6012 -0.2988
   56CHL1    O3 4073   0.929   3.370   6.431  0.3025  0.0807  0.0515
   56CHL1   H3' 4074   0.837   3.344   6.424  0.1248  0.8169 -0.5123
   56CHL1    C4 4075   0.885   3.255   6.632 -0.8510  0.0898 -0.1800
   56CHL1   H4A 4076   0.779   3.265   6.599 -1.0276  3.1643  1.0370
   56CHL1   H4B 4077   0.916   3.165   6.575 -0.4697  0.5041 -0.6380
   56CHL1    C5 4078   0.906   3.255   6.785  0.3944 -0.0518  0.0596
   56CHL1    C6 4079   0.955   3.149   6.844 -0.2525 -0.2959 -0.4215
   56CHL1    H6 4080   0.969   3.060   6.781 -0.1680 -0.3230 -0.3645
   56CHL1    C7 4081   0.976   3.134   6.995 -0.1529 -0.3968 -0.5447
   56CHL1   H7A 4082   0.937   3.046   7.051 -1.5039 -0.0939 -0.9706
   56CHL1   H7B 4083   1.083   3.138   7.023  0.1029 -0.1679 -1.4977
   56CHL1    C8 4084   0.916   3.252   7.066  0.2173 -0.1913  0.0825
   56CHL1    H8 4085   0.806   3.237   7.074  0.0987 -0.6114 -1.8946
   56CHL1   C14 4086   0.980   3.269   7.210 -0.2415  0.1509  0.3409
   56CHL1   H14 4087   1.085   3.301   7.194 -0.1939 -0.4479 -0.6500
   56CHL1   C15 4088   0.992   3.143   7.301 -0.6736  0.3340 -0.3364
   56CHL1  H15A 4089   0.895   3.088   7.294 -0.8556  0.8304 -2.6282
   56CHL1  H15B 4090   1.066   3.065   7.274 -1.1121  0.0783 -0.8278
   56CHL1   C16 4091   1.030   3.195   7.435 -0.6615 -0.3517  0.0853
   56CHL1  H16A 4092   0.957   3.155   7.509 -0.5220  0.3481  0.6090
   56CHL1  H16B 4093   1.135   3.172   7.464 -0.0544  0.5841 -1.2907
   56CHL1   C17 4094   1.003   3.355   7.431 -0.1432  0.2410 -0.1819
   56CHL1   H17 4095   1.105   3.395   7.412 -0.2561  0.4919 -0.2608
   56CHL1   C13 4096   0.916   3.376   7.304  0.4424 -0.2470  0.8954
   56CHL1   C18 4097   0.763   3.339   7.334  0.1103  0.6010  0.1824
   56CHL1  H18A 4098   0.769   3.250   7.401  0.5538 -1.4391 -2.4017
   56CHL1  H18B 4099   0.715   3.422   7.390 -2.5134 -0.8397  0.2256
   56CHL1  H18C 4100   0.712   3.310   7.240 -0.9902 -1.1036  1.2409
   56CHL1   C12 4101   0.931   3.513   7.229 -0.1898  0.0730  0.6467
   56CHL1  H12A 4102   0.861   3.585   7.276  0.7027  0.2870  1.6873
   56CHL1  H12B 4103   1.037   3.545   7.224  1.1632 -3.9592 -2.6931
   56CHL1   C11 4104   0.875   3.509   7.083  0.0771 -0.0866 -0.1923
   56CHL1  H11A 4105   0.770   3.476   7.096  0.2941  0.0773  2.8065
   56CHL1  H11B 4106   0.885   3.607   7.033 -1.1105  0.0268 -0.2289
   56CHL1    C9 4107   0.935   3.387   7.000  0.0956 -0.8725 -0.3637
   56CHL1    H9 4108   1.043   3.409   6.990 -0.0009 -0.8722 -1.6098
   56CHL1   C10 4109   0.878   3.388   6.854  0.3307 -0.2070 -0.3196
   56CHL1   C19 4110   0.726   3.407   6.854 -0.1095  0.5338  0.2236
   56CHL1  H19A 4111   0.670   3.346   6.928 -0.2899 -0.6160 -0.8319
   56CHL1  H19B 4112   0.692   3.510   6.880 -0.6336  0.1411  1.1222
   56CHL1  H19C 4113   0.686   3.399   6.750  1.6358  3.3533 -0.7833
   56CHL1    C1 4114   0.953   3.500   6.775  0.0417 -0.0359  0.0667
   56CHL1   H1A 4115   0.916   3.600   6.809  1.1455  0.3075  0.3022
   56CHL1   H1B 4116   1.061   3.502   6.801 -0.1230 -1.5732  0.9924
   56CHL1    C2 4117   0.924   3.504   6.628  0.4901 -0.2220  0.0804
   56CHL1   H2A 4118   0.981   3.585   6.577 -1.6283  0.4821 -1.3183
   56CHL1   H2B 4119   0.814   3.519   6.623  0.5098  1.9587  3.2384
   56CHL1   C20 4120   0.955   3.417   7.563  0.2818  0.3017  0.3474
   56CHL1   H20 4121   0.848   3.397   7.587  0.8566 -0.0382  2.9739
   56CHL1   C21 4122   0.949   3.571   7.550 -0.0350 -0.5890  0.6289
   56CHL1  H21A 4123   0.858   3.598   7.491  0.8929  0.4553 -0.3769
   56CHL1  H21B 4124   1.039   3.601   7.492 -0.2074 -1.0397  0.1175
   56CHL1  H21C 4125   0.955   3.630   7.644  0.9588 -0.5591  0.5585
   56CHL1   C22 4126   1.041   3.390   7.690 -0.6180 -0.0481  0.5039
   56CHL1  H22A 4127   1.079   3.288   7.672 -0.9071  0.0861 -0.9962
   56CHL1  H22B 4128   1.134   3.450   7.682 -0.3365 -0.5623 -0.0875
   56CHL1   C23 4129   0.965   3.399   7.823  0.4824  0.5835 -0.3358
   56CHL1  H23A 4130   0.943   3.505   7.847 -0.3972 -0.0811  2.2004
   56CHL1  H23B 4131   0.871   3.344   7.801  1.1537 -0.8309  0.1486
   56CHL1   C24 4132   1.033   3.340   7.953  0.2463  0.5845  0.5696
   56CHL1  H24A 4133   1.030   3.230   7.937  1.5394  0.8443 -2.1542
   56CHL1  H24B 4134   1.143   3.356   7.948  0.5202 -0.4561  2.4187
   56CHL1   C25 4135   0.967   3.368   8.088  0.2469  0.2717  0.2636
   56CHL1   H25 4136   0.971   3.479   8.090 -0.2830  0.4504 -2.8989
   56CHL1   C26 4137   0.814   3.344   8.089 -0.3431  0.0156  0.0657
   56CHL1  H26A 4138   0.771   3.411   8.012  1.7675 -0.2676 -1.4520
   56CHL1  H26B 4139   0.777   3.383   8.187 -0.7374 -1.0188  0.3449
   56CHL1  H26C 4140   0.795   3.235   8.079  1.6951 -0.3959  0.2532
   56CHL1   C27 4141   1.043   3.307   8.208  0.0369 -0.4915  0.0034
   56CHL1  H27A 4142   1.011   3.201   8.204 -0.1873 -0.4229 -0.0675
   56CHL1  H27B 4143   1.154   3.304   8.200  0.0454 -2.9596  0.2086
   56CHL1  H27C 4144   1.014   3.355   8.304  0.1025 -0.9695  0.2679
   57SAPC     N 4145   5.614   6.349  10.949  0.1423 -0.2799 -0.1598
   57SAPC   C12 4146   5.681   6.320  10.814 -0.3969 -1.0200  0.3237
   57SAPC  H12A 4147   5.692   6.213  10.806  0.9936 -0.8526 -0.3334
   57SAPC  H12B 4148   5.779   6.364  10.818 -0.9148  0.2281 -0.2903
   57SAPC   C13 4149   5.589   6.490  10.975 -0.3994 -0.1318 -0.8172
   57SAPC  H13A 4150   5.524   6.506  11.061  0.6653  2.0948 -0.3615
   57SAPC  H13B 4151   5.679   6.549  10.979  0.1775 -0.9923 -0.6621
   57SAPC  H13C 4152   5.525   6.525  10.896 -0.9570  0.8637  0.0501
   57SAPC   C14 4153   5.485   6.267  10.963 -0.7791 -0.1015  0.7376
   57SAPC  H14A 4154   5.419   6.287  10.879  0.0641 -0.7711 -0.1099
   57SAPC  H14B 4155   5.518   6.165  10.973  1.9660  0.5434 -0.4723
   57SAPC  H14C 4156   5.445   6.307  11.055  0.5675  1.3745  0.7373
   57SAPC   C15 4157   5.701   6.279  11.061 -0.5780  0.2711 -0.5681
   57SAPC  H15A 4158   5.804   6.312  11.059 -1.4139  3.1920 -0.6281
   57SAPC  H15B 4159   5.657   6.327  11.147  0.6199  1.3881 -0.5548
   57SAPC  H15C 4160   5.697   6.172  11.075 -0.9489  0.5100  1.5643
   57SAPC   C11 4161   5.610   6.367  10.682  0.7920 -0.6647  0.1792
   57SAPC  H11A 4162   5.668   6.343  10.591 -1.2568 -1.1119 -1.0822
   57SAPC  H11B 4163   5.599   6.477  10.693 -0.7260 -0.7360 -0.3283
   57SAPC     P 4164   5.473   6.156  10.613 -0.1289  0.1928  0.2544
   57SAPC   O13 4165   5.590   6.083  10.663 -0.4663 -0.3205 -0.4397
   57SAPC   O14 4166   5.336   6.105  10.647 -0.4626 -0.7044  0.2433
   57SAPC   O12 4167   5.482   6.309  10.667 -0.3931  0.3108 -0.5520
   57SAPC   O11 4168   5.487   6.181  10.462  0.4269 -0.3833 -0.4849
   57SAPC    C1 4169   5.418   6.285  10.393  0.3842 -0.2239 -0.4624
   57SAPC    HA 4170   5.364   6.249  10.303  0.0138 -0.0307 -0.3195
   57SAPC    HB 4171   5.332   6.327  10.450 -0.1120 -2.8668  0.8871
   57SAPC    C2 4172   5.504   6.398  10.344  0.3948  0.5262  0.6629
   57SAPC    HS 4173   5.567   6.430  10.430 -1.4628  4.9057  0.6369
   57SAPC   O21 4174   5.409   6.498  10.285 -0.0110 -0.9923 -0.0825
   57SAPC   C21 4175   5.460   6.616  10.262  0.4223 -0.4604 -0.6816
   57SAPC   O22 4176   5.557   6.661  10.320  0.0263 -0.3351  0.1782
   57SAPC   C22 4177   5.397   6.679  10.140  0.2342  0.5784 -0.2498
   57SAPC   H2R 4178   5.385   6.603  10.059  1.1863 -1.2159  1.2237
   57SAPC   H2S 4179   5.297   6.710  10.177  0.6594  0.0659  1.4184
   57SAPC    C3 4180   5.600   6.337  10.237 -0.2479 -0.0041 -0.3079
   57SAPC    HX 4181   5.538   6.298  10.154 -1.2246  1.0421 -0.0966
   57SAPC    HY 4182   5.656   6.253  10.284 -2.3823 -1.3671 -0.0590
   57SAPC   O31 4183   5.697   6.441  10.184  0.1986  0.6512 -0.3576
   57SAPC   C31 4184   5.807   6.464  10.260 -0.3314  0.0546 -0.1833
   57SAPC   O32 4185   5.817   6.424  10.376 -0.2281 -0.3445  0.2475
   57SAPC   C32 4186   5.916   6.541  10.188 -0.2066 -0.5680  0.0037
   57SAPC   H2X 4187   6.006   6.511  10.246 -0.4887  0.7242  1.1560
   57SAPC   H2Y 4188   5.898   6.651  10.193 -0.5290 -0.6634  1.2395
   57SAPC   C23 4189   5.462   6.809  10.085  0.2802 -0.0628 -0.1621
   57SAPC   H3R 4190   5.475   6.891  10.159 -0.1072  1.3779 -1.6209
   57SAPC   H3S 4191   5.385   6.848  10.014  2.1556 -1.8510 -3.3862
   57SAPC   C24 4192   5.593   6.793  10.003  0.0629  0.7767 -0.1518
   57SAPC   H4R 4193   5.679   6.784  10.073  1.1261  0.6861 -1.4294
   57SAPC   H4S 4194   5.616   6.889   9.951 -0.2047  1.3959  0.8472
   57SAPC   C25 4195   5.596   6.675   9.911 -0.9375  0.1270 -0.0923
   57SAPC   H5R 4196   5.612   6.577   9.958 -0.4975 -0.9465 -2.3387
   57SAPC   C26 4197   5.590   6.680   9.779  0.8958 -0.0762  0.6061
   57SAPC   H6R 4198   5.606   6.585   9.726  0.7314 -0.4020  1.1328
   57SAPC   C27 4199   5.559   6.797   9.686 -0.7843  0.1501 -0.3020
   57SAPC   H7R 4200   5.645   6.830   9.624 -2.8386  2.0993 -2.3144
   57SAPC   H7S 4201   5.521   6.886   9.740  1.5606  1.2176 -0.3055
   57SAPC   C28 4202   5.454   6.763   9.586  0.8059 -0.1060 -0.0492
   57SAPC   H8R 4203   5.396   6.676   9.620 -0.2668 -0.3175 -2.2378
   57SAPC   C29 4204   5.408   6.834   9.479 -0.3753  0.2810 -0.0818
   57SAPC   H9R 4205   5.342   6.777   9.412  2.4572 -3.5208  0.0111
   57SAPC  C210 4206   5.466   6.968   9.441  0.2845  0.3179  0.5233
   57SAPC  H10R 4207   5.454   7.040   9.524  0.4359 -0.7472  1.4882
   57SAPC  H10S 4208   5.402   7.002   9.356  0.1502  0.2750  0.6081
   57SAPC  C211 4209   5.609   6.984   9.393 -0.5067  0.3769  0.2741
   57SAPC  H11R 4210   5.673   7.009   9.479 -0.2738 -0.4020  0.3273
   57SAPC  C212 4211   5.647   6.993   9.266 -0.3479 -0.2441 -0.0976
   57SAPC  H12R 4212   5.752   7.010   9.240 -0.9237  1.8241 -1.3596
   57SAPC  C213 4213   5.557   6.974   9.149  0.5579 -0.0349 -0.1154
   57SAPC  H13R 4214   5.502   7.066   9.122 -1.5178 -1.2626 -0.2676
   57SAPC  H13S 4215   5.484   6.893   9.172  1.1663  0.1501  2.9214
   57SAPC  C214 4216   5.632   6.946   9.020 -0.0725 -0.4108  0.7597
   57SAPC  H14R 4217   5.702   7.025   8.988 -0.5605 -0.0279  0.6228
   57SAPC  C215 4218   5.630   6.839   8.940  0.5408  0.8230 -0.2637
   57SAPC  H15R 4219   5.692   6.836   8.849  1.1155  0.0337  0.1454
   57SAPC  C216 4220   5.547   6.717   8.976  0.2003  0.4718  0.1108
   57SAPC  H16R 4221   5.488   6.728   9.069  1.1419 -1.0213  0.9173
   57SAPC  H16S 4222   5.618   6.641   9.014 -1.3267 -0.1542  1.8457
   57SAPC  C217 4223   5.463   6.660   8.860  1.0601  0.2105 -0.2750
   57SAPC  H17R 4224   5.411   6.567   8.892  2.8222 -1.5563 -2.2106
   57SAPC  H17S 4225   5.537   6.630   8.782  1.1291 -0.0808 -0.0967
   57SAPC  C218 4226   5.350   6.761   8.808  0.7182 -0.5445  0.1766
   57SAPC  H18R 4227   5.385   6.867   8.800  0.8715 -0.6067 -0.0010
   57SAPC  H18S 4228   5.262   6.766   8.875  0.7082 -0.0867  0.1377
   57SAPC  C219 4229   5.314   6.708   8.670 -0.3171  0.6500  0.1216
   57SAPC  H19R 4230   5.305   6.598   8.683  0.3056  0.6993  1.1056
   57SAPC  H19S 4231   5.408   6.727   8.616  0.0203  0.1730  0.5312
   57SAPC  C220 4232   5.195   6.761   8.595  0.8151  0.4268 -0.0982
   57SAPC  H20R 4233   5.166   6.708   8.502 -0.6369  1.8498 -0.5058
   57SAPC  H20S 4234   5.203   6.871   8.578 -1.7650  0.5239 -1.0730
   57SAPC  H20T 4235   5.100   6.756   8.652 -0.1837  0.8864 -1.6792
   57SAPC   C33 4236   5.940   6.520  10.031 -0.3132  0.3084  0.1917
   57SAPC   H3X 4237   5.847   6.504   9.973 -1.5587  0.1551  2.1530
   57SAPC   H3Y 4238   5.987   6.419  10.032 -2.2544 -0.6653 -1.1692
   57SAPC   C34 4239   6.032   6.628   9.967  0.5716  0.0611 -0.4869
   57SAPC   H4X 4240   6.126   6.624  10.027  1.1910 -3.0381 -1.4741
   57SAPC   H4Y 4241   5.994   6.730   9.989  0.4781 -0.0008 -0.3544
   57SAPC   C35 4242   6.058   6.597   9.820  0.3281 -0.0121  0.2878
   57SAPC   H5X 4243   6.057   6.489   9.792  0.0279  0.0535  0.0419
   57SAPC   H5Y 4244   6.165   6.623   9.808  0.1467  0.6423  0.0912
   57SAPC   C36 4245   5.973   6.668   9.711  0.2825 -0.0493  0.3156
   57SAPC   H6X 4246   5.987   6.777   9.723  0.7204 -0.1747  0.9972
   57SAPC   H6Y 4247   5.868   6.641   9.735  0.1549  0.0364 -0.1349
   57SAPC   C37 4248   6.023   6.629   9.575 -0.8311  0.3678  0.1716
   57SAPC   H7X 4249   6.134   6.629   9.568 -0.7211  1.3149  1.4308
   57SAPC   H7Y 4250   5.987   6.702   9.499 -0.6329 -0.4148 -0.6857
   57SAPC   C38 4251   5.973   6.496   9.525  0.3117 -0.2259  0.0748
   57SAPC   H8X 4252   5.863   6.495   9.508 -0.1443 -0.5167  2.6029
   57SAPC   H8Y 4253   5.972   6.429   9.614 -4.3966  0.0488  0.4770
   57SAPC   C39 4254   6.064   6.440   9.412  0.2260 -0.0998  0.0155
   57SAPC   H9X 4255   6.033   6.333   9.402 -1.0478  0.1399  1.0565
   57SAPC   H9Y 4256   6.170   6.424   9.444  0.4138 -0.5146 -0.7887
   57SAPC  C310 4257   6.051   6.522   9.288 -0.0160 -0.2205 -0.0246
   57SAPC  H10X 4258   6.094   6.622   9.309  2.8089 -1.6698  1.6769
   57SAPC  H10Y 4259   5.944   6.522   9.256  0.4288 -0.4434 -1.6374
   57SAPC  C311 4260   6.137   6.466   9.174  0.4744 -0.2527 -0.1926
   57SAPC  H11X 4261   6.086   6.383   9.120 -1.4243  0.8030 -0.1095
   57SAPC  H11Y 4262   6.233   6.426   9.211 -0.2083 -0.3500  1.5648
   57SAPC  C312 4263   6.187   6.580   9.085 -0.3474  0.5406  0.1052
   57SAPC  H12X 4264   6.242   6.648   9.154  1.6079 -0.8868  0.0429
   57SAPC  H12Y 4265   6.097   6.635   9.053  0.6320  1.3950 -1.3134
   57SAPC  C313 4266   6.277   6.547   8.961  0.3634  0.9965 -0.4952
   57SAPC  H13X 4267   6.350   6.468   8.989 -0.9839 -0.0995  0.0828
   57SAPC  H13Y 4268   6.334   6.637   8.930 -0.0000  1.3024 -0.2877
   57SAPC  C314 4269   6.193   6.494   8.843  0.0382  0.7624  0.1901
   57SAPC  H14X 4270   6.100   6.555   8.844 -0.4058  0.1453 -0.8930
   57SAPC  H14Y 4271   6.179   6.385   8.858  1.6629  0.7216  1.6469
   57SAPC  C315 4272   6.255   6.509   8.702 -0.4639  0.2122 -0.1295
   57SAPC  H15X 4273   6.347   6.447   8.701 -1.5957 -1.5742  1.0506
   57SAPC  H15Y 4274   6.274   6.618   8.691  0.8168  0.0817  0.6206
   57SAPC  C316 4275   6.162   6.480   8.593  0.4853 -0.1575  0.2238
   57SAPC  H16X 4276   6.204   6.514   8.495  3.1708 -1.1194  0.9632
   57SAPC  H16Y 4277   6.064   6.529   8.613  0.0145 -0.1192 -1.8481
   57SAPC  C317 4278   6.133   6.328   8.571  0.5709 -0.3556 -0.0730
   57SAPC  H17X 4279   6.063   6.333   8.485  1.1619 -1.7776 -0.6647
   57SAPC  H17Y 4280   6.092   6.282   8.663  1.4657  0.9329  1.0121
   57SAPC  C318 4281   6.256   6.241   8.527 -0.3577  0.2886 -0.5877
   57SAPC  H18X 4282   6.218   6.139   8.503  0.0533 -0.3897  1.4774
   57SAPC  H18Y 4283   6.328   6.224   8.610 -2.4085 -0.6514  1.1231
   57SAPC  H18Z 4284   6.309   6.285   8.440  1.6162  0.2289  0.5378
   58SAPC     N 4285   0.623   5.851  10.969  0.5268 -0.1921  0.6574
   58SAPC   C12 4286   0.753   5.824  10.900 -0.2574  0.2864 -0.6830
   58SAPC  H12A 4287   0.828   5.801  10.975 -1.6185 -2.0225  0.1002
   58SAPC  H12B 4288   0.783   5.916  10.854  0.5788 -0.5019 -1.7833
   58SAPC   C13 4289   0.635   5.985  11.045 -0.1421  0.2396 -0.7875
   58SAPC  H13A 4290   0.703   5.987  11.129 -0.2859 -1.8721 -0.5697
   58SAPC  H13B 4291   0.654   6.069  10.980  1.1528  1.0691  0.5973
   58SAPC  H13C 4292   0.542   6.002  11.097 -1.0439 -0.5975 -2.0738
   58SAPC   C14 4293   0.512   5.863  10.878 -0.3844  0.3682  0.1118
   58SAPC  H14A 4294   0.414   5.871  10.923  0.4468  1.1314  1.8961
   58SAPC  H14B 4295   0.531   5.942  10.806  0.4901 -0.3401 -0.4608
   58SAPC  H14C 4296   0.503   5.770  10.825  0.8223 -1.3727  2.7578
   58SAPC   C15 4297   0.597   5.741  11.067 -0.6093  0.2753  0.0048
   58SAPC  H15A 4298   0.666   5.746  11.150 -1.9526  0.4282  1.1637
   58SAPC  H15B 4299   0.500   5.750  11.115 -1.0289 -1.8546 -0.3348
   58SAPC  H15C 4300   0.587   5.647  11.015 -3.4190 -0.1468  1.1150
   58SAPC   C11 4301   0.762   5.721  10.793 -0.1262 -0.3097 -0.7772
   58SAPC  H11A 4302   0.870   5.727  10.767  0.3289  0.7394  1.1974
   58SAPC  H11B 4303   0.695   5.761  10.713  2.1905  1.8298 -1.7827
   58SAPC     P 4304   0.629   5.503  10.748  0.3243 -0.0458  0.2421
   58SAPC   O13 4305   0.626   5.361  10.790  0.3076  0.5812 -0.5030
   58SAPC   O14 4306   0.492   5.562  10.736 -0.4717 -0.1236 -0.3889
   58SAPC   O12 4307   0.720   5.591  10.838 -0.1517 -0.4206 -0.1339
   58SAPC   O11 4308   0.693   5.523  10.604 -0.2392  0.6313 -0.1330
   58SAPC    C1 4309   0.783   5.434  10.535 -0.2395 -0.0303  0.5357
   58SAPC    HA 4310   0.841   5.363  10.599 -1.3600  0.4231  2.1169
   58SAPC    HB 4311   0.733   5.367  10.463  1.4661 -0.1680 -0.5818
   58SAPC    C2 4312   0.887   5.515  10.449  0.1616 -0.1696 -0.0188
   58SAPC    HS 4313   0.929   5.590  10.520  1.7059 -1.0374  0.0395
   58SAPC   O21 4314   0.815   5.579  10.339  0.0425 -0.4466  0.3286
   58SAPC   C21 4315   0.854   5.699  10.313 -0.4178  0.0451  0.0410
   58SAPC   O22 4316   0.954   5.750  10.365 -0.0524 -0.4446 -0.3163
   58SAPC   C22 4317   0.788   5.748  10.189  0.5846 -0.7235  0.6196
   58SAPC   H2R 4318   0.863   5.740  10.107 -0.1795 -1.0341 -0.0725
   58SAPC   H2S 4319   0.701   5.683  10.164  0.5918  0.7102 -4.2039
   58SAPC    C3 4320   0.995   5.424  10.393 -0.0744 -0.0021 -0.6035
   58SAPC    HX 4321   1.045   5.386  10.485 -1.1233  2.5443  1.1453
   58SAPC    HY 4322   1.071   5.488  10.343  0.2347  0.7858  0.8094
   58SAPC   O31 4323   0.948   5.313  10.305 -0.2305 -0.4083 -0.1981
   58SAPC   C31 4324   0.981   5.325  10.176  0.2800 -0.3764 -0.3751
   58SAPC   O32 4325   1.050   5.414  10.127 -0.0643 -0.0553 -0.2103
   58SAPC   C32 4326   0.903   5.220  10.089 -0.4526  0.8410 -0.4031
   58SAPC   H2X 4327   0.793   5.230  10.098 -0.8772 -3.4163  2.1029
   58SAPC   H2Y 4328   0.913   5.122  10.141 -1.6253  0.4476 -0.8759
   58SAPC   C23 4329   0.735   5.894  10.202  0.3290 -0.0273 -0.4652
   58SAPC   H3R 4330   0.821   5.963  10.219  0.6857 -0.4988 -0.3116
   58SAPC   H3S 4331   0.669   5.913  10.289  0.9382  0.2954 -0.0611
   58SAPC   C24 4332   0.661   5.951  10.078 -0.6267  0.0298  0.0416
   58SAPC   H4R 4333   0.726   5.943   9.988  0.2155  0.8618  0.5594
   58SAPC   H4S 4334   0.626   6.054  10.097  0.3892  0.2743  0.6879
   58SAPC   C25 4335   0.527   5.877  10.051 -0.1101  0.0097  0.2122
   58SAPC   H5R 4336   0.466   5.853  10.140 -1.8230  0.4209 -0.8129
   58SAPC   C26 4337   0.498   5.817   9.931 -0.1942  0.1527  0.3724
   58SAPC   H6R 4338   0.403   5.764   9.917 -0.6981  1.2733 -0.6061
   58SAPC   C27 4339   0.582   5.830   9.800  0.0855  0.1926 -0.0272
   58SAPC   H7R 4340   0.620   5.934   9.796 -0.1161  0.3201  1.0044
   58SAPC   H7S 4341   0.509   5.818   9.717 -0.5272  2.6120  0.0901
   58SAPC   C28 4342   0.680   5.716   9.791 -0.1568 -0.4474  0.5127
   58SAPC   H8R 4343   0.729   5.693   9.887 -1.9077  0.0141  1.5521
   58SAPC   C29 4344   0.700   5.623   9.688 -0.0763 -0.3816  0.0039
   58SAPC   H9R 4345   0.777   5.546   9.696 -0.7262 -1.1137 -0.6125
   58SAPC  C210 4346   0.633   5.616   9.552  0.0573 -0.4088  0.0118
   58SAPC  H10R 4347   0.525   5.605   9.576 -0.5867  1.2288 -1.8881
   58SAPC  H10S 4348   0.684   5.532   9.500  3.0471  1.3121 -0.0764
   58SAPC  C211 4349   0.638   5.745   9.472 -0.2642 -0.2186 -0.0936
   58SAPC  H11R 4350   0.701   5.827   9.509  1.2139 -0.2738 -2.2980
   58SAPC  C212 4351   0.616   5.743   9.344 -0.4844 -0.5528  0.2607
   58SAPC  H12R 4352   0.625   5.843   9.300 -0.9830 -1.2443 -1.5150
   58SAPC  C213 4353   0.559   5.633   9.256  0.2420  0.0910 -0.6512
   58SAPC  H13R 4354   0.466   5.662   9.202  0.3904  1.7469 -0.0998
   58SAPC  H13S 4355   0.513   5.551   9.315 -0.0815  1.0399  0.4623
   58SAPC  C214 4356   0.647   5.568   9.159 -0.4547 -0.5368 -0.1736
   58SAPC  H14R 4357   0.699   5.481   9.201  0.2770 -0.2602 -0.5031
   58SAPC  C215 4358   0.708   5.624   9.048 -0.1515  0.8076  0.0003
   58SAPC  H15R 4359   0.775   5.564   8.984  0.9368  1.3297  0.6231
   58SAPC  C216 4360   0.648   5.738   8.972  0.7887  0.6108 -0.5551
   58SAPC  H16R 4361   0.646   5.819   9.048  0.2700  0.1241 -0.0498
   58SAPC  H16S 4362   0.544   5.707   8.948  0.4133 -0.5813  2.3251
   58SAPC  C217 4363   0.725   5.787   8.844  1.1925 -0.6430 -0.2291
   58SAPC  H17R 4364   0.830   5.808   8.875  1.8522 -2.0297 -1.3926
   58SAPC  H17S 4365   0.687   5.888   8.816 -0.6484 -1.0764  0.5931
   58SAPC  C218 4366   0.717   5.699   8.719  0.3315 -0.1989  0.4305
   58SAPC  H18R 4367   0.607   5.689   8.703  0.4503  0.2967 -0.8624
   58SAPC  H18S 4368   0.766   5.599   8.729 -1.5683 -1.0958  1.3316
   58SAPC  C219 4369   0.790   5.771   8.606  1.0402 -0.3137  0.5735
   58SAPC  H19R 4370   0.900   5.777   8.621  1.4346 -2.3624 -1.0760
   58SAPC  H19S 4371   0.754   5.876   8.607  1.3955 -0.1924  0.8490
   58SAPC  C220 4372   0.772   5.721   8.460  0.1623 -0.3377 -0.1617
   58SAPC  H20R 4373   0.806   5.784   8.375  1.4955 -2.4852 -1.3158
   58SAPC  H20S 4374   0.666   5.696   8.442  0.8078 -2.2720 -1.6814
   58SAPC  H20T 4375   0.828   5.625   8.455  2.2333  0.8208 -0.3322
   58SAPC   C33 4376   0.966   5.200   9.955  0.0864 -0.1683 -0.0146
   58SAPC   H3X 4377   0.925   5.109   9.906 -0.5730  1.3381 -2.4214
   58SAPC   H3Y 4378   1.076   5.184   9.959 -0.0018 -0.6984  0.6268
   58SAPC   C34 4379   0.919   5.322   9.864  0.0366  0.0384  0.4303
   58SAPC   H4X 4380   0.990   5.406   9.880  0.7328 -0.5056  0.2665
   58SAPC   H4Y 4381   0.813   5.348   9.886 -0.0632  1.1222 -1.1515
   58SAPC   C35 4382   0.911   5.281   9.716 -0.4509 -0.1007 -0.6972
   58SAPC   H5X 4383   0.902   5.371   9.651  0.5964 -0.3073 -1.1364
   58SAPC   H5Y 4384   0.836   5.203   9.693 -0.2477  0.1123 -2.1999
   58SAPC   C36 4385   1.045   5.226   9.669  0.0487  0.7272 -0.3511
   58SAPC   H6X 4386   1.100   5.156   9.737  0.6707 -0.2901 -1.8229
   58SAPC   H6Y 4387   1.112   5.314   9.654  0.1935  0.4838 -1.2051
   58SAPC   C37 4388   1.037   5.158   9.529  0.0449  0.8110  0.3289
   58SAPC   H7X 4389   1.007   5.051   9.526 -0.7728  1.0522 -0.9829
   58SAPC   H7Y 4390   1.141   5.142   9.493 -0.0713 -3.0783  1.2332
   58SAPC   C38 4391   0.954   5.230   9.418  0.0342 -0.3818  0.1113
   58SAPC   H8X 4392   0.965   5.340   9.426  1.2674 -0.4107 -1.0103
   58SAPC   H8Y 4393   0.848   5.202   9.438  0.2151 -2.2474 -1.2612
   58SAPC   C39 4394   1.012   5.190   9.281 -0.4786  0.3078  0.0818
   58SAPC   H9X 4395   0.962   5.092   9.266 -2.7291  1.2860  0.7269
   58SAPC   H9Y 4396   1.121   5.176   9.297 -0.3774  1.7735  0.8775
   58SAPC  C310 4397   0.970   5.286   9.169  0.4260  0.2387 -0.4665
   58SAPC  H10X 4398   0.997   5.393   9.181 -0.5471  0.2690  2.0819
   58SAPC  H10Y 4399   0.861   5.268   9.165  0.5804 -0.8232 -4.4863
   58SAPC  C311 4400   1.042   5.245   9.038  0.0842  0.4075  0.0599
   58SAPC  H11X 4401   1.013   5.140   9.017  1.4015  0.4644 -2.4373
   58SAPC  H11Y 4402   1.150   5.243   9.065  0.3456 -0.2042 -0.9903
   58SAPC  C312 4403   1.004   5.345   8.926 -0.2172 -0.2018 -0.5281
   58SAPC  H12X 4404   1.006   5.453   8.949 -0.9347 -0.2038 -0.4474
   58SAPC  H12Y 4405   0.899   5.324   8.898 -0.0170 -0.9548 -0.7640
   58SAPC  C313 4406   1.096   5.320   8.803  0.0086  0.8080  0.0770
   58SAPC  H13X 4407   1.118   5.212   8.789 -0.2441  0.7459  0.1511
   58SAPC  H13Y 4408   1.197   5.361   8.826  0.4902  0.1633 -0.8300
   58SAPC  C314 4409   1.030   5.366   8.674  0.4147 -0.0153  0.7039
   58SAPC  H14X 4410   1.017   5.476   8.661 -0.2609  0.2876  3.3487
   58SAPC  H14Y 4411   0.923   5.339   8.665  1.2455 -2.8273 -3.2745
   58SAPC  C315 4412   1.110   5.307   8.551 -0.8894 -0.3196 -0.0813
   58SAPC  H15X 4413   1.109   5.197   8.567 -1.7375 -0.3303 -0.1616
   58SAPC  H15Y 4414   1.218   5.330   8.561  0.0204 -3.4411 -1.2429
   58SAPC  C316 4415   1.065   5.345   8.414  0.6258  0.2422  0.4335
   58SAPC  H16X 4416   1.086   5.451   8.389 -1.0514 -0.0531 -2.7045
   58SAPC  H16Y 4417   0.954   5.335   8.411  0.5824  0.1291  1.7330
   58SAPC  C317 4418   1.114   5.248   8.300 -0.1869  0.2787  0.5455
   58SAPC  H17X 4419   1.116   5.141   8.328 -3.6859 -0.2053 -0.5959
   58SAPC  H17Y 4420   1.220   5.278   8.283  0.2863 -1.6066  0.0145
   58SAPC  C318 4421   1.048   5.270   8.162  0.8737  0.5452 -0.5625
   58SAPC  H18X 4422   1.096   5.216   8.077 -0.3015 -0.5702 -0.5471
   58SAPC  H18Y 4423   1.053   5.378   8.135 -2.0152  1.4641  2.0369
   58SAPC  H18Z 4424   0.942   5.237   8.166  1.4497 -1.6591 -1.8549
   59SAPC     N 4425   3.156   6.463  10.454  0.0449 -0.3267 -0.1489
   59SAPC   C12 4426   3.169   6.343  10.358 -0.3177 -0.2243  0.1900
   59SAPC  H12A 4427   3.250   6.277  10.389 -1.5362 -1.8211  0.1271
   59SAPC  H12B 4428   3.207   6.381  10.265  1.2012  0.0497  0.8823
   59SAPC   C13 4429   3.059   6.565  10.395  0.2089 -0.4665 -0.3861
   59SAPC  H13A 4430   3.076   6.599  10.294 -3.9786 -0.6288 -1.3206
   59SAPC  H13B 4431   2.960   6.524  10.408  0.0679 -0.9056 -2.5325
   59SAPC  H13C 4432   3.065   6.659  10.448  1.1862  0.8975 -2.7570
   59SAPC   C14 4433   3.094   6.419  10.584 -0.1063 -0.0877 -0.2359
   59SAPC  H14A 4434   3.015   6.349  10.562 -1.3650  1.1236  0.3125
   59SAPC  H14B 4435   3.163   6.360  10.642 -0.8163  0.0914  0.8134
   59SAPC  H14C 4436   3.068   6.506  10.643  2.2590  1.1032 -0.8374
   59SAPC   C15 4437   3.287   6.529  10.473  0.1376  0.4207  0.7175
   59SAPC  H15A 4438   3.285   6.609  10.546  1.3640  0.2664  0.9358
   59SAPC  H15B 4439   3.363   6.462  10.510 -2.6007 -3.3724  0.1838
   59SAPC  H15C 4440   3.313   6.568  10.377  0.1158  0.9017  0.9046
   59SAPC   C11 4441   3.040   6.261  10.334 -0.0222 -1.0256  0.1120
   59SAPC  H11A 4442   3.060   6.195  10.247 -1.2345 -0.1904 -0.8375
   59SAPC  H11B 4443   2.947   6.320  10.318 -0.5057 -0.9551  2.7306
   59SAPC     P 4444   3.093   6.057  10.485 -0.0122  0.3374  0.2542
   59SAPC   O13 4445   3.198   6.110  10.571  0.0818 -0.4888  0.2253
   59SAPC   O14 4446   3.009   5.942  10.526 -0.0871 -0.2872 -0.0589
   59SAPC   O12 4447   3.004   6.180  10.446 -0.1891  0.8743 -0.3242
   59SAPC   O11 4448   3.157   6.014  10.345  0.1027  0.4748  0.1505
   59SAPC    C1 4449   3.195   5.879  10.313  0.2312 -0.3934 -0.0917
   59SAPC    HA 4450   3.306   5.876  10.301  0.1711  1.2323 -1.3349
   59SAPC    HB 4451   3.178   5.819  10.405 -1.9484  1.2390  0.6579
   59SAPC    C2 4452   3.117   5.828  10.191  1.4158  0.0780  0.1625
   59SAPC    HS 4453   3.150   5.727  10.159  1.1956  0.4414 -1.2902
   59SAPC   O21 4454   3.124   5.915  10.078  0.1938 -0.1872  0.2873
   59SAPC   C21 4455   3.240   5.915  10.015 -0.7598  1.3618 -0.0466
   59SAPC   O22 4456   3.325   5.829  10.033  0.4082 -0.7611 -0.0984
   59SAPC   C22 4457   3.235   6.028   9.913  0.9519  0.0530  0.3584
   59SAPC   H2R 4458   3.130   6.061   9.896  0.2052 -2.3647 -0.1548
   59SAPC   H2S 4459   3.287   6.121   9.945 -2.7399  2.2647  0.5546
   59SAPC    C3 4460   2.966   5.811  10.222 -0.0523  0.1459 -0.2545
   59SAPC    HX 4461   2.920   5.912  10.229  0.1618  0.1558  1.1217
   59SAPC    HY 4462   2.964   5.771  10.325  2.3118  1.2275  0.3006
   59SAPC   O31 4463   2.901   5.730  10.126  1.1235  0.2941  0.7631
   59SAPC   C31 4464   2.781   5.682  10.154  0.3170 -0.3000 -0.3388
   59SAPC   O32 4465   2.721   5.703  10.258  0.4967 -0.0141  0.5155
   59SAPC   C32 4466   2.733   5.596  10.037  0.5662  0.2271  0.0799
   59SAPC   H2X 4467   2.700   5.498  10.078  1.5768 -0.2632 -0.2708
   59SAPC   H2Y 4468   2.818   5.571   9.971  0.4796 -0.9981  0.4147
   59SAPC   C23 4469   3.289   5.983   9.775  0.2138 -0.3359  0.3292
   59SAPC   H3R 4470   3.220   5.923   9.712 -1.0234  0.1204  1.2030
   59SAPC   H3S 4471   3.382   5.929   9.803 -0.2722  0.2239  3.4610
   59SAPC   C24 4472   3.345   6.101   9.691 -0.6583 -0.2161 -0.2031
   59SAPC   H4R 4473   3.400   6.056   9.605 -1.1938 -0.3664 -0.4701
   59SAPC   H4S 4474   3.420   6.165   9.741  0.2573 -0.2533 -1.4609
   59SAPC   C25 4475   3.240   6.189   9.633 -0.3483 -0.2572 -0.6643
   59SAPC   H5R 4476   3.197   6.240   9.720 -1.8360 -0.8442 -1.0233
   59SAPC   C26 4477   3.195   6.194   9.510  0.6380 -0.1536  0.5620
   59SAPC   H6R 4478   3.108   6.256   9.487 -0.0165 -1.7428 -1.5659
   59SAPC   C27 4479   3.245   6.116   9.388 -0.5298 -0.4771 -0.5460
   59SAPC   H7R 4480   3.163   6.076   9.325 -0.3772 -0.1898 -0.9282
   59SAPC   H7S 4481   3.300   6.025   9.421  1.1399 -0.2069 -2.4111
   59SAPC   C28 4482   3.336   6.211   9.320  0.2303 -0.0600  0.1035
   59SAPC   H8R 4483   3.421   6.255   9.375  1.1530  0.0768 -1.3627
   59SAPC   C29 4484   3.363   6.218   9.186 -0.0579  0.7652  0.2235
   59SAPC   H9R 4485   3.446   6.285   9.160  2.2378 -1.7358  0.6334
   59SAPC  C210 4486   3.297   6.147   9.070 -0.0806 -0.8161  0.2731
   59SAPC  H10R 4487   3.221   6.212   9.022  0.6812  0.0650  0.2219
   59SAPC  H10S 4488   3.232   6.067   9.110 -0.3532 -1.0933 -0.7117
   59SAPC  C211 4489   3.398   6.087   8.974 -0.5608 -0.5195  0.4590
   59SAPC  H11R 4490   3.466   6.014   9.020 -0.1066 -0.1574  0.3677
   59SAPC  C212 4491   3.435   6.125   8.845 -0.5080 -0.4772 -0.7887
   59SAPC  H12R 4492   3.509   6.061   8.796 -0.7409 -0.8978 -0.5974
   59SAPC  C213 4493   3.373   6.232   8.769 -0.1642 -0.2781 -0.0968
   59SAPC  H13R 4494   3.424   6.237   8.670  0.8866 -1.2280  0.3711
   59SAPC  H13S 4495   3.400   6.330   8.815 -1.6554 -0.0081  0.2320
   59SAPC  C214 4496   3.226   6.229   8.756  0.1067  0.1715  0.7070
   59SAPC  H14R 4497   3.181   6.177   8.842 -0.8010 -0.1763  0.0359
   59SAPC  C215 4498   3.148   6.268   8.650 -0.2753  0.5453  0.6957
   59SAPC  H15R 4499   3.042   6.240   8.641  0.4687 -2.2945 -0.1821
   59SAPC  C216 4500   3.211   6.343   8.531  0.2249 -0.0882 -0.3473
   59SAPC  H16R 4501   3.304   6.382   8.578  0.3862 -1.5949  0.6648
   59SAPC  H16S 4502   3.133   6.412   8.493 -0.7803  0.5969  2.6845
   59SAPC  C217 4503   3.252   6.254   8.415  0.0953  0.5300  0.1040
   59SAPC  H17R 4504   3.288   6.156   8.451 -2.0631 -1.5111 -2.7513
   59SAPC  H17S 4505   3.334   6.294   8.351  0.3764 -0.5655 -0.2435
   59SAPC  C218 4506   3.132   6.219   8.326 -0.6173  0.2799  0.4589
   59SAPC  H18R 4507   3.077   6.306   8.284  0.5422  0.7599 -0.1287
   59SAPC  H18S 4508   3.057   6.170   8.391  0.3897 -1.0413  0.6790
   59SAPC  C219 4509   3.173   6.136   8.200 -1.0132 -0.2016  0.2639
   59SAPC  H19R 4510   3.081   6.099   8.150  0.2539 -1.5226 -1.2036
   59SAPC  H19S 4511   3.256   6.068   8.227  2.0372  2.7201 -0.9209
   59SAPC  C220 4512   3.227   6.229   8.091  0.3337 -0.1030 -0.1556
   59SAPC  H20R 4513   3.278   6.169   8.014  1.3665  0.8843 -0.2721
   59SAPC  H20S 4514   3.276   6.316   8.140  0.2843  1.1243 -2.1709
   59SAPC  H20T 4515   3.141   6.266   8.030  1.1436  2.0866 -0.0745
   59SAPC   C33 4516   2.633   5.672   9.945 -0.3868 -0.3999  0.3045
   59SAPC   H3X 4517   2.548   5.703  10.009 -0.5838 -1.0403  0.3636
   59SAPC   H3Y 4518   2.605   5.597   9.867  1.0300  0.0003 -0.6113
   59SAPC   C34 4519   2.696   5.787   9.863  0.9002  0.2929  0.8469
   59SAPC   H4X 4520   2.771   5.845   9.922  1.9287 -0.5506  0.4113
   59SAPC   H4Y 4521   2.616   5.861   9.845  3.0592  2.6984  0.5698
   59SAPC   C35 4522   2.752   5.736   9.727  0.0644 -0.3127 -0.0349
   59SAPC   H5X 4523   2.664   5.693   9.675 -1.6308  3.0249 -0.1871
   59SAPC   H5Y 4524   2.834   5.663   9.741 -0.7593 -1.2316  0.1153
   59SAPC   C36 4525   2.805   5.847   9.632  0.0930 -0.1702 -0.9952
   59SAPC   H6X 4526   2.857   5.921   9.695  1.6983 -1.9824 -0.0910
   59SAPC   H6Y 4527   2.709   5.885   9.589 -0.5565 -0.7240 -0.0890
   59SAPC   C37 4528   2.895   5.801   9.510 -0.0487  0.0209  0.0037
   59SAPC   H7X 4529   2.862   5.700   9.477  0.0692 -0.5258  1.4823
   59SAPC   H7Y 4530   2.997   5.783   9.549 -0.8320  0.3252  2.3574
   59SAPC   C38 4531   2.901   5.900   9.384 -0.4684 -0.5471 -0.2551
   59SAPC   H8X 4532   3.002   5.904   9.339 -0.4622  1.1166 -0.1513
   59SAPC   H8Y 4533   2.888   6.007   9.412 -1.0757 -0.3289 -1.2966
   59SAPC   C39 4534   2.808   5.864   9.261  0.6069  0.7193  0.1317
   59SAPC   H9X 4535   2.702   5.867   9.294 -0.0626 -2.1659 -1.3424
   59SAPC   H9Y 4536   2.810   5.760   9.221  2.6026  0.8532 -0.1894
   59SAPC  C310 4537   2.830   5.964   9.147  0.4279 -0.2873 -0.0552
   59SAPC  H10X 4538   2.851   6.066   9.184 -1.1635  0.2879 -0.6483
   59SAPC  H10Y 4539   2.726   5.980   9.110  0.0041  1.7147  1.8234
   59SAPC  C311 4540   2.932   5.921   9.043 -0.2086 -0.1717 -0.6393
   59SAPC  H11X 4541   3.028   5.897   9.095 -0.8043 -1.1281  0.0398
   59SAPC  H11Y 4542   2.943   6.017   8.987  1.7084 -0.0302 -0.1045
   59SAPC  C312 4543   2.885   5.808   8.942 -0.2590  0.1522 -0.1747
   59SAPC  H12X 4544   2.790   5.761   8.975  0.2097  0.4732  1.7433
   59SAPC  H12Y 4545   2.972   5.739   8.946  0.9019  1.6153  1.2792
   59SAPC  C313 4546   2.877   5.867   8.798  0.2917  0.1875 -0.5422
   59SAPC  H13X 4547   2.973   5.914   8.767 -0.2853  0.3148 -2.2159
   59SAPC  H13Y 4548   2.792   5.939   8.793  0.2336  0.0588 -3.5373
   59SAPC  C314 4549   2.837   5.760   8.697 -0.1456 -0.2173  0.0217
   59SAPC  H14X 4550   2.743   5.708   8.724  1.1992 -2.1724  1.1682
   59SAPC  H14Y 4551   2.918   5.683   8.700  0.7631  0.7257  1.9401
   59SAPC  C315 4552   2.833   5.811   8.556 -0.5064  0.5050 -0.4466
   59SAPC  H15X 4553   2.757   5.893   8.550 -1.8630 -0.5818  1.0551
   59SAPC  H15Y 4554   2.795   5.720   8.505  1.8248 -0.8030  0.0487
   59SAPC  C316 4555   2.964   5.859   8.478 -0.3978  0.9678 -0.1674
   59SAPC  H16X 4556   3.009   5.945   8.531 -0.7282  1.2693 -0.3737
   59SAPC  H16Y 4557   2.934   5.898   8.379 -0.3259  1.0158 -0.1706
   59SAPC  C317 4558   3.060   5.738   8.468 -0.3806  0.5025 -0.6303
   59SAPC  H17X 4559   3.003   5.647   8.440  3.2782 -1.8008 -1.2722
   59SAPC  H17Y 4560   3.116   5.721   8.562 -2.4487 -0.2178  0.5224
   59SAPC  C318 4561   3.155   5.753   8.351  0.1593 -0.0478 -0.0509
   59SAPC  H18X 4562   3.230   5.833   8.369  0.6434  0.1444 -2.5761
   59SAPC  H18Y 4563   3.108   5.766   8.251 -0.7837 -1.6172  0.1566
   59SAPC  H18Z 4564   3.221   5.664   8.334  2.1550  1.1980  0.8072
   60SAPC     N 4565   5.307   3.454  11.044 -0.3100 -0.1318 -0.5410
   60SAPC   C12 4566   5.376   3.408  10.919 -0.0043 -0.1291  0.7399
   60SAPC  H12A 4567   5.410   3.306  10.928  0.5321 -0.1431 -1.0304
   60SAPC  H12B 4568   5.461   3.472  10.900 -0.4139 -0.2878 -1.9997
   60SAPC   C13 4569   5.258   3.591  11.046  0.0173  0.4245  0.0331
   60SAPC  H13A 4570   5.210   3.629  10.956  1.5035 -0.4120 -1.1521
   60SAPC  H13B 4571   5.187   3.600  11.127  2.2717 -0.7703  2.2858
   60SAPC  H13C 4572   5.346   3.651  11.064  0.5758 -0.1893 -0.5628
   60SAPC   C14 4573   5.180   3.379  11.064 -0.2844 -0.4674 -0.1664
   60SAPC  H14A 4574   5.123   3.431  11.139  2.1177  2.4248 -0.1809
   60SAPC  H14B 4575   5.126   3.382  10.971  0.6384  0.1896 -0.7052
   60SAPC  H14C 4576   5.195   3.276  11.093 -1.2287 -0.1914  1.3789
   60SAPC   C15 4577   5.393   3.431  11.165  0.1978 -0.4686  0.7839
   60SAPC  H15A 4578   5.343   3.472  11.252 -1.3348 -0.0405 -0.2668
   60SAPC  H15B 4579   5.419   3.327  11.178 -0.4030 -0.4483  2.4537
   60SAPC  H15C 4580   5.489   3.480  11.157  0.1548 -0.4059  0.6557
   60SAPC   C11 4581   5.298   3.426  10.783  0.4062  0.3995 -0.3085
   60SAPC  H11A 4582   5.198   3.383  10.802  0.0464  1.6876  0.9303
   60SAPC  H11B 4583   5.346   3.364  10.704 -0.9108 -0.1167 -0.7191
   60SAPC     P 4584   5.417   3.640  10.698 -0.0462 -0.9139 -0.1343
   60SAPC   O13 4585   5.405   3.785  10.734  0.0389 -0.2431  0.3207
   60SAPC   O14 4586   5.542   3.577  10.746 -0.1111 -0.2647 -0.2889
   60SAPC   O12 4587   5.285   3.562  10.742  0.0440 -1.0658 -0.6693
   60SAPC   O11 4588   5.418   3.628  10.543 -0.4268 -0.0440 -0.0773
   60SAPC    C1 4589   5.347   3.710  10.455  0.6160 -0.4761  0.0321
   60SAPC    HA 4590   5.314   3.658  10.362 -2.1656  0.8147  0.1956
   60SAPC    HB 4591   5.260   3.756  10.507  1.4478 -1.0797  2.0118
   60SAPC    C2 4592   5.426   3.832  10.411 -0.3320  0.1062 -0.3759
   60SAPC    HS 4593   5.455   3.870  10.511 -0.1257 -2.9100  0.8054
   60SAPC   O21 4594   5.352   3.923  10.330  0.9033  0.2219 -0.1680
   60SAPC   C21 4595   5.265   4.007  10.385 -0.0576  0.2517  0.0839
   60SAPC   O22 4596   5.232   4.010  10.504  0.0051 -0.4490 -0.0525
   60SAPC   C22 4597   5.206   4.099  10.280  0.5574  0.8748  0.4227
   60SAPC   H2R 4598   5.133   4.172  10.323 -0.4421  1.2329 -1.7494
   60SAPC   H2S 4599   5.287   4.159  10.233 -0.6633  1.1031 -1.4870
   60SAPC    C3 4600   5.567   3.790  10.353  0.5723  0.2732  0.4382
   60SAPC    HX 4601   5.604   3.712  10.422 -1.4805  0.0172  1.3296
   60SAPC    HY 4602   5.645   3.868  10.338 -0.2096  0.6731 -1.9589
   60SAPC   O31 4603   5.554   3.724  10.227  0.2809  0.7160  0.2108
   60SAPC   C31 4604   5.578   3.790  10.108  0.0854  0.0439 -0.0921
   60SAPC   O32 4605   5.623   3.903  10.106  0.2322  0.0930  0.3204
   60SAPC   C32 4606   5.511   3.717   9.990 -0.9954 -0.6525 -0.0185
   60SAPC   H2X 4607   5.413   3.764   9.968 -0.1755  0.1682 -2.2614
   60SAPC   H2Y 4608   5.520   3.610  10.017  0.7279 -0.9303 -1.4926
   60SAPC   C23 4609   5.128   4.036  10.159 -0.0112 -0.5091  0.7930
   60SAPC   H3R 4610   5.070   4.115  10.106  0.1919 -0.7942  0.1419
   60SAPC   H3S 4611   5.061   3.969  10.218 -0.3972 -2.2327 -1.4837
   60SAPC   C24 4612   5.215   3.968  10.066  0.1092  0.3235 -0.1832
   60SAPC   H4R 4613   5.276   3.891  10.119  1.3891  1.8125  0.5947
   60SAPC   H4S 4614   5.288   4.041  10.026  0.6875  0.0923  0.4143
   60SAPC   C25 4615   5.128   3.907   9.954  0.6807  0.0827 -0.7205
   60SAPC   H5R 4616   5.072   3.816   9.981 -1.8770  1.5341 -0.7969
   60SAPC   C26 4617   5.120   3.949   9.829  0.0395 -0.0041  0.8802
   60SAPC   H6R 4618   5.053   3.885   9.770 -1.6889 -0.6534  3.3889
   60SAPC   C27 4619   5.169   4.078   9.776 -0.0414  0.1588 -0.0679
   60SAPC   H7R 4620   5.248   4.055   9.701  0.4929 -0.7760  0.7633
   60SAPC   H7S 4621   5.204   4.148   9.855 -1.0465  0.2581  0.2993
   60SAPC   C28 4622   5.049   4.138   9.709 -1.0425 -0.4384 -0.5897
   60SAPC   H8R 4623   4.975   4.184   9.776 -0.4246  2.0668 -1.5340
   60SAPC   C29 4624   5.027   4.152   9.577 -0.8896  0.0562  0.3876
   60SAPC   H9R 4625   4.927   4.190   9.553 -1.0601  0.0491  1.0754
   60SAPC  C210 4626   5.110   4.093   9.463  0.3539  0.0909 -0.0700
   60SAPC  H10R 4627   5.207   4.053   9.498 -1.5166 -2.2463  2.9096
   60SAPC  H10S 4628   5.129   4.166   9.381 -0.0138 -1.5992 -1.7465
   60SAPC  C211 4629   5.023   3.985   9.400 -0.8302 -0.0506  0.3334
   60SAPC  H11R 4630   5.003   3.899   9.466 -2.9853 -0.2988 -0.5560
   60SAPC  C212 4631   4.979   3.978   9.275  0.2167 -0.0296  0.1120
   60SAPC  H12R 4632   4.914   3.891   9.254  1.0496 -0.7237  0.3745
   60SAPC  C213 4633   4.995   4.081   9.156 -1.0383 -0.1167 -0.3249
   60SAPC  H13R 4634   5.001   4.176   9.214 -1.3648 -0.2721 -0.0314
   60SAPC  H13S 4635   4.899   4.098   9.101 -0.7328  0.8052 -0.5839
   60SAPC  C214 4636   5.099   4.059   9.050  0.0792 -0.9539 -0.0525
   60SAPC  H14R 4637   5.184   3.998   9.085  1.7312  1.4509  0.3778
   60SAPC  C215 4638   5.107   4.106   8.928  0.5856 -0.9990  0.1852
   60SAPC  H15R 4639   5.196   4.079   8.871  1.2939 -0.7470  1.1370
   60SAPC  C216 4640   5.005   4.186   8.845 -0.3294 -0.0985 -0.2094
   60SAPC  H16R 4641   5.070   4.256   8.789 -1.7934  1.9645  0.5422
   60SAPC  H16S 4642   4.937   4.250   8.905 -0.9204  1.9087 -2.8463
   60SAPC  C217 4643   4.932   4.090   8.746 -0.4450 -0.4133 -0.7529
   60SAPC  H17R 4644   4.885   4.021   8.818 -1.6302  0.5142 -0.6113
   60SAPC  H17S 4645   5.008   4.053   8.673  0.9280  0.8925 -0.0415
   60SAPC  C218 4646   4.813   4.155   8.681  0.2181 -0.8249  0.4670
   60SAPC  H18R 4647   4.755   4.217   8.753  0.1073  2.0731 -1.9558
   60SAPC  H18S 4648   4.742   4.078   8.644  0.4576 -0.5751 -0.5511
   60SAPC  C219 4649   4.857   4.244   8.565 -0.4079  0.4993 -0.5988
   60SAPC  H19R 4650   4.922   4.324   8.606 -4.1709  3.3491  0.2961
   60SAPC  H19S 4651   4.771   4.294   8.517 -1.1672 -0.9659 -0.8284
   60SAPC  C220 4652   4.931   4.173   8.453  0.1511 -0.0818 -0.3737
   60SAPC  H20R 4653   4.951   4.253   8.379 -2.9732  2.9549  1.7515
   60SAPC  H20S 4654   4.872   4.087   8.414 -1.8132  1.8928 -1.9828
   60SAPC  H20T 4655   5.025   4.128   8.493  0.2989 -1.5322 -2.2465
   60SAPC   C33 4656   5.593   3.736   9.858  0.3469 -0.3918 -0.3535
   60SAPC   H3X 4657   5.693   3.690   9.877  1.0404  0.3206 -2.0412
   60SAPC   H3Y 4658   5.595   3.845   9.838 -1.6806 -0.4982 -1.3287
   60SAPC   C34 4659   5.534   3.661   9.743 -0.0978  0.9118 -0.2687
   60SAPC   H4X 4660   5.500   3.568   9.794 -0.9663 -0.0366 -2.4450
   60SAPC   H4Y 4661   5.608   3.620   9.671  0.2885  2.4422 -0.7734
   60SAPC   C35 4662   5.421   3.735   9.679  0.3313 -0.1475  0.2195
   60SAPC   H5X 4663   5.454   3.840   9.663 -0.0281 -0.1141 -0.3546
   60SAPC   H5Y 4664   5.328   3.746   9.740  0.2779  1.1018 -0.0574
   60SAPC   C36 4665   5.394   3.692   9.537  0.0060  0.6767  0.0016
   60SAPC   H6X 4666   5.349   3.590   9.540  0.1907  0.6147  1.7096
   60SAPC   H6Y 4667   5.489   3.682   9.481 -0.5304 -0.7854 -0.7088
   60SAPC   C37 4668   5.306   3.798   9.474 -0.5131  0.2605  0.5063
   60SAPC   H7X 4669   5.357   3.894   9.498 -0.9498  0.3167  1.2093
   60SAPC   H7Y 4670   5.202   3.806   9.511 -0.6887 -1.1378  0.3762
   60SAPC   C38 4671   5.317   3.806   9.322  0.0602 -0.7566 -0.0031
   60SAPC   H8X 4672   5.266   3.899   9.286  0.0158 -0.2670  1.2590
   60SAPC   H8Y 4673   5.263   3.719   9.280 -1.2877  0.7584 -1.5716
   60SAPC   C39 4674   5.463   3.821   9.273  0.1901 -0.5533  0.4382
   60SAPC   H9X 4675   5.504   3.718   9.278 -0.5179 -0.8352  0.5524
   60SAPC   H9Y 4676   5.533   3.886   9.329 -0.2947  1.8033 -1.5097
   60SAPC  C310 4677   5.482   3.867   9.122 -0.8319  0.4721  1.0210
   60SAPC  H10X 4678   5.590   3.871   9.097 -0.3597 -0.6761  2.6668
   60SAPC  H10Y 4679   5.448   3.970   9.098 -2.3576 -0.0526  0.8157
   60SAPC  C311 4680   5.397   3.789   9.023 -0.6636  0.2676  0.1330
   60SAPC  H11X 4681   5.288   3.795   9.047 -1.5339  0.6637 -3.3911
   60SAPC  H11Y 4682   5.427   3.682   9.015 -1.8759 -0.3076  2.3246
   60SAPC  C312 4683   5.406   3.838   8.875 -0.0177 -0.1685 -0.0834
   60SAPC  H12X 4684   5.502   3.821   8.822 -0.1949 -1.5503  0.0278
   60SAPC  H12Y 4685   5.401   3.948   8.890 -0.3030 -0.5006  2.6355
   60SAPC  C313 4686   5.288   3.788   8.801  0.3068 -0.0057  0.1734
   60SAPC  H13X 4687   5.194   3.824   8.848  1.0072  0.5869  1.1892
   60SAPC  H13Y 4688   5.286   3.677   8.808 -1.8716 -0.1903 -2.2333
   60SAPC  C314 4689   5.282   3.832   8.652  0.1439 -0.1570 -0.3371
   60SAPC  H14X 4690   5.360   3.908   8.629 -0.4047  0.7579  0.7779
   60SAPC  H14Y 4691   5.182   3.879   8.640  1.7110  3.2035 -1.3223
   60SAPC  C315 4692   5.285   3.717   8.544  0.3063  0.8789 -0.1965
   60SAPC  H15X 4693   5.197   3.651   8.559  0.6879 -0.4177 -3.0618
   60SAPC  H15Y 4694   5.370   3.652   8.573 -2.0650 -2.7471 -0.7492
   60SAPC  C316 4695   5.280   3.759   8.400 -0.3307  0.1565 -0.0477
   60SAPC  H16X 4696   5.271   3.666   8.339  0.6941 -0.2652  0.4087
   60SAPC  H16Y 4697   5.372   3.814   8.370  0.0690 -0.4151  0.1180
   60SAPC  C317 4698   5.154   3.840   8.373 -0.4227 -0.4424  0.2591
   60SAPC  H17X 4699   5.150   3.935   8.430 -0.1705 -0.2824  0.0139
   60SAPC  H17Y 4700   5.070   3.783   8.417  0.8171 -2.5972 -0.0489
   60SAPC  C318 4701   5.132   3.884   8.224  0.6467 -1.2169 -0.5670
   60SAPC  H18X 4702   5.038   3.942   8.218  0.3000 -1.6629  0.3695
   60SAPC  H18Y 4703   5.114   3.807   8.146 -1.5063  1.9485 -3.4694
   60SAPC  H18Z 4704   5.215   3.950   8.192  0.5507  0.2321  1.9286
   61SAPC     N 4705   3.783   2.231  10.863  0.1112  0.2718  0.4101
   61SAPC   C12 4706   3.728   2.179  10.739 -0.6088  0.6555 -0.0825
   61SAPC  H12A 4707   3.621   2.188  10.733 -0.8684 -0.1343  2.2523
   61SAPC  H12B 4708   3.747   2.073  10.738  0.1727  0.7453  1.9174
   61SAPC   C13 4709   3.756   2.138  10.973 -0.3584  0.2672  0.2808
   61SAPC  H13A 4710   3.785   2.037  10.945 -1.3243 -0.8646  2.9719
   61SAPC  H13B 4711   3.804   2.176  11.062 -2.2875  0.8477  1.1232
   61SAPC  H13C 4712   3.652   2.137  11.000 -0.3169 -0.6615  0.4403
   61SAPC   C14 4713   3.934   2.239  10.854 -0.5055  0.5296  0.6279
   61SAPC  H14A 4714   3.982   2.245  10.951  4.1562 -0.3778 -1.3480
   61SAPC  H14B 4715   3.990   2.154  10.817 -0.5904  0.0677  1.5115
   61SAPC  H14C 4716   3.960   2.320  10.788  1.9807 -0.3270  0.4411
   61SAPC   C15 4717   3.731   2.372  10.900  0.2232  0.0890  0.3360
   61SAPC  H15A 4718   3.796   2.403  10.981 -2.3283 -0.9044  2.9406
   61SAPC  H15B 4719   3.738   2.443  10.819 -0.2917 -1.2556 -0.9301
   61SAPC  H15C 4720   3.631   2.371  10.939 -0.0307  1.0400 -0.2514
   61SAPC   C11 4721   3.775   2.244  10.607  0.1356 -0.6575  0.1601
   61SAPC  H11A 4722   3.742   2.178  10.524 -3.2997  0.7898  0.2236
   61SAPC  H11B 4723   3.886   2.241  10.598  0.2294  2.2072 -0.8138
   61SAPC     P 4724   3.577   2.410  10.550 -0.2113  0.0375 -0.3926
   61SAPC   O13 4725   3.492   2.317  10.623 -0.0058 -0.3054 -0.4301
   61SAPC   O14 4726   3.555   2.558  10.553 -0.1362 -0.4045  0.0219
   61SAPC   O12 4727   3.724   2.380  10.598 -0.5556 -0.6189  0.2780
   61SAPC   O11 4728   3.579   2.369  10.405  0.1180  0.0033 -0.0053
   61SAPC    C1 4729   3.677   2.398  10.311  0.2623  0.0563 -0.7715
   61SAPC    HA 4730   3.767   2.450  10.351  0.3651  0.9163 -2.0506
   61SAPC    HB 4731   3.704   2.299  10.268  2.3966 -0.0583  0.6305
   61SAPC    C2 4732   3.611   2.484  10.195  0.1330  0.4927 -0.5213
   61SAPC    HS 4733   3.573   2.575  10.247  3.3697  1.2085  0.8835
   61SAPC   O21 4734   3.504   2.418  10.125 -0.0801  0.0813 -0.6649
   61SAPC   C21 4735   3.449   2.501  10.043  0.0062 -0.2701 -0.0943
   61SAPC   O22 4736   3.470   2.620  10.038  0.0672 -0.0992  0.1511
   61SAPC   C22 4737   3.336   2.440   9.957  0.4094  0.2766  0.1754
   61SAPC   H2R 4738   3.265   2.389  10.025 -0.1473 -1.0633 -1.3486
   61SAPC   H2S 4739   3.274   2.525   9.919  0.5980  0.3872  0.1110
   61SAPC    C3 4740   3.728   2.547  10.108  0.3374  0.4110  0.2051
   61SAPC    HX 4741   3.799   2.605  10.171  1.4400 -0.7241  0.0376
   61SAPC    HY 4742   3.691   2.622  10.035  1.8349 -0.0883 -1.1278
   61SAPC   O31 4743   3.806   2.438  10.045  0.6774 -0.2671  0.1379
   61SAPC   C31 4744   3.827   2.452   9.913 -0.5601  0.1975 -0.7197
   61SAPC   O32 4745   3.811   2.554   9.850  0.8474  0.0307  0.3206
   61SAPC   C32 4746   3.901   2.323   9.868 -0.4186 -0.9168 -0.3219
   61SAPC   H2X 4747   3.824   2.261   9.818 -0.4265 -0.6636 -0.6241
   61SAPC   H2Y 4748   3.949   2.273   9.955 -0.9305  0.9312  1.1039
   61SAPC   C23 4749   3.381   2.343   9.846 -0.4935 -0.3229  0.8535
   61SAPC   H3R 4750   3.388   2.243   9.893 -0.6973 -0.6153  0.2709
   61SAPC   H3S 4751   3.480   2.379   9.811 -0.8868 -0.1097 -0.0523
   61SAPC   C24 4752   3.284   2.332   9.732  0.3889  0.1359  0.2829
   61SAPC   H4R 4753   3.333   2.270   9.654  0.7751  2.0285 -1.0612
   61SAPC   H4S 4754   3.265   2.424   9.673  1.0368 -0.2403 -0.5478
   61SAPC   C25 4755   3.154   2.273   9.783  0.5232  0.6474  0.0406
   61SAPC   H5R 4756   3.140   2.291   9.890  0.5607  1.5361 -0.0912
   61SAPC   C26 4757   3.054   2.222   9.715  1.0913 -0.1861  0.9044
   61SAPC   H6R 4758   2.969   2.174   9.765  0.6563  0.3505  0.6864
   61SAPC   C27 4759   3.041   2.235   9.568  0.1581  0.2287 -0.1006
   61SAPC   H7R 4760   2.957   2.171   9.534 -0.2651  0.5150  0.3953
   61SAPC   H7S 4761   3.126   2.189   9.514 -0.4031  0.4466 -1.1945
   61SAPC   C28 4762   3.018   2.372   9.501  0.3503  0.0535 -0.5551
   61SAPC   H8R 4763   3.011   2.459   9.567  0.0714  0.8872 -1.6485
   61SAPC   C29 4764   3.040   2.390   9.369 -0.1898  0.4413 -0.0938
   61SAPC   H9R 4765   3.018   2.492   9.333 -3.6090  0.2656  1.0651
   61SAPC  C210 4766   3.054   2.281   9.268  0.6486 -0.0075 -0.1296
   61SAPC  H10R 4767   3.106   2.192   9.309  0.4603 -0.6381 -1.2196
   61SAPC  H10S 4768   3.125   2.310   9.188  1.1813 -1.0666 -0.0511
   61SAPC  C211 4769   2.930   2.243   9.197 -0.5166 -0.2869  1.0510
   61SAPC  H11R 4770   2.865   2.166   9.240 -3.7294  2.1490  0.9244
   61SAPC  C212 4771   2.888   2.309   9.083 -0.3094  0.2531  0.0149
   61SAPC  H12R 4772   2.801   2.261   9.034 -0.3617  0.2773  0.0842
   61SAPC  C213 4773   2.938   2.435   9.021  0.5482  0.0257 -0.2914
   61SAPC  H13R 4774   2.959   2.524   9.084 -0.5701  0.7349 -0.8845
   61SAPC  H13S 4775   2.855   2.474   8.958  0.5800  1.4416  0.5130
   61SAPC  C214 4776   3.063   2.421   8.936 -0.1799 -1.3390  0.4813
   61SAPC  H14R 4777   3.148   2.371   8.984  0.8921  1.4500  1.6609
   61SAPC  C215 4778   3.080   2.479   8.817 -0.4997 -0.5939  0.5236
   61SAPC  H15R 4779   3.177   2.460   8.770  0.7627  3.0732  1.3437
   61SAPC  C216 4780   2.987   2.568   8.743  0.7795  0.0161 -0.3048
   61SAPC  H16R 4781   3.048   2.660   8.724  1.0041 -0.1810 -0.5464
   61SAPC  H16S 4782   2.892   2.602   8.790  0.2667  0.4599 -1.6058
   61SAPC  C217 4783   2.944   2.505   8.605 -0.5070 -0.7262 -0.1678
   61SAPC  H17R 4784   2.911   2.401   8.622 -2.8556  0.4073  3.4808
   61SAPC  H17S 4785   3.037   2.496   8.545 -1.2213  0.8859 -1.5956
   61SAPC  C218 4786   2.834   2.577   8.527 -0.5455 -1.4485  0.0466
   61SAPC  H18R 4787   2.738   2.575   8.582 -0.3174 -0.0244  0.5163
   61SAPC  H18S 4788   2.815   2.517   8.435  1.8998 -0.8583 -0.9295
   61SAPC  C219 4789   2.872   2.723   8.479  0.0267  0.5105  0.3414
   61SAPC  H19R 4790   2.963   2.730   8.416  0.0935  0.3602  0.4210
   61SAPC  H19S 4791   2.898   2.774   8.573  0.7874 -2.8933  2.1403
   61SAPC  C220 4792   2.754   2.790   8.409 -0.2317  0.9306  0.1831
   61SAPC  H20R 4793   2.720   2.733   8.320  0.3983 -0.1454  0.6017
   61SAPC  H20S 4794   2.794   2.885   8.368  0.7277  0.1643 -0.7161
   61SAPC  H20T 4795   2.670   2.804   8.480 -1.0390 -1.6150 -0.1515
   61SAPC   C33 4796   4.017   2.373   9.787  0.8276 -0.2821  0.2954
   61SAPC   H3X 4797   4.107   2.308   9.796  1.8993  1.0109 -0.7005
   61SAPC   H3Y 4798   4.060   2.466   9.830  1.7546  0.0141 -1.1870
   61SAPC   C34 4799   3.965   2.397   9.645 -0.1257  0.0316 -0.7210
   61SAPC   H4X 4800   3.887   2.476   9.639 -0.8726 -0.7253 -1.1509
   61SAPC   H4Y 4801   3.923   2.309   9.591 -0.5569 -1.1200  1.3551
   61SAPC   C35 4802   4.074   2.454   9.564 -0.4867  0.3376 -0.0315
   61SAPC   H5X 4803   4.167   2.399   9.590  2.1779  1.6582 -5.3497
   61SAPC   H5Y 4804   4.099   2.560   9.587  3.1932 -0.0818 -1.4683
   61SAPC   C36 4805   4.040   2.445   9.415  0.3266  0.5170  1.1542
   61SAPC   H6X 4806   3.966   2.524   9.391 -1.1378 -1.2198 -0.3699
   61SAPC   H6Y 4807   3.995   2.346   9.391  2.8295 -0.4562  0.0184
   61SAPC   C37 4808   4.170   2.449   9.332  0.8844  0.0204  0.0563
   61SAPC   H7X 4809   4.248   2.380   9.370  1.4421 -0.4182 -1.7885
   61SAPC   H7Y 4810   4.209   2.553   9.333 -1.2039  0.8644  0.5883
   61SAPC   C38 4811   4.144   2.416   9.184  0.3654  0.2616  1.0493
   61SAPC   H8X 4812   4.120   2.308   9.175  0.6688  0.3052 -0.7261
   61SAPC   H8Y 4813   4.239   2.433   9.129 -1.1655 -0.2542 -1.9836
   61SAPC   C39 4814   4.034   2.504   9.112  0.5546 -0.3525  0.2250
   61SAPC   H9X 4815   4.073   2.607   9.096  0.3038 -0.0729  1.3497
   61SAPC   H9Y 4816   3.947   2.523   9.179 -1.4102 -0.5057 -2.1187
   61SAPC  C310 4817   3.987   2.455   8.971  0.1683  0.1025  0.4598
   61SAPC  H10X 4818   3.887   2.485   8.934  0.0410  0.2444  0.9070
   61SAPC  H10Y 4819   3.977   2.345   8.984  0.7921 -0.0769 -0.5151
   61SAPC  C311 4820   4.086   2.480   8.855 -0.3812  0.1333 -0.6090
   61SAPC  H11X 4821   4.184   2.434   8.881  0.4902  0.3438 -3.2641
   61SAPC  H11Y 4822   4.090   2.589   8.837 -1.5790  0.3237  0.1560
   61SAPC  C312 4823   4.045   2.398   8.731  0.8089  0.4715 -0.2914
   61SAPC  H12X 4824   3.957   2.453   8.690  0.1984  0.6616  1.1872
   61SAPC  H12Y 4825   4.013   2.298   8.767  2.7417 -0.1982 -0.3253
   61SAPC  C313 4826   4.147   2.388   8.627 -0.5143  0.1865  0.7016
   61SAPC  H13X 4827   4.118   2.326   8.540  2.6673  0.7594 -0.9235
   61SAPC  H13Y 4828   4.241   2.341   8.663 -0.9365 -1.7624 -0.5990
   61SAPC  C314 4829   4.177   2.527   8.578 -1.2230 -0.1425  0.1857
   61SAPC  H14X 4830   4.231   2.584   8.656 -1.7137  0.7966 -0.1492
   61SAPC  H14Y 4831   4.075   2.571   8.570 -1.4633 -0.5358  0.9784
   61SAPC  C315 4832   4.256   2.530   8.444 -0.1797 -0.4814 -0.1125
   61SAPC  H15X 4833   4.199   2.479   8.364 -0.7159  0.0994 -0.1131
   61SAPC  H15Y 4834   4.356   2.484   8.457 -0.0515 -0.2886 -0.3957
   61SAPC  C316 4835   4.280   2.684   8.408 -0.1388 -0.5711 -0.4684
   61SAPC  H16X 4836   4.330   2.748   8.484  0.5250 -1.3080 -0.2734
   61SAPC  H16Y 4837   4.177   2.726   8.411 -1.0097 -2.5925 -0.2722
   61SAPC  C317 4838   4.348   2.715   8.270 -0.2509  0.3104 -0.4954
   61SAPC  H17X 4839   4.301   2.654   8.190 -1.3746 -0.3424  0.6193
   61SAPC  H17Y 4840   4.452   2.684   8.292  0.0837  1.9254  0.3549
   61SAPC  C318 4841   4.341   2.858   8.217 -0.2577  0.4068 -0.4548
   61SAPC  H18X 4842   4.365   2.848   8.109 -1.0222 -2.2691 -0.4414
   61SAPC  H18Y 4843   4.415   2.924   8.267 -1.4815  1.5538 -0.1013
   61SAPC  H18Z 4844   4.243   2.906   8.231 -0.3962 -0.8030  4.1829
   62SAPC     N 4845   4.286   1.357  11.074  0.3538 -0.7395  0.3953
   62SAPC   C12 4846   4.317   1.419  10.935 -0.4654  0.0733 -0.4043
   62SAPC  H12A 4847   4.226   1.450  10.883 -0.3298 -1.0591 -1.3628
   62SAPC  H12B 4848   4.362   1.341  10.876  0.1480 -0.9858  1.4105
   62SAPC   C13 4849   4.413   1.321  11.147  0.1182  0.2858  0.0387
   62SAPC  H13A 4850   4.463   1.246  11.088 -0.4874 -0.5513  0.5581
   62SAPC  H13B 4851   4.475   1.409  11.150  1.0178 -0.3091 -0.4195
   62SAPC  H13C 4852   4.388   1.288  11.247  4.0319 -3.6286  0.0736
   62SAPC   C14 4853   4.212   1.459  11.150  0.0262  0.2867 -0.7088
   62SAPC  H14A 4854   4.272   1.547  11.165 -0.4888  0.7166 -1.1130
   62SAPC  H14B 4855   4.121   1.487  11.099  0.4691  1.3191 -0.9711
   62SAPC  H14C 4856   4.178   1.414  11.242  1.8459 -0.5588 -0.4194
   62SAPC   C15 4857   4.203   1.231  11.059  0.5594 -0.0522 -0.3136
   62SAPC  H15A 4858   4.100   1.254  11.038  0.2057 -2.1245 -1.1660
   62SAPC  H15B 4859   4.228   1.170  10.973 -0.0088 -2.2746  1.0119
   62SAPC  H15C 4860   4.203   1.165  11.145 -0.3720 -1.9375 -1.6927
   62SAPC   C11 4861   4.412   1.541  10.929 -0.1297 -0.8394 -0.2884
   62SAPC  H11A 4862   4.407   1.597  11.026 -3.5004  0.2537 -0.9473
   62SAPC  H11B 4863   4.399   1.619  10.851  1.8965  1.4687  1.5270
   62SAPC     P 4864   4.607   1.462  10.775 -0.1717  0.0854 -0.1325
   62SAPC   O13 4865   4.726   1.548  10.754  0.3317 -0.4199  0.4411
   62SAPC   O14 4866   4.628   1.316  10.787 -0.5272  0.0445  0.1829
   62SAPC   O12 4867   4.540   1.503  10.916 -0.1427  0.4492  0.0943
   62SAPC   O11 4868   4.494   1.499  10.666 -0.2249  0.1481 -0.1396
   62SAPC    C1 4869   4.438   1.401  10.584 -0.3431  0.0589 -0.6452
   62SAPC    HA 4870   4.407   1.313  10.644 -0.8172 -0.6132 -1.8652
   62SAPC    HB 4871   4.349   1.440  10.531  0.1673 -0.6718 -2.0608
   62SAPC    C2 4872   4.531   1.357  10.464 -0.1147 -0.1223  0.5937
   62SAPC    HS 4873   4.631   1.341  10.510  0.5567  1.0263 -0.4065
   62SAPC   O21 4874   4.536   1.458  10.365  0.0045 -0.2764  0.8833
   62SAPC   C21 4875   4.647   1.462  10.301 -0.1797  1.2492 -0.0498
   62SAPC   O22 4876   4.746   1.395  10.323 -0.1066 -0.0377  0.4375
   62SAPC   C22 4877   4.627   1.553  10.179 -0.0147  0.7974  0.4755
   62SAPC   H2R 4878   4.536   1.617  10.179 -0.3387  0.3532 -0.5590
   62SAPC   H2S 4879   4.718   1.616  10.175  1.6719 -1.5725 -0.9616
   62SAPC    C3 4880   4.466   1.224  10.414  0.5961  0.7229  0.2634
   62SAPC    HX 4881   4.356   1.240  10.415  0.2753 -1.2411  0.4919
   62SAPC    HY 4882   4.496   1.141  10.482 -1.1256 -0.0260  0.1715
   62SAPC   O31 4883   4.513   1.188  10.282  0.4375  0.4401 -0.1855
   62SAPC   C31 4884   4.436   1.095  10.219  0.9186 -0.0275 -0.3051
   62SAPC   O32 4885   4.335   1.051  10.270 -0.0471 -0.5813 -0.4027
   62SAPC   C32 4886   4.491   1.061  10.082  0.0734  0.4543  0.4489
   62SAPC   H2X 4887   4.539   0.961  10.088 -0.3687  0.1227 -1.0289
   62SAPC   H2Y 4888   4.581   1.126  10.069  0.7772 -0.4126  0.8680
   62SAPC   C23 4889   4.640   1.485  10.036  0.2774  0.9832  0.1140
   62SAPC   H3R 4890   4.547   1.442   9.994  0.4539  0.2595  0.4436
   62SAPC   H3S 4891   4.700   1.393  10.049 -0.8269  0.3494  0.8570
   62SAPC   C24 4892   4.693   1.579   9.938  0.3672 -0.7118  0.4652
   62SAPC   H4R 4893   4.707   1.521   9.844 -0.0810 -2.6135  1.5084
   62SAPC   H4S 4894   4.795   1.611   9.969 -0.0742  0.8497  0.3979
   62SAPC   C25 4895   4.599   1.697   9.913  0.4483  0.3306  0.0403
   62SAPC   H5R 4896   4.511   1.701   9.980 -1.5790  3.7086 -2.4949
   62SAPC   C26 4897   4.620   1.801   9.824 -0.3476 -0.1663  0.2828
   62SAPC   H6R 4898   4.534   1.866   9.805 -0.9885 -0.8490  0.8192
   62SAPC   C27 4899   4.734   1.812   9.721  1.2036 -0.2920 -0.8622
   62SAPC   H7R 4900   4.711   1.902   9.661 -0.0642  0.4974  0.7367
   62SAPC   H7S 4901   4.725   1.733   9.643  0.3895 -1.5088  0.4088
   62SAPC   C28 4902   4.875   1.816   9.762  0.5408 -0.5820 -0.0996
   62SAPC   H8R 4903   4.894   1.888   9.843 -2.5104  1.6626 -1.2042
   62SAPC   C29 4904   4.977   1.767   9.691 -0.0039 -0.7256  0.1364
   62SAPC   H9R 4905   5.074   1.768   9.742 -0.8453  2.5612  1.9217
   62SAPC  C210 4906   4.964   1.682   9.572 -0.3746  0.0632 -0.3389
   62SAPC  H10R 4907   5.070   1.655   9.552 -0.1229  1.8464 -1.6561
   62SAPC  H10S 4908   4.945   1.751   9.488 -0.4678  1.1157  0.5185
   62SAPC  C211 4909   4.897   1.554   9.568  0.2664 -0.7740  0.0708
   62SAPC  H11R 4910   4.882   1.503   9.664 -1.5887 -2.0399 -0.8450
   62SAPC  C212 4911   4.888   1.490   9.451 -0.5400 -0.9870 -0.8575
   62SAPC  H12R 4912   4.839   1.392   9.459 -1.0917 -0.6736 -0.1487
   62SAPC  C213 4913   4.920   1.552   9.319  1.0822  0.4326 -0.5104
   62SAPC  H13R 4914   5.027   1.528   9.305  1.4198  0.1445  2.1633
   62SAPC  H13S 4915   4.907   1.663   9.319 -0.1725  0.3104 -1.3574
   62SAPC  C214 4916   4.825   1.490   9.216 -0.2952 -0.0131  0.2709
   62SAPC  H14R 4917   4.720   1.487   9.249  0.2886 -0.8068  2.2366
   62SAPC  C215 4918   4.847   1.453   9.089  0.9848  0.4049 -0.0172
   62SAPC  H15R 4919   4.765   1.420   9.023  0.1679  1.1395  0.6147
   62SAPC  C216 4920   4.982   1.457   9.024 -0.0650 -0.1651  1.1371
   62SAPC  H16R 4921   5.016   1.358   8.987  1.1484  0.3599  0.8079
   62SAPC  H16S 4922   5.059   1.503   9.089 -0.7036  1.3669  0.8628
   62SAPC  C217 4923   4.968   1.546   8.902 -0.6517 -0.6995  0.4873
   62SAPC  H17R 4924   5.071   1.545   8.861 -1.2602 -2.7967 -1.1656
   62SAPC  H17S 4925   4.936   1.650   8.922 -1.0721 -0.7153 -0.0785
   62SAPC  C218 4926   4.890   1.482   8.787  0.8065  0.4459  0.2922
   62SAPC  H18R 4927   4.782   1.483   8.813  0.2420  1.8336 -1.8766
   62SAPC  H18S 4928   4.920   1.375   8.788 -1.9761 -0.4398  2.3977
   62SAPC  C219 4929   4.908   1.548   8.656  0.0015 -0.0085  0.8448
   62SAPC  H19R 4930   5.007   1.515   8.619 -0.9701 -1.7807 -0.3901
   62SAPC  H19S 4931   4.898   1.658   8.646  2.2499  0.0659 -2.0164
   62SAPC  C220 4932   4.812   1.484   8.556  0.8143 -0.6178 -0.1685
   62SAPC  H20R 4933   4.813   1.374   8.562  1.1085 -0.7874 -2.4226
   62SAPC  H20S 4934   4.841   1.507   8.451  0.9852 -0.8560 -0.1720
   62SAPC  H20T 4935   4.707   1.516   8.578 -0.1784 -0.2829 -4.4458
   62SAPC   C33 4936   4.399   1.079   9.964  0.3143  0.2649  0.5295
   62SAPC   H3X 4937   4.332   1.164   9.985  0.0019  0.5100 -1.2725
   62SAPC   H3Y 4938   4.329   0.997   9.936 -0.1661  0.4407  1.1932
   62SAPC   C34 4939   4.470   1.119   9.833 -0.7256 -0.2205  0.1519
   62SAPC   H4X 4940   4.541   1.202   9.852 -3.3875  2.2044  0.2012
   62SAPC   H4Y 4941   4.399   1.165   9.761  1.5836  2.0558 -0.8333
   62SAPC   C35 4942   4.552   1.012   9.767  0.2721 -0.9717  0.1993
   62SAPC   H5X 4943   4.476   0.935   9.740 -1.8114  1.4807 -1.5042
   62SAPC   H5Y 4944   4.626   0.972   9.839  1.0772 -0.3482 -0.2575
   62SAPC   C36 4945   4.633   1.056   9.644 -0.6422 -0.0585  0.0313
   62SAPC   H6X 4946   4.710   0.978   9.626  1.7867  1.9305  1.2396
   62SAPC   H6Y 4947   4.690   1.147   9.672  0.2349 -0.8968  1.0479
   62SAPC   C37 4948   4.540   1.068   9.521 -0.5224 -1.1337  0.0125
   62SAPC   H7X 4949   4.472   1.155   9.536  3.1852  1.9502  0.5577
   62SAPC   H7Y 4950   4.483   0.977   9.493  1.7052 -2.4025 -0.6485
   62SAPC   C38 4951   4.618   1.102   9.390  0.6280 -0.1375 -0.3819
   62SAPC   H8X 4952   4.689   1.023   9.355 -0.2740 -0.7278 -0.9343
   62SAPC   H8Y 4953   4.685   1.189   9.406  1.0170 -0.4440 -0.3092
   62SAPC   C39 4954   4.535   1.147   9.275  1.0087  0.6526  0.5209
   62SAPC   H9X 4955   4.479   1.237   9.309 -0.7042 -1.0581  2.5211
   62SAPC   H9Y 4956   4.463   1.068   9.246  0.8263  0.2840  1.9159
   62SAPC  C310 4957   4.605   1.177   9.136  0.6585  0.1146 -0.2907
   62SAPC  H10X 4958   4.697   1.118   9.118  0.4421 -0.1790 -0.4342
   62SAPC  H10Y 4959   4.625   1.286   9.148 -0.0114  0.2769 -0.5973
   62SAPC  C311 4960   4.513   1.160   9.012  0.5006 -0.2401 -0.2439
   62SAPC  H11X 4961   4.427   1.225   9.040  0.7007  0.2366 -0.7113
   62SAPC  H11Y 4962   4.483   1.054   9.018  0.1726 -0.1096  0.5940
   62SAPC  C312 4963   4.593   1.200   8.886 -0.5332  0.5166  0.2111
   62SAPC  H12X 4964   4.630   1.304   8.900 -1.3891  1.1065 -1.6901
   62SAPC  H12Y 4965   4.521   1.199   8.802 -0.6200 -0.2691  0.2939
   62SAPC  C313 4966   4.702   1.099   8.861  0.3328  0.6634  0.5663
   62SAPC  H13X 4967   4.673   0.996   8.890 -0.9124  0.7887 -0.1675
   62SAPC  H13Y 4968   4.798   1.123   8.913  0.0892  1.5146  0.6436
   62SAPC  C314 4969   4.748   1.109   8.709  0.4357  0.4625 -0.2725
   62SAPC  H14X 4970   4.858   1.102   8.691  0.4286  1.2982 -0.7053
   62SAPC  H14Y 4971   4.730   1.213   8.674 -2.4895  0.6227  1.4606
   62SAPC  C315 4972   4.676   1.018   8.608 -0.4192  0.9618  0.5985
   62SAPC  H15X 4973   4.566   1.024   8.607 -0.6262 -1.3980  1.6861
   62SAPC  H15Y 4974   4.699   0.913   8.636  0.2120  0.5680 -1.2500
   62SAPC  C316 4975   4.731   1.035   8.465 -0.2756 -0.2182  0.1048
   62SAPC  H16X 4976   4.841   1.022   8.453  0.1369  1.4120  1.8225
   62SAPC  H16Y 4977   4.719   1.140   8.431  1.5151 -0.7275 -2.4990
   62SAPC  C317 4978   4.663   0.945   8.368 -0.0284 -0.2244 -0.2703
   62SAPC  H17X 4979   4.670   0.980   8.263 -0.3297  0.2963 -0.1174
   62SAPC  H17Y 4980   4.555   0.947   8.397 -0.0881 -1.2355 -0.3803
   62SAPC  C318 4981   4.715   0.800   8.370  0.5291  0.0444  0.1717
   62SAPC  H18X 4982   4.664   0.739   8.293 -0.6155 -0.1413  1.0396
   62SAPC  H18Y 4983   4.705   0.757   8.472 -0.2731  1.2846  0.6370
   62SAPC  H18Z 4984   4.824   0.812   8.354  0.3213  3.5202  0.6072
   63SAPC     N 4985   2.930   6.038   5.864  0.2285  0.4755  0.5282
   63SAPC   C12 4986   2.913   6.099   6.005 -0.2549  0.3207 -0.4600
   63SAPC  H12A 4987   3.000   6.088   6.068  0.5009  1.5161 -1.2373
   63SAPC  H12B 4988   2.839   6.038   6.054 -2.9756  0.0822 -4.4228
   63SAPC   C13 4989   2.797   6.054   5.794 -0.2686 -0.2212  0.2954
   63SAPC  H13A 4990   2.797   6.026   5.690  0.6945  1.4675 -0.1945
   63SAPC  H13B 4991   2.723   6.005   5.856 -0.4774 -1.5510 -0.9484
   63SAPC  H13C 4992   2.773   6.159   5.798 -0.6149 -0.2891  0.0229
   63SAPC   C14 4993   3.042   6.113   5.796 -0.5648  0.5134 -0.2001
   63SAPC  H14A 4994   3.134   6.065   5.827 -1.5012 -3.2094 -2.5032
   63SAPC  H14B 4995   3.035   6.101   5.689  2.1550  0.3443 -0.4373
   63SAPC  H14C 4996   3.035   6.218   5.822 -1.9136  1.2753 -3.1748
   63SAPC   C15 4997   2.962   5.892   5.863  0.1004 -0.2261  0.3853
   63SAPC  H15A 4998   2.941   5.847   5.767  1.4390  0.7226 -0.4027
   63SAPC  H15B 4999   3.070   5.878   5.865  0.2413 -0.2854 -2.5894
   63SAPC  H15C 5000   2.914   5.841   5.945 -1.4628 -2.1131 -1.5788
   63SAPC   C11 5001   2.862   6.249   6.027  1.2687  0.0025  0.4068
   63SAPC  H11A 5002   2.944   6.317   5.995  1.7264 -0.8655 -0.3352
   63SAPC  H11B 5003   2.855   6.270   6.135 -0.4992  1.2174  0.1048
   63SAPC     P 5004   2.605   6.225   6.037  0.0271 -0.0020 -0.0068
   63SAPC   O13 5005   2.482   6.301   6.001  0.0960  0.0412  0.1233
   63SAPC   O14 5006   2.598   6.082   6.010 -0.7269  0.3772  0.5758
   63SAPC   O12 5007   2.735   6.286   5.967 -0.5793  0.4110 -0.1215
   63SAPC   O11 5008   2.627   6.238   6.191 -0.4067  0.2848  0.3066
   63SAPC    C1 5009   2.570   6.341   6.264 -0.2078  0.4678  0.0282
   63SAPC    HA 5010   2.464   6.353   6.235 -0.7362 -0.4150  1.4511
   63SAPC    HB 5011   2.565   6.299   6.367  1.6090 -2.7745 -1.0511
   63SAPC    C2 5012   2.639   6.476   6.273 -0.4776 -0.0398  0.2253
   63SAPC    HS 5013   2.618   6.521   6.173  2.0140  1.2929  0.2156
   63SAPC   O21 5014   2.785   6.466   6.291  0.3224  0.2573  0.2202
   63SAPC   C21 5015   2.844   6.587   6.264 -0.1815  0.0832 -0.0062
   63SAPC   O22 5016   2.778   6.678   6.212  0.1607 -0.1695  0.6005
   63SAPC   C22 5017   2.991   6.594   6.296  0.5270  0.2638  0.1135
   63SAPC   H2R 5018   3.055   6.561   6.212  0.2783 -2.1902  0.8259
   63SAPC   H2S 5019   3.010   6.702   6.317  1.6515  0.9444 -3.6139
   63SAPC    C3 5020   2.574   6.576   6.378 -0.1059 -0.6616 -0.3380
   63SAPC    HX 5021   2.465   6.578   6.355  0.0357  1.2949 -0.9967
   63SAPC    HY 5022   2.602   6.682   6.363 -2.1383  0.3142  2.0070
   63SAPC   O31 5023   2.595   6.512   6.508 -0.6208  0.2183  0.0377
   63SAPC   C31 5024   2.684   6.571   6.591  0.0248 -0.3709  0.6179
   63SAPC   O32 5025   2.739   6.680   6.565 -0.1808  0.2144 -0.2181
   63SAPC   C32 5026   2.702   6.479   6.701 -0.1146 -0.6057 -0.5034
   63SAPC   H2X 5027   2.724   6.379   6.658  1.8569  0.4212 -2.0562
   63SAPC   H2Y 5028   2.608   6.477   6.759  0.3350 -1.9622  0.2307
   63SAPC   C23 5029   3.032   6.494   6.405 -0.0379 -0.1979 -0.3162
   63SAPC   H3R 5030   3.011   6.401   6.348 -0.6536 -0.0930 -0.2692
   63SAPC   H3S 5031   2.969   6.503   6.497  4.3853 -2.5176  3.3371
   63SAPC   C24 5032   3.170   6.507   6.464  0.1147  0.2624 -0.3486
   63SAPC   H4R 5033   3.192   6.607   6.508  3.2265 -0.2750 -0.4647
   63SAPC   H4S 5034   3.245   6.507   6.382 -2.4248  1.0922 -2.8335
   63SAPC   C25 5035   3.204   6.397   6.564  0.3061  0.4603 -0.3186
   63SAPC   H5R 5036   3.169   6.298   6.532  1.6946  0.3769 -1.7184
   63SAPC   C26 5037   3.273   6.409   6.676 -0.1300 -0.2646 -0.2075
   63SAPC   H6R 5038   3.288   6.315   6.732 -0.0792  0.1464  0.4781
   63SAPC   C27 5039   3.335   6.535   6.725 -0.0160 -0.9912 -1.0047
   63SAPC   H7R 5040   3.276   6.574   6.811  0.1880 -3.0139  0.1161
   63SAPC   H7S 5041   3.336   6.604   6.638 -1.7631 -1.7094 -1.6366
   63SAPC   C28 5042   3.482   6.514   6.757  0.1555 -0.2487 -0.5629
   63SAPC   H8R 5043   3.554   6.500   6.676  2.1866  0.2752  1.0722
   63SAPC   C29 5044   3.531   6.513   6.885  0.5105  0.3311 -0.5487
   63SAPC   H9R 5045   3.640   6.502   6.883  0.3269 -2.6577  1.0218
   63SAPC  C210 5046   3.454   6.534   7.020  0.3726 -0.9172 -0.0031
   63SAPC  H10R 5047   3.352   6.493   7.010  0.2903 -1.5716  2.8442
   63SAPC  H10S 5048   3.450   6.644   7.034  3.7558 -0.6816 -0.0152
   63SAPC  C211 5049   3.525   6.475   7.139  0.4769 -0.0302  0.1340
   63SAPC  H11R 5050   3.630   6.507   7.147  0.8599 -0.4934 -2.3212
   63SAPC  C212 5051   3.469   6.449   7.258 -0.0217 -0.1983 -0.1283
   63SAPC  H12R 5052   3.537   6.404   7.332 -1.3307 -2.2745 -0.1103
   63SAPC  C213 5053   3.325   6.429   7.288 -0.1545 -0.3076  0.0613
   63SAPC  H13R 5054   3.322   6.344   7.359  2.4985  0.5951  1.3872
   63SAPC  H13S 5055   3.276   6.396   7.194  0.2902  0.3470 -0.4118
   63SAPC  C214 5056   3.261   6.559   7.337 -0.3229  0.3903  0.3483
   63SAPC  H14R 5057   3.231   6.629   7.258  2.3582  0.5159 -0.6516
   63SAPC  C215 5058   3.241   6.586   7.467 -0.3057 -0.5906 -0.4051
   63SAPC  H15R 5059   3.187   6.677   7.497  0.6103  0.2950 -1.3590
   63SAPC  C216 5060   3.269   6.501   7.584 -0.4039  0.2150 -0.5061
   63SAPC  H16R 5061   3.253   6.393   7.560  0.5650 -0.0921  0.1961
   63SAPC  H16S 5062   3.207   6.532   7.671 -0.1809 -3.7112  1.2537
   63SAPC  C217 5063   3.412   6.526   7.627  0.2603 -0.3624  0.0516
   63SAPC  H17R 5064   3.421   6.632   7.660 -2.1264 -0.4436  1.1616
   63SAPC  H17S 5065   3.484   6.504   7.546 -0.2792 -2.2958  0.0484
   63SAPC  C218 5066   3.462   6.447   7.754 -0.2150  0.1922 -0.2732
   63SAPC  H18R 5067   3.448   6.339   7.732 -0.7576  0.1105  0.4245
   63SAPC  H18S 5068   3.397   6.466   7.841  0.4435 -1.8388  0.7161
   63SAPC  C219 5069   3.609   6.484   7.787  0.7091  0.6242 -0.2974
   63SAPC  H19R 5070   3.622   6.594   7.776  1.3301  0.5197 -0.6864
   63SAPC  H19S 5071   3.665   6.426   7.711 -0.6618  0.2044 -1.0295
   63SAPC  C220 5072   3.671   6.430   7.918  0.0397 -0.1105 -0.3354
   63SAPC  H20R 5073   3.604   6.458   8.003  0.4280 -0.9262  0.2529
   63SAPC  H20S 5074   3.770   6.477   7.932 -0.5897  1.2189 -0.2033
   63SAPC  H20T 5075   3.700   6.323   7.924 -2.2496 -0.7223  1.9923
   63SAPC   C33 5076   2.814   6.510   6.801 -0.1523 -0.0569 -0.0360
   63SAPC   H3X 5077   2.816   6.617   6.831 -0.3327 -0.1169  0.1920
   63SAPC   H3Y 5078   2.917   6.488   6.766 -0.5080 -1.7535 -0.1130
   63SAPC   C34 5079   2.818   6.444   6.940  0.4488 -0.4195  0.0056
   63SAPC   H4X 5080   2.920   6.462   6.981  0.9012 -0.9298 -0.8745
   63SAPC   H4Y 5081   2.809   6.335   6.920 -2.1967 -0.1048 -0.9250
   63SAPC   C35 5082   2.711   6.483   7.042 -0.0034  0.4805 -0.2133
   63SAPC   H5X 5083   2.613   6.432   7.029 -0.4848  1.6048 -1.2513
   63SAPC   H5Y 5084   2.686   6.590   7.029 -0.6877  0.3870  0.2748
   63SAPC   C36 5085   2.768   6.458   7.182  0.4800 -1.4233 -0.6507
   63SAPC   H6X 5086   2.879   6.447   7.179  1.4151  4.3284  0.5501
   63SAPC   H6Y 5087   2.723   6.363   7.218  0.6996 -0.6144  1.9281
   63SAPC   C37 5088   2.736   6.581   7.274  0.0085 -0.2991  0.4805
   63SAPC   H7X 5089   2.628   6.610   7.274  0.2931  0.9810 -1.3533
   63SAPC   H7Y 5090   2.799   6.665   7.236 -0.0285  0.7083  2.5408
   63SAPC   C38 5091   2.807   6.568   7.408  0.4783 -0.4466  0.2515
   63SAPC   H8X 5092   2.905   6.525   7.378  0.3307  0.3649 -1.5076
   63SAPC   H8Y 5093   2.755   6.494   7.472 -1.2384 -0.7543 -1.4119
   63SAPC   C39 5094   2.841   6.703   7.474  0.3043 -0.0605 -0.0486
   63SAPC   H9X 5095   2.744   6.757   7.485  0.0613 -0.5752  0.4124
   63SAPC   H9Y 5096   2.899   6.767   7.405 -0.7493  0.0004 -0.9082
   63SAPC  C310 5097   2.894   6.688   7.618 -0.0458  0.0493 -0.3831
   63SAPC  H10X 5098   2.910   6.790   7.659 -3.1331  0.3629  0.2662
   63SAPC  H10Y 5099   2.992   6.637   7.608  0.3095  0.9782 -2.1610
   63SAPC  C311 5100   2.820   6.601   7.720 -0.3277 -0.3065 -0.0732
   63SAPC  H11X 5101   2.791   6.503   7.678 -1.5343  0.1077 -0.2662
   63SAPC  H11Y 5102   2.721   6.650   7.738  0.4307  0.2062  3.4552
   63SAPC  C312 5103   2.897   6.587   7.854  0.7612  0.2116 -0.6837
   63SAPC  H12X 5104   2.939   6.687   7.875 -0.6081  0.7349 -0.3373
   63SAPC  H12Y 5105   2.980   6.513   7.847 -0.1462 -1.1366  1.4920
   63SAPC  C313 5106   2.809   6.546   7.978 -0.3761 -0.5319  0.7717
   63SAPC  H13X 5107   2.809   6.437   8.001  2.3342 -1.1277 -1.4378
   63SAPC  H13Y 5108   2.702   6.573   7.967 -0.4145 -0.3965  1.4171
   63SAPC  C314 5109   2.870   6.600   8.109  0.0991  0.5531 -0.0958
   63SAPC  H14X 5110   2.902   6.706   8.102 -1.3304  0.9897 -0.3343
   63SAPC  H14Y 5111   2.958   6.536   8.129 -0.3612 -0.1176 -0.1712
   63SAPC  C315 5112   2.785   6.580   8.238  0.2133  0.0249 -0.3122
   63SAPC  H15X 5113   2.679   6.610   8.225 -0.2379 -0.7765  1.2704
   63SAPC  H15Y 5114   2.821   6.655   8.312  0.2508  0.1883 -0.4961
   63SAPC  C316 5115   2.790   6.435   8.284  0.5826 -0.0153 -0.0110
   63SAPC  H16X 5116   2.896   6.403   8.275  0.7279  0.8218 -1.6018
   63SAPC  H16Y 5117   2.732   6.369   8.215  0.0979  0.8468 -0.4349
   63SAPC  C317 5118   2.726   6.421   8.426  0.5050 -0.1859 -0.0595
   63SAPC  H17X 5119   2.618   6.446   8.417  0.9081  2.0300  0.6625
   63SAPC  H17Y 5120   2.771   6.476   8.511 -0.4178 -2.7843  2.2650
   63SAPC  C318 5121   2.734   6.273   8.474 -0.1443  0.1096 -0.8869
   63SAPC  H18X 5122   2.684   6.203   8.405 -0.9759 -0.0701 -0.1166
   63SAPC  H18Y 5123   2.688   6.251   8.573  2.7221 -0.8901  0.3708
   63SAPC  H18Z 5124   2.837   6.237   8.500 -0.6176  1.3368  3.4948
   64SAPC     N 5125   6.064   6.711   6.160 -0.4095  0.8808  0.7893
   64SAPC   C12 5126   6.019   6.826   6.250 -1.1724  0.7723  0.0148
   64SAPC  H12A 5127   6.089   6.908   6.247 -2.0661  1.5433 -1.7123
   64SAPC  H12B 5128   6.025   6.783   6.348 -1.2065  2.6844  0.8938
   64SAPC   C13 5129   5.956   6.604   6.163  0.8863 -0.0958 -0.5129
   64SAPC  H13A 5130   5.865   6.640   6.117 -0.0963 -1.3294  0.3966
   64SAPC  H13B 5131   5.999   6.513   6.123  1.3276 -2.7807  5.0959
   64SAPC  H13C 5132   5.932   6.574   6.264  1.5648  2.2632  0.4231
   64SAPC   C14 5133   6.083   6.751   6.019  0.5001 -0.3650  0.3532
   64SAPC  H14A 5134   6.093   6.661   5.960 -0.1449  0.6854 -1.4255
   64SAPC  H14B 5135   5.996   6.807   5.987  2.8967  2.8880 -0.9772
   64SAPC  H14C 5136   6.172   6.811   6.007 -0.2447  0.7273  0.1357
   64SAPC   C15 5137   6.191   6.656   6.223 -0.2443  0.3622 -0.2019
   64SAPC  H15A 5138   6.184   6.649   6.330 -0.7716  3.0859  0.0187
   64SAPC  H15B 5139   6.217   6.559   6.184  0.3485  0.8411 -1.0395
   64SAPC  H15C 5140   6.276   6.718   6.196 -2.5561  2.4886 -3.4378
   64SAPC   C11 5141   5.878   6.885   6.230  0.1842 -1.1208 -0.1501
   64SAPC  H11A 5142   5.861   6.958   6.311  0.8415 -0.8539 -0.2443
   64SAPC  H11B 5143   5.798   6.811   6.252 -1.9648  1.3980  0.9818
   64SAPC     P 5144   5.719   6.980   6.033 -0.1300  0.2526 -0.0537
   64SAPC   O13 5145   5.734   7.074   5.922  0.2299 -0.4089  0.2818
   64SAPC   O14 5146   5.660   6.852   6.004 -0.1322  0.5237 -0.1446
   64SAPC   O12 5147   5.861   6.956   6.101 -0.3034 -0.0603  0.1626
   64SAPC   O11 5148   5.642   7.048   6.153  0.0885 -0.0606 -0.2588
   64SAPC    C1 5149   5.503   7.042   6.176  0.4311  0.1287  0.1114
   64SAPC    HA 5150   5.466   7.142   6.144 -1.6959 -0.2770  1.0997
   64SAPC    HB 5151   5.447   6.966   6.117 -1.5183  0.9783  0.7851
   64SAPC    C2 5152   5.457   7.012   6.322  0.7270 -0.2866 -0.4438
   64SAPC    HS 5153   5.347   6.999   6.333  0.5422  0.7116 -0.9347
   64SAPC   O21 5154   5.498   7.112   6.416 -0.2786 -0.1905  0.1591
   64SAPC   C21 5155   5.434   7.227   6.405  0.3400 -0.1484 -0.4029
   64SAPC   O22 5156   5.335   7.255   6.335  0.2942 -0.1477  0.2277
   64SAPC   C22 5157   5.485   7.311   6.524  0.1598  0.1634  0.3340
   64SAPC   H2R 5158   5.483   7.233   6.603 -2.1729  0.1978  0.3687
   64SAPC   H2S 5159   5.594   7.324   6.506  0.4775 -1.6744  0.7097
   64SAPC    C3 5160   5.506   6.873   6.376 -0.6684  0.2928  0.2781
   64SAPC    HX 5161   5.616   6.879   6.390 -0.3398 -0.6117 -1.6377
   64SAPC    HY 5162   5.492   6.796   6.297 -1.0257 -0.6151  1.2024
   64SAPC   O31 5163   5.433   6.840   6.500 -0.1815 -0.3734  0.3263
   64SAPC   C31 5164   5.507   6.858   6.617  0.7988  0.0454 -0.2614
   64SAPC   O32 5165   5.618   6.894   6.627 -0.6576  0.2719  0.9781
   64SAPC   C32 5166   5.426   6.823   6.745  0.1214 -0.0125  0.4232
   64SAPC   H2X 5167   5.507   6.785   6.810  0.9625 -4.2380 -2.6205
   64SAPC   H2Y 5168   5.348   6.744   6.736 -1.2612  0.8495  3.4922
   64SAPC   C23 5169   5.402   7.436   6.577 -0.1962 -0.2270 -0.3072
   64SAPC   H3R 5170   5.296   7.406   6.571 -0.6625  0.8729  1.4745
   64SAPC   H3S 5171   5.414   7.506   6.492  1.9638 -1.8765 -1.4683
   64SAPC   C24 5172   5.428   7.492   6.713  0.6557  0.4384 -0.1044
   64SAPC   H4R 5173   5.366   7.583   6.730 -1.1108 -0.7281 -0.0015
   64SAPC   H4S 5174   5.532   7.530   6.718  0.9280 -0.4302  2.4096
   64SAPC   C25 5175   5.407   7.386   6.818 -0.2585 -0.9415  0.2922
   64SAPC   H5R 5176   5.379   7.289   6.775  1.9875 -1.6036  0.2036
   64SAPC   C26 5177   5.410   7.414   6.949 -0.5066 -0.2544 -0.3637
   64SAPC   H6R 5178   5.383   7.335   7.021 -0.7145  0.7805  0.7259
   64SAPC   C27 5179   5.447   7.550   7.004  0.1826  0.6614  0.1309
   64SAPC   H7R 5180   5.351   7.605   7.014 -0.1087  0.9023 -2.9679
   64SAPC   H7S 5181   5.495   7.606   6.920  0.3666 -0.3991 -0.4915
   64SAPC   C28 5182   5.522   7.545   7.136  0.3014 -0.0877  0.8895
   64SAPC   H8R 5183   5.626   7.509   7.124  0.2756  0.8077 -4.2843
   64SAPC   C29 5184   5.473   7.576   7.257 -0.5178 -0.1911  0.0141
   64SAPC   H9R 5185   5.540   7.571   7.344  0.2952  1.4243 -0.4965
   64SAPC  C210 5186   5.331   7.618   7.288 -0.0751  0.2801 -0.2348
   64SAPC  H10R 5187   5.282   7.661   7.199  2.7990  1.7582 -1.2371
   64SAPC  H10S 5188   5.328   7.696   7.368  1.3932  1.8474 -1.6341
   64SAPC  C211 5189   5.238   7.503   7.330 -0.1775  0.3414 -0.2460
   64SAPC  H11R 5190   5.169   7.460   7.256 -0.0965 -2.1557  1.0195
   64SAPC  C212 5191   5.230   7.460   7.459 -0.0580 -0.0613 -0.9190
   64SAPC  H12R 5192   5.166   7.373   7.483  2.4849 -1.5746  0.9693
   64SAPC  C213 5193   5.316   7.512   7.574  0.5327 -0.5118  0.0363
   64SAPC  H13R 5194   5.291   7.620   7.580 -2.7655 -1.2297  1.2908
   64SAPC  H13S 5195   5.425   7.503   7.555  0.6063  1.3088 -0.6018
   64SAPC  C214 5196   5.262   7.456   7.701 -0.4329 -0.0509  0.8631
   64SAPC  H14R 5197   5.159   7.482   7.731 -1.3787 -3.3064  0.9122
   64SAPC  C215 5198   5.328   7.378   7.783  0.1260  0.1011  0.4134
   64SAPC  H15R 5199   5.272   7.345   7.872  2.9111 -1.6740  1.6538
   64SAPC  C216 5200   5.463   7.319   7.766  0.6321  0.1043  0.0411
   64SAPC  H16R 5201   5.483   7.299   7.659 -0.6163 -0.6934 -0.0546
   64SAPC  H16S 5202   5.474   7.216   7.806 -0.6280  0.0833  0.3749
   64SAPC  C217 5203   5.567   7.418   7.815 -0.3716  0.2236 -0.3955
   64SAPC  H17R 5204   5.546   7.518   7.771  0.0349 -0.0330 -1.2058
   64SAPC  H17S 5205   5.666   7.389   7.773  1.3591  1.2023  2.6802
   64SAPC  C218 5206   5.574   7.434   7.979 -0.4156  0.3349  0.3209
   64SAPC  H18R 5207   5.470   7.461   8.008 -1.5114 -2.7882 -0.2328
   64SAPC  H18S 5208   5.649   7.513   7.999  1.4241 -1.0417 -0.8480
   64SAPC  C219 5209   5.625   7.309   8.052  0.1095  0.1987  0.9584
   64SAPC  H19R 5210   5.710   7.272   7.992  0.0870  1.3384  0.1896
   64SAPC  H19S 5211   5.543   7.234   8.053  0.8210 -0.5895  0.8323
   64SAPC  C220 5212   5.673   7.331   8.198  0.9958 -0.5485 -0.1337
   64SAPC  H20R 5213   5.760   7.399   8.192  1.3481 -0.9532  0.3618
   64SAPC  H20S 5214   5.708   7.235   8.241  1.1742 -0.2290  0.4259
   64SAPC  H20T 5215   5.603   7.372   8.274 -0.7725 -1.7932 -1.0055
   64SAPC   C33 5216   5.345   6.941   6.821  0.0335  0.6560  0.2103
   64SAPC   H3X 5217   5.253   6.937   6.761 -0.1213 -2.0819  0.5208
   64SAPC   H3Y 5218   5.403   7.033   6.795  1.0907 -0.0045  0.1532
   64SAPC   C34 5219   5.312   6.929   6.964  0.0125  0.2353 -0.2566
   64SAPC   H4X 5220   5.411   6.930   7.014 -0.4811  0.1172  0.7489
   64SAPC   H4Y 5221   5.257   6.834   6.980 -1.3711  0.9553 -0.5453
   64SAPC   C35 5222   5.226   7.034   7.025 -0.6827  0.7831  0.0118
   64SAPC   H5X 5223   5.118   7.033   6.997 -0.3032  1.2829 -1.5486
   64SAPC   H5Y 5224   5.273   7.130   6.994  2.1088 -0.5710 -0.2920
   64SAPC   C36 5225   5.231   7.022   7.178  0.1251 -0.7837  0.3152
   64SAPC   H6X 5226   5.337   7.030   7.207  0.4013  3.2056 -1.2253
   64SAPC   H6Y 5227   5.194   6.921   7.208  1.6157 -0.8071  2.2554
   64SAPC   C37 5228   5.148   7.120   7.261 -0.1830 -0.2841  0.3073
   64SAPC   H7X 5229   5.047   7.138   7.219 -0.2652  0.3959  0.7742
   64SAPC   H7Y 5230   5.198   7.219   7.260 -0.2246 -0.2503 -1.3735
   64SAPC   C38 5231   5.135   7.072   7.407 -0.8724  0.1690 -0.3482
   64SAPC   H8X 5232   5.110   7.165   7.463  1.7224  0.3766  0.5958
   64SAPC   H8Y 5233   5.235   7.035   7.437 -1.0119 -0.8935 -1.1485
   64SAPC   C39 5234   5.015   6.979   7.430 -0.3033 -0.0247  0.2861
   64SAPC   H9X 5235   5.033   6.892   7.364  0.0043  1.2147 -1.3050
   64SAPC   H9Y 5236   4.921   7.028   7.395  0.4150 -0.1230 -1.9016
   64SAPC  C310 5237   4.994   6.930   7.576 -0.0396  0.3057  0.2254
   64SAPC  H10X 5238   5.003   7.011   7.652  2.2514 -0.1379  0.5004
   64SAPC  H10Y 5239   5.078   6.861   7.599 -0.9594 -1.0243 -0.2556
   64SAPC  C311 5240   4.863   6.858   7.586 -0.6749 -0.5210  0.1718
   64SAPC  H11X 5241   4.849   6.792   7.498 -0.4885  1.9241 -1.7925
   64SAPC  H11Y 5242   4.784   6.933   7.566 -0.5372 -0.8093 -1.5446
   64SAPC  C312 5243   4.834   6.783   7.713  0.5134 -0.1896 -0.1370
   64SAPC  H12X 5244   4.907   6.700   7.729  0.6532  0.3733  2.7421
   64SAPC  H12Y 5245   4.738   6.728   7.718  0.2768 -0.1075 -2.7498
   64SAPC  C313 5246   4.823   6.851   7.859 -0.2312 -0.3143 -0.2089
   64SAPC  H13X 5247   4.737   6.921   7.869 -0.1908 -0.5196  2.2067
   64SAPC  H13Y 5248   4.920   6.905   7.862 -1.1899  1.4440  0.6477
   64SAPC  C314 5249   4.802   6.746   7.966  0.4810  0.2369 -0.2689
   64SAPC  H14X 5250   4.906   6.708   7.976 -0.3601 -1.5572  3.1972
   64SAPC  H14Y 5251   4.729   6.672   7.927  1.2165 -1.0964  0.7725
   64SAPC  C315 5252   4.753   6.792   8.104  0.6366 -0.6142 -0.2805
   64SAPC  H15X 5253   4.722   6.702   8.160 -1.7714  0.1264 -0.2977
   64SAPC  H15Y 5254   4.661   6.851   8.083  0.5206 -1.5379 -2.6361
   64SAPC  C316 5255   4.857   6.876   8.189  0.1900  0.0262  0.4705
   64SAPC  H16X 5256   4.890   6.970   8.142  0.5140  0.1588  0.9548
   64SAPC  H16Y 5257   4.945   6.811   8.203  1.1280  1.5561  2.1486
   64SAPC  C317 5258   4.809   6.890   8.335  0.3393 -0.0750  0.9822
   64SAPC  H17X 5259   4.760   6.795   8.362 -1.8546  0.0676 -1.9320
   64SAPC  H17Y 5260   4.727   6.965   8.344 -0.4547 -0.4066 -2.1258
   64SAPC  C318 5261   4.914   6.926   8.436 -0.1589 -0.6532  0.4923
   64SAPC  H18X 5262   5.009   6.876   8.407 -0.9018 -1.9890  0.2919
   64SAPC  H18Y 5263   4.888   6.898   8.540 -0.5490 -0.2419  0.5096
   64SAPC  H18Z 5264   4.927   7.036   8.428  1.7445 -0.8267  0.6528
   65SAPC     N 5265   4.871   2.595   5.976  0.0112  0.2743 -0.1464
   65SAPC   C12 5266   4.848   2.536   6.115 -0.5107 -0.2761 -0.0383
   65SAPC  H12A 5267   4.907   2.591   6.186  0.9128  0.5823 -1.8085
   65SAPC  H12B 5268   4.883   2.434   6.118 -1.3211 -0.5402  1.8894
   65SAPC   C13 5269   4.795   2.724   5.949 -0.0223  0.2088  0.0270
   65SAPC  H13A 5270   4.703   2.734   6.003 -0.3592  3.0059 -0.8883
   65SAPC  H13B 5271   4.852   2.808   5.985 -1.3187  0.4886  1.4964
   65SAPC  H13C 5272   4.772   2.736   5.844  0.1762 -1.5460 -0.2452
   65SAPC   C14 5273   5.016   2.617   5.958 -0.2239  0.5747  0.3959
   65SAPC  H14A 5274   5.050   2.676   6.042 -0.5545 -0.0122  0.9419
   65SAPC  H14B 5275   5.074   2.526   5.951 -1.6511 -0.4536  1.5808
   65SAPC  H14C 5276   5.036   2.681   5.873 -2.2828  1.8499  0.8054
   65SAPC   C15 5277   4.811   2.503   5.874 -0.1724 -0.6405 -0.4861
   65SAPC  H15A 5278   4.708   2.488   5.900  0.2016  0.8651  2.2236
   65SAPC  H15B 5279   4.821   2.551   5.777  1.4940 -2.5372 -1.3501
   65SAPC  H15C 5280   4.866   2.409   5.876  0.3389 -0.3442 -0.4230
   65SAPC   C11 5281   4.702   2.523   6.168  0.0183 -0.7345  0.0155
   65SAPC  H11A 5282   4.657   2.623   6.183  0.5595 -0.7739  2.1154
   65SAPC  H11B 5283   4.710   2.485   6.272 -0.3141  1.1016  0.7510
   65SAPC     P 5284   4.628   2.282   6.101 -0.0764  0.1167  0.0036
   65SAPC   O13 5285   4.584   2.216   5.977 -0.0171  0.1607 -0.6137
   65SAPC   O14 5286   4.764   2.241   6.143 -0.0760 -0.1984 -0.2677
   65SAPC   O12 5287   4.614   2.441   6.090 -0.0245  0.1225 -0.0017
   65SAPC   O11 5288   4.521   2.246   6.216 -0.0168 -0.0535 -0.2336
   65SAPC    C1 5289   4.412   2.337   6.253 -0.1471  0.4586  0.0290
   65SAPC    HA 5290   4.401   2.413   6.173  2.0442 -0.3080 -1.0945
   65SAPC    HB 5291   4.316   2.283   6.263  0.4807 -0.3175  2.7662
   65SAPC    C2 5292   4.438   2.417   6.386 -0.0313 -0.3398 -0.0736
   65SAPC    HS 5293   4.517   2.493   6.365 -1.2279  0.8388 -0.4146
   65SAPC   O21 5294   4.469   2.326   6.492 -0.6183  0.3609 -0.3616
   65SAPC   C21 5295   4.572   2.365   6.563 -0.5233  0.4471  0.0144
   65SAPC   O22 5296   4.646   2.455   6.536 -0.4740 -0.1368  0.0837
   65SAPC   C22 5297   4.571   2.280   6.692  0.4922  0.0107  0.3280
   65SAPC   H2R 5298   4.502   2.327   6.767  0.6733  1.0402 -0.1312
   65SAPC   H2S 5299   4.544   2.173   6.677 -1.1823  0.2319  1.4026
   65SAPC    C3 5300   4.309   2.487   6.435 -1.0986  0.4986 -0.3348
   65SAPC    HX 5301   4.236   2.405   6.452 -1.4645  0.4778 -1.8883
   65SAPC    HY 5302   4.266   2.551   6.356 -0.6656 -0.3900 -1.3164
   65SAPC   O31 5303   4.325   2.563   6.562 -0.2654  0.3754  0.3644
   65SAPC   C31 5304   4.390   2.675   6.553 -0.1753 -0.9094 -0.3106
   65SAPC   O32 5305   4.427   2.740   6.460  0.4890 -0.0313  0.2347
   65SAPC   C32 5306   4.400   2.731   6.696  0.2901 -0.0175  0.2497
   65SAPC   H2X 5307   4.298   2.763   6.726 -0.6332  1.2505 -3.6901
   65SAPC   H2Y 5308   4.459   2.825   6.694  1.3736 -0.6553  1.1992
   65SAPC   C23 5309   4.709   2.282   6.756  0.1159  0.3200 -0.5408
   65SAPC   H3R 5310   4.738   2.385   6.788  4.3703 -0.3420 -1.7338
   65SAPC   H3S 5311   4.778   2.245   6.677 -0.7668 -0.1579 -1.1012
   65SAPC   C24 5312   4.713   2.192   6.882  0.5010  0.2461 -0.2343
   65SAPC   H4R 5313   4.817   2.194   6.921  1.2575  0.0420 -2.1493
   65SAPC   H4S 5314   4.695   2.086   6.856 -1.1757  0.4668 -0.0710
   65SAPC   C25 5315   4.602   2.233   6.976 -0.3869  0.0635  0.2230
   65SAPC   H5R 5316   4.500   2.195   6.957 -1.2997  0.0260  4.1669
   65SAPC   C26 5317   4.615   2.314   7.085  0.2506  0.5504 -0.5712
   65SAPC   H6R 5318   4.524   2.330   7.143 -0.3628 -2.9801 -0.3307
   65SAPC   C27 5319   4.737   2.386   7.137  0.0980 -0.6609 -0.2944
   65SAPC   H7R 5320   4.707   2.493   7.129  0.1462 -0.7406 -1.8806
   65SAPC   H7S 5321   4.825   2.369   7.072 -0.5949  0.5571 -1.6120
   65SAPC   C28 5322   4.764   2.344   7.286  0.0788 -1.2022  0.0624
   65SAPC   H8R 5323   4.777   2.237   7.307  1.1947 -1.2861 -0.9611
   65SAPC   C29 5324   4.782   2.439   7.382  0.2337 -0.1387  0.5014
   65SAPC   H9R 5325   4.828   2.407   7.477  1.0689  1.5521  0.7069
   65SAPC  C210 5326   4.762   2.594   7.373 -0.1568  0.1169 -0.2655
   65SAPC  H10R 5327   4.652   2.607   7.359 -0.3972 -0.5845  0.7912
   65SAPC  H10S 5328   4.809   2.638   7.283  1.1800  0.8493  0.7628
   65SAPC  C211 5329   4.795   2.682   7.491 -0.3164  0.4280 -0.3610
   65SAPC  H11R 5330   4.856   2.770   7.468  0.9970 -0.7580 -1.5722
   65SAPC  C212 5331   4.746   2.679   7.614  0.3564 -0.0559 -0.0449
   65SAPC  H12R 5332   4.794   2.751   7.682  2.1620 -0.8515 -0.4076
   65SAPC  C213 5333   4.656   2.586   7.690 -0.0608  0.3162 -0.2764
   65SAPC  H13R 5334   4.720   2.539   7.769  0.3492  1.7886  0.3098
   65SAPC  H13S 5335   4.619   2.505   7.624 -1.0352 -1.2113  1.9872
   65SAPC  C214 5336   4.536   2.660   7.746 -0.1894  0.0784  1.1369
   65SAPC  H14R 5337   4.468   2.674   7.661 -0.0420  0.7327  1.1195
   65SAPC  C215 5338   4.509   2.700   7.874 -0.8031 -0.1252  0.5400
   65SAPC  H15R 5339   4.409   2.740   7.894 -0.1250  2.3252 -0.5604
   65SAPC  C216 5340   4.596   2.686   8.002  0.2398 -0.6278  0.1285
   65SAPC  H16R 5341   4.679   2.614   7.987 -0.3700 -1.2204 -0.4423
   65SAPC  H16S 5342   4.538   2.653   8.090 -0.7604 -0.4103 -0.4402
   65SAPC  C217 5343   4.671   2.817   8.020 -0.7714 -0.2351 -0.0581
   65SAPC  H17R 5344   4.608   2.908   8.012 -0.7357 -0.2698 -0.7607
   65SAPC  H17S 5345   4.750   2.830   7.942  2.0011 -1.9924  2.2568
   65SAPC  C218 5346   4.744   2.838   8.150 -0.3617 -0.7160  0.6623
   65SAPC  H18R 5347   4.777   2.740   8.190  0.2079 -0.1751  1.5790
   65SAPC  H18S 5348   4.674   2.884   8.223  0.1498  3.8290 -1.3437
   65SAPC  C219 5349   4.881   2.920   8.149  0.0680  0.5170  0.0156
   65SAPC  H19R 5350   4.953   2.882   8.074 -0.2928  0.6966 -0.4300
   65SAPC  H19S 5351   4.923   2.919   8.252  1.9445 -0.4153 -0.7287
   65SAPC  C220 5352   4.850   3.069   8.113  0.2359  0.3471 -0.0631
   65SAPC  H20R 5353   4.795   3.077   8.017 -2.6820  0.7986  1.5323
   65SAPC  H20S 5354   4.942   3.130   8.098  0.4005  0.1821  0.2904
   65SAPC  H20T 5355   4.778   3.110   8.187  0.4792  1.9208 -0.6588
   65SAPC   C33 5356   4.480   2.642   6.797 -0.8894  0.2363 -0.4174
   65SAPC   H3X 5357   4.577   2.603   6.759 -1.1816 -0.3445 -0.5838
   65SAPC   H3Y 5358   4.424   2.550   6.827  0.6284  0.0679  2.2086
   65SAPC   C34 5359   4.518   2.722   6.928  0.7415 -0.0421  0.2710
   65SAPC   H4X 5360   4.602   2.792   6.910  1.1545 -0.4114  0.7349
   65SAPC   H4Y 5361   4.561   2.649   6.999  1.4441  0.8316  0.7565
   65SAPC   C35 5362   4.401   2.790   7.002 -0.0156  0.2233  0.2099
   65SAPC   H5X 5363   4.329   2.716   7.041 -0.1232  0.4169  0.3811
   65SAPC   H5Y 5364   4.347   2.860   6.934  0.3624  0.3097 -0.0070
   65SAPC   C36 5365   4.453   2.869   7.124  0.0950 -0.1882 -0.1613
   65SAPC   H6X 5366   4.524   2.950   7.098  0.0946  0.3135  1.3025
   65SAPC   H6Y 5367   4.509   2.799   7.190  1.8148  1.7544  0.5454
   65SAPC   C37 5368   4.346   2.923   7.230  0.6136 -0.8895  0.1558
   65SAPC   H7X 5369   4.245   2.931   7.184  1.2434  1.5024 -0.9672
   65SAPC   H7Y 5370   4.371   3.024   7.267 -0.7677 -0.3552 -0.3106
   65SAPC   C38 5371   4.316   2.846   7.359  0.8392  0.1058 -0.7088
   65SAPC   H8X 5372   4.414   2.812   7.397 -0.1394 -1.3613  0.6363
   65SAPC   H8Y 5373   4.254   2.756   7.340 -0.3408  0.7247  0.0789
   65SAPC   C39 5374   4.240   2.933   7.469 -0.7778  0.3305 -0.3000
   65SAPC   H9X 5375   4.134   2.918   7.438 -0.6830  0.0694 -0.4955
   65SAPC   H9Y 5376   4.273   3.038   7.481 -3.4748  1.1208  1.0988
   65SAPC  C310 5377   4.257   2.871   7.613  0.4736 -0.0659  0.1492
   65SAPC  H10X 5378   4.363   2.888   7.643  0.2234  3.5442 -0.5163
   65SAPC  H10Y 5379   4.224   2.765   7.614 -0.8286  0.3231  0.6883
   65SAPC  C311 5380   4.175   2.941   7.725 -0.0380 -0.1502  0.0993
   65SAPC  H11X 5381   4.210   3.046   7.736 -0.4283  0.1038 -0.9725
   65SAPC  H11Y 5382   4.200   2.892   7.821 -0.2503 -1.3858 -0.4663
   65SAPC  C312 5383   4.028   2.940   7.710 -0.1605  0.0994  0.8576
   65SAPC  H12X 5384   4.003   2.838   7.675 -2.8737  0.6017  1.0877
   65SAPC  H12Y 5385   4.010   3.004   7.620 -2.5415  0.5040  1.5340
   65SAPC  C313 5386   3.948   2.983   7.832  0.1011  0.0861  0.8659
   65SAPC  H13X 5387   3.845   2.991   7.790  1.7026  1.4422 -3.3535
   65SAPC  H13Y 5388   3.964   3.091   7.852  1.6830  0.0335  0.0473
   65SAPC  C314 5389   3.960   2.906   7.958  0.5213  0.0227  0.0154
   65SAPC  H14X 5390   3.893   2.960   8.029  1.1549 -0.2250  0.8194
   65SAPC  H14Y 5391   4.066   2.923   7.989  1.4360 -2.3608 -1.4913
   65SAPC  C315 5392   3.932   2.752   7.956  0.0407 -0.3523  0.7098
   65SAPC  H15X 5393   4.006   2.698   7.894  0.5202 -0.6933  1.5584
   65SAPC  H15Y 5394   3.831   2.747   7.911  0.8908 -1.6019 -1.2085
   65SAPC  C316 5395   3.937   2.695   8.099 -0.5558  0.0976 -0.2643
   65SAPC  H16X 5396   3.885   2.764   8.169 -0.8170 -0.8522  0.5104
   65SAPC  H16Y 5397   4.042   2.688   8.136 -0.1115 -0.2841 -1.5583
   65SAPC  C317 5398   3.869   2.555   8.102 -0.2992  0.2123  0.5203
   65SAPC  H17X 5399   3.924   2.486   8.034 -0.5643 -1.9279  2.3361
   65SAPC  H17Y 5400   3.766   2.562   8.061 -0.9046 -2.2548  1.4005
   65SAPC  C318 5401   3.868   2.496   8.245  1.3506 -0.6684 -0.2226
   65SAPC  H18X 5402   3.800   2.409   8.254  2.6456 -1.5570  1.8671
   65SAPC  H18Y 5403   3.850   2.576   8.319 -0.2778  2.0973 -3.3449
   65SAPC  H18Z 5404   3.974   2.467   8.261  2.0486  2.2646  1.0097
   66SAPC     N 5405   3.601   0.891   5.882 -0.0932 -0.4016  0.3118
   66SAPC   C12 5406   3.519   0.912   6.001 -0.1437 -0.0381 -0.2862
   66SAPC  H12A 5407   3.463   0.822   6.022 -0.7292  0.4220  0.1426
   66SAPC  H12B 5408   3.449   0.987   5.967  0.3655  0.7089  0.2830
   66SAPC   C13 5409   3.649   1.020   5.836 -0.4259 -0.9628  0.2257
   66SAPC  H13A 5410   3.569   1.090   5.821  2.1084  2.1620  0.0871
   66SAPC  H13B 5411   3.712   1.063   5.913 -0.0402 -2.4698  0.7957
   66SAPC  H13C 5412   3.701   1.009   5.742  1.7021 -2.2027  1.4623
   66SAPC   C14 5413   3.717   0.808   5.913  0.8538 -0.4123 -0.1525
   66SAPC  H14A 5414   3.782   0.850   5.989 -0.3910  0.4814  0.4499
   66SAPC  H14B 5415   3.677   0.713   5.942  1.8671 -0.5606  0.8435
   66SAPC  H14C 5416   3.772   0.789   5.822  0.7631  1.2750 -0.5972
   66SAPC   C15 5417   3.525   0.829   5.775  0.3891 -0.0025  0.1781
   66SAPC  H15A 5418   3.576   0.846   5.681  1.4631  3.1022  1.1883
   66SAPC  H15B 5419   3.522   0.722   5.784 -1.4720 -0.1821 -1.8357
   66SAPC  H15C 5420   3.431   0.881   5.771  0.4199  0.3972  2.7043
   66SAPC   C11 5421   3.595   0.957   6.132 -0.2397 -0.0410  0.3450
   66SAPC  H11A 5422   3.678   0.889   6.160 -1.7475 -0.8205  3.3558
   66SAPC  H11B 5423   3.524   0.945   6.217 -1.2615 -0.7856 -0.5883
   66SAPC     P 5424   3.542   1.213   6.124  0.0167  0.2241  0.6208
   66SAPC   O13 5425   3.603   1.346   6.156 -0.1258 -0.1058  0.1255
   66SAPC   O14 5426   3.471   1.200   5.997 -0.3871 -0.3433  0.6346
   66SAPC   O12 5427   3.652   1.088   6.130  0.5570  0.2482 -0.1034
   66SAPC   O11 5428   3.437   1.157   6.228 -0.0161 -0.3866  0.1265
   66SAPC    C1 5429   3.305   1.113   6.193  0.4274 -0.6703  0.3045
   66SAPC    HA 5430   3.247   1.194   6.144 -0.6647 -1.5674  0.0689
   66SAPC    HB 5431   3.295   1.022   6.130  0.0889 -1.5917  1.6521
   66SAPC    C2 5432   3.218   1.089   6.319 -0.8305  0.6861 -0.6880
   66SAPC    HS 5433   3.113   1.086   6.284 -0.8541 -1.0964 -0.5279
   66SAPC   O21 5434   3.227   1.196   6.416  0.3577  0.8405  0.6791
   66SAPC   C21 5435   3.169   1.315   6.376 -0.5216 -0.0437 -0.3886
   66SAPC   O22 5436   3.100   1.326   6.276  0.6532 -0.0667  0.4615
   66SAPC   C22 5437   3.211   1.432   6.461  0.6267  0.3187 -0.0913
   66SAPC   H2R 5438   3.308   1.464   6.417 -0.0445  0.7875 -1.2625
   66SAPC   H2S 5439   3.124   1.501   6.464  0.2736 -0.0990 -0.5740
   66SAPC    C3 5440   3.269   0.958   6.391 -0.3043  0.0742 -0.5346
   66SAPC    HX 5441   3.378   0.950   6.371  0.0132 -2.2399  1.6998
   66SAPC    HY 5442   3.221   0.874   6.335  0.8637  0.2883 -1.9190
   66SAPC   O31 5443   3.242   0.955   6.533  0.0261  0.3253 -0.2487
   66SAPC   C31 5444   3.114   0.932   6.561 -0.1821  0.0876  0.0775
   66SAPC   O32 5445   3.029   0.903   6.477 -1.1700 -0.8508  0.3349
   66SAPC   C32 5446   3.104   0.943   6.708  0.3953 -0.4951  0.0238
   66SAPC   H2X 5447   3.170   0.868   6.757 -2.0061 -1.5579  1.8850
   66SAPC   H2Y 5448   2.999   0.923   6.738  0.2127  1.6564  0.9784
   66SAPC   C23 5449   3.238   1.382   6.607 -0.2358  0.3525 -0.3128
   66SAPC   H3R 5450   3.311   1.298   6.612 -1.5987 -0.9022 -0.8368
   66SAPC   H3S 5451   3.138   1.370   6.653  1.2094 -0.8247  2.8455
   66SAPC   C24 5452   3.296   1.504   6.687 -0.2749  0.5226 -0.6498
   66SAPC   H4R 5453   3.262   1.488   6.792 -2.7755 -0.0572 -1.4784
   66SAPC   H4S 5454   3.244   1.590   6.641 -3.9277 -1.2917 -0.2383
   66SAPC   C25 5455   3.449   1.508   6.676  0.5707 -0.0246  0.5045
   66SAPC   H5R 5456   3.487   1.479   6.576  0.2797 -0.0326  0.3950
   66SAPC   C26 5457   3.530   1.532   6.776  0.2166  0.5139 -0.2788
   66SAPC   H6R 5458   3.638   1.534   6.757  0.1294 -0.8873 -1.0358
   66SAPC   C27 5459   3.491   1.575   6.919  0.3714 -0.6540  0.2161
   66SAPC   H7R 5460   3.467   1.483   6.976 -0.4331 -1.6979 -1.7042
   66SAPC   H7S 5461   3.415   1.655   6.929  0.7120  0.0085 -2.0124
   66SAPC   C28 5462   3.616   1.645   6.969  0.4172  0.7338  0.3318
   66SAPC   H8R 5463   3.672   1.696   6.889  1.9404 -1.0557  0.1950
   66SAPC   C29 5464   3.648   1.674   7.096 -0.8244  0.5595 -0.5661
   66SAPC   H9R 5465   3.741   1.731   7.114 -0.5866 -0.2478  0.9397
   66SAPC  C210 5466   3.568   1.627   7.212  0.0235  0.0836 -0.7759
   66SAPC  H10R 5467   3.626   1.538   7.245  0.9758  0.3323 -1.7044
   66SAPC  H10S 5468   3.473   1.580   7.180  0.4160 -2.5336  1.4564
   66SAPC  C211 5469   3.545   1.733   7.311 -0.2421  0.3464 -1.1459
   66SAPC  H11R 5470   3.487   1.820   7.277  2.5894  2.7823 -0.1820
   66SAPC  C212 5471   3.572   1.728   7.446 -0.0851 -0.1337 -0.4846
   66SAPC  H12R 5472   3.542   1.818   7.502  0.4406  0.7701 -1.5998
   66SAPC  C213 5473   3.669   1.631   7.511 -0.7129 -0.5115 -0.6375
   66SAPC  H13R 5474   3.693   1.672   7.611 -2.8919  1.6503 -0.9275
   66SAPC  H13S 5475   3.769   1.628   7.462  0.5119  1.1419  1.5905
   66SAPC  C214 5476   3.621   1.483   7.519 -0.4420 -0.6023 -0.8674
   66SAPC  H14R 5477   3.593   1.448   7.419  3.9788  2.7534 -3.6883
   66SAPC  C215 5478   3.620   1.410   7.636  0.5517 -0.3786  0.0854
   66SAPC  H15R 5479   3.589   1.304   7.637 -0.0394 -0.2133  0.9302
   66SAPC  C216 5480   3.665   1.449   7.777  0.5621 -0.2878  0.2213
   66SAPC  H16R 5481   3.696   1.555   7.791 -0.3563 -0.0494  0.5637
   66SAPC  H16S 5482   3.755   1.394   7.811  0.4603 -1.4096 -1.2462
   66SAPC  C217 5483   3.552   1.431   7.882  0.0756  0.4054 -0.3821
   66SAPC  H17R 5484   3.591   1.475   7.977  0.2664 -1.7093  0.5794
   66SAPC  H17S 5485   3.537   1.322   7.898  0.8095  0.3782  0.1666
   66SAPC  C218 5486   3.419   1.494   7.846 -0.4327 -0.8167  0.3010
   66SAPC  H18R 5487   3.386   1.418   7.773  2.6622 -1.7077 -0.3053
   66SAPC  H18S 5488   3.441   1.593   7.800  0.3073  0.5330  3.2653
   66SAPC  C219 5489   3.315   1.507   7.964 -0.0627 -0.3847  0.0074
   66SAPC  H19R 5490   3.352   1.576   8.043 -0.4020  0.2976 -0.4285
   66SAPC  H19S 5491   3.312   1.405   8.009 -2.6744 -1.6367 -2.6611
   66SAPC  C220 5492   3.186   1.550   7.924  1.2140  0.5487 -0.5923
   66SAPC  H20R 5493   3.185   1.606   7.827  0.5700 -0.4457 -1.1787
   66SAPC  H20S 5494   3.145   1.619   8.001 -0.8287 -0.9613 -0.2383
   66SAPC  H20T 5495   3.120   1.462   7.907  0.7114  1.0109 -1.0885
   66SAPC   C33 5496   3.134   1.092   6.756 -0.0627 -0.2237 -0.1033
   66SAPC   H3X 5497   3.057   1.159   6.712 -0.3374  1.6563  2.9492
   66SAPC   H3Y 5498   3.226   1.132   6.709  0.7703 -0.3370  1.3500
   66SAPC   C34 5499   3.131   1.111   6.903  0.3837  0.5906 -0.1720
   66SAPC   H4X 5500   3.203   1.048   6.960  0.2076 -1.0940 -1.7172
   66SAPC   H4Y 5501   3.031   1.076   6.937 -0.1387  1.2456 -0.9907
   66SAPC   C35 5502   3.143   1.262   6.941  0.2220 -0.6210  0.1490
   66SAPC   H5X 5503   3.069   1.322   6.885 -1.1344 -0.5769  1.8986
   66SAPC   H5Y 5504   3.244   1.292   6.905 -0.5410  1.4939 -0.3662
   66SAPC   C36 5505   3.138   1.269   7.096  0.0671  0.1875  0.6162
   66SAPC   H6X 5506   3.222   1.208   7.137  0.2760 -1.9502 -2.6384
   66SAPC   H6Y 5507   3.039   1.244   7.138 -0.6420  2.4998  0.4528
   66SAPC   C37 5508   3.174   1.409   7.151 -0.7809  0.8442 -0.6118
   66SAPC   H7X 5509   3.090   1.482   7.154  0.4422  2.2846  2.1881
   66SAPC   H7Y 5510   3.248   1.456   7.082 -0.0933 -0.9009 -1.1143
   66SAPC   C38 5511   3.234   1.427   7.293 -0.2310  0.6936 -0.1925
   66SAPC   H8X 5512   3.227   1.536   7.313 -1.0664  0.6492 -0.2085
   66SAPC   H8Y 5513   3.337   1.386   7.290  0.1034  1.3799  1.1417
   66SAPC   C39 5514   3.158   1.369   7.414 -0.0489 -0.6051 -0.1217
   66SAPC   H9X 5515   3.138   1.264   7.383  2.5555 -1.5122  1.0337
   66SAPC   H9Y 5516   3.063   1.423   7.433 -0.1809 -0.8594 -0.0626
   66SAPC  C310 5517   3.250   1.355   7.538 -0.5592 -0.1009 -0.3852
   66SAPC  H10X 5518   3.259   1.458   7.577 -0.4316 -0.7356  1.3465
   66SAPC  H10Y 5519   3.349   1.320   7.503 -1.2826 -2.9059  0.1445
   66SAPC  C311 5520   3.189   1.249   7.637 -0.4620 -0.1488 -0.3024
   66SAPC  H11X 5521   3.241   1.275   7.732  1.1217 -0.3027 -1.0917
   66SAPC  H11Y 5522   3.223   1.145   7.620  1.5188  0.4413 -0.1973
   66SAPC  C312 5523   3.040   1.267   7.658 -0.0656 -0.1050 -0.1336
   66SAPC  H12X 5524   2.969   1.226   7.582 -1.2584  0.2180  0.7752
   66SAPC  H12Y 5525   3.008   1.370   7.684 -0.3148 -0.0208 -0.7537
   66SAPC  C313 5526   2.993   1.200   7.788  0.0931 -0.3574 -0.5386
   66SAPC  H13X 5527   3.072   1.218   7.865 -2.0351  0.4880  1.5707
   66SAPC  H13Y 5528   2.982   1.089   7.789 -3.0180 -0.1406  1.3069
   66SAPC  C314 5529   2.860   1.250   7.844  0.1725  0.0585 -0.5110
   66SAPC  H14X 5530   2.781   1.210   7.777  0.5811  1.1918 -1.7031
   66SAPC  H14Y 5531   2.849   1.361   7.836 -0.5304 -0.0841 -1.8338
   66SAPC  C315 5532   2.825   1.209   7.983 -0.4045  0.2835  0.1396
   66SAPC  H15X 5533   2.850   1.101   7.994  1.6451  0.8421  1.3774
   66SAPC  H15Y 5534   2.714   1.206   7.990 -0.3389  0.8158  1.7613
   66SAPC  C316 5535   2.901   1.277   8.098  0.1763  0.3262  0.7670
   66SAPC  H16X 5536   2.862   1.379   8.117  0.5839  0.7258 -0.4367
   66SAPC  H16Y 5537   3.010   1.289   8.082  0.2915  0.0137  1.2927
   66SAPC  C317 5538   2.877   1.207   8.235 -0.2156  0.9726 -0.1948
   66SAPC  H17X 5539   2.928   1.109   8.230 -3.4827 -0.8071 -1.0312
   66SAPC  H17Y 5540   2.767   1.196   8.241 -0.3389  0.7333 -2.0962
   66SAPC  C318 5541   2.930   1.296   8.344  0.1862  0.2099  0.5400
   66SAPC  H18X 5542   3.034   1.325   8.321  0.6992 -1.0179  1.1954
   66SAPC  H18Y 5543   2.931   1.251   8.445  1.5733  1.9047  1.3202
   66SAPC  H18Z 5544   2.871   1.389   8.359 -1.4412 -1.1345  3.3987
   67SAPC     N 5545   4.686   3.763   6.300 -0.1940 -0.1676 -0.2487
   67SAPC   C12 5546   4.615   3.891   6.354 -0.1026 -0.3117 -0.2123
   67SAPC  H12A 5547   4.525   3.910   6.298  0.0654  2.5209  0.3184
   67SAPC  H12B 5548   4.677   3.976   6.328 -0.5415  0.0055 -0.2240
   67SAPC   C13 5549   4.660   3.754   6.155  0.2928 -0.4851  0.6782
   67SAPC  H13A 5550   4.719   3.670   6.120 -0.0534 -0.3230 -0.3343
   67SAPC  H13B 5551   4.554   3.743   6.138  0.5422 -1.3845 -0.4795
   67SAPC  H13C 5552   4.680   3.846   6.100 -0.2113  0.3007  1.7827
   67SAPC   C14 5553   4.839   3.785   6.326 -0.2136 -0.0166 -0.0206
   67SAPC  H14A 5554   4.869   3.874   6.273  2.7003  0.0852  1.5988
   67SAPC  H14B 5555   4.868   3.787   6.430 -0.4771 -2.0017  0.1262
   67SAPC  H14C 5556   4.905   3.717   6.275 -1.9151 -1.4787 -0.3998
   67SAPC   C15 5557   4.632   3.648   6.370 -0.1665 -0.2003 -0.1146
   67SAPC  H15A 5558   4.660   3.558   6.316 -0.9067 -0.3592 -0.2537
   67SAPC  H15B 5559   4.656   3.649   6.475  0.0179  0.6299 -0.1573
   67SAPC  H15C 5560   4.524   3.648   6.368 -0.2538 -3.1794 -1.7863
   67SAPC   C11 5561   4.573   3.895   6.506 -0.0540 -0.4552  0.6975
   67SAPC  H11A 5562   4.543   4.001   6.521 -0.3744 -0.1454 -1.7026
   67SAPC  H11B 5563   4.658   3.868   6.572  0.9030  0.3067 -0.1944
   67SAPC     P 5564   4.319   3.827   6.463  0.2370 -0.1245  0.0610
   67SAPC   O13 5565   4.276   3.968   6.469  0.4667  0.0582  0.1993
   67SAPC   O14 5566   4.326   3.754   6.329  0.0372 -0.4497 -0.1545
   67SAPC   O12 5567   4.457   3.800   6.534 -0.3649  0.3139 -0.0319
   67SAPC   O11 5568   4.222   3.747   6.559 -0.4371  0.8675 -0.0824
   67SAPC    C1 5569   4.251   3.610   6.588  0.9325 -0.0864 -0.4698
   67SAPC    HA 5570   4.193   3.541   6.523 -1.5009 -0.3886  1.8700
   67SAPC    HB 5571   4.358   3.582   6.576  1.3027  1.0433  0.0753
   67SAPC    C2 5572   4.236   3.578   6.738  0.1466  0.0150 -0.4031
   67SAPC    HS 5573   4.153   3.638   6.781 -0.1174 -0.4336 -0.2729
   67SAPC   O21 5574   4.360   3.612   6.798  0.4605 -0.1139 -0.5025
   67SAPC   C21 5575   4.389   3.729   6.837 -0.4445  0.2218  0.7380
   67SAPC   O22 5576   4.330   3.833   6.819 -0.2479 -0.0612 -0.2203
   67SAPC   C22 5577   4.517   3.715   6.924 -0.8341  0.2416  0.4370
   67SAPC   H2R 5578   4.489   3.712   7.032 -2.1199 -0.1063  0.1094
   67SAPC   H2S 5579   4.576   3.625   6.898 -0.8987 -0.3424  2.1862
   67SAPC    C3 5580   4.197   3.427   6.753 -0.5616  0.9179  0.6699
   67SAPC    HX 5581   4.252   3.361   6.683 -1.3602  0.3482  0.5757
   67SAPC    HY 5582   4.093   3.426   6.714  0.6162 -1.2624 -2.8373
   67SAPC   O31 5583   4.213   3.367   6.884 -0.0020  0.0080  0.0372
   67SAPC   C31 5584   4.183   3.237   6.903 -0.6048 -0.1808  0.3111
   67SAPC   O32 5585   4.145   3.157   6.823  0.5192 -0.1846 -0.2336
   67SAPC   C32 5586   4.214   3.207   7.051 -0.5137  0.5471  0.4437
   67SAPC   H2X 5587   4.317   3.245   7.073  0.0455  0.8282 -2.3537
   67SAPC   H2Y 5588   4.214   3.097   7.064 -0.9167  0.4881 -0.0605
   67SAPC   C23 5589   4.605   3.837   6.887 -0.6024 -0.5463  0.1081
   67SAPC   H3R 5590   4.548   3.931   6.902 -2.2680 -1.7773  1.8936
   67SAPC   H3S 5591   4.624   3.829   6.778 -1.3429  0.2382 -0.0889
   67SAPC   C24 5592   4.749   3.836   6.954 -0.3492 -0.1762 -0.4864
   67SAPC   H4R 5593   4.809   3.913   6.900 -0.4003 -2.9397 -4.9719
   67SAPC   H4S 5594   4.798   3.740   6.930  0.5854 -0.1270  1.0713
   67SAPC   C25 5595   4.741   3.861   7.100  0.3294  0.2532 -0.1917
   67SAPC   H5R 5596   4.728   3.969   7.113 -3.0184 -0.1206  0.3189
   67SAPC   C26 5597   4.770   3.777   7.209 -0.1750  0.1065  0.7489
   67SAPC   H6R 5598   4.758   3.810   7.313 -0.8963  0.0689  0.6864
   67SAPC   C27 5599   4.787   3.629   7.187  0.5722  0.0053 -0.0768
   67SAPC   H7R 5600   4.846   3.615   7.094  2.7498 -0.5449  1.3047
   67SAPC   H7S 5601   4.691   3.574   7.183  0.4137  0.3447 -1.8607
   67SAPC   C28 5602   4.871   3.578   7.302  0.9234 -0.4286  0.9588
   67SAPC   H8R 5603   4.823   3.590   7.400 -1.3363  2.1052 -0.3211
   67SAPC   C29 5604   4.995   3.530   7.302 -0.2272 -0.5173  0.5935
   67SAPC   H9R 5605   5.037   3.524   7.403  0.5539 -1.0302  0.2491
   67SAPC  C210 5606   5.096   3.519   7.184  0.5468 -1.5937 -0.7124
   67SAPC  H10R 5607   5.074   3.607   7.118 -0.5173 -0.1402  1.4619
   67SAPC  H10S 5608   5.075   3.433   7.116 -1.7710 -0.9040 -0.9853
   67SAPC  C211 5609   5.239   3.532   7.232  0.1417  0.3686 -0.4447
   67SAPC  H11R 5610   5.285   3.631   7.244 -0.0837  0.2965  1.2500
   67SAPC  C212 5611   5.329   3.435   7.235 -0.4252 -0.7208  0.8375
   67SAPC  H12R 5612   5.422   3.453   7.291 -0.3964 -0.6718  0.7736
   67SAPC  C213 5613   5.313   3.290   7.206 -0.2802 -0.0300  0.2140
   67SAPC  H13R 5614   5.257   3.282   7.110 -0.6607  0.6569  0.3651
   67SAPC  H13S 5615   5.243   3.256   7.286 -0.5914 -2.0306 -0.8389
   67SAPC  C214 5616   5.429   3.190   7.199 -0.0126 -0.2568  1.0475
   67SAPC  H14R 5617   5.460   3.171   7.096  2.0908  1.4163  1.2960
   67SAPC  C215 5618   5.506   3.133   7.293 -0.6553 -0.1227 -0.0128
   67SAPC  H15R 5619   5.598   3.079   7.265  0.5332  0.8785  1.7507
   67SAPC  C216 5620   5.475   3.150   7.439  0.2948  0.5824  0.3714
   67SAPC  H16R 5621   5.459   3.054   7.494  1.6663 -1.2968 -2.3003
   67SAPC  H16S 5622   5.395   3.223   7.465 -0.7747 -0.3171 -0.2741
   67SAPC  C217 5623   5.604   3.208   7.509  0.2970  0.0967  0.5198
   67SAPC  H17R 5624   5.690   3.139   7.497  0.0887 -0.2634  1.0569
   67SAPC  H17S 5625   5.584   3.214   7.618 -1.9685  1.4074  0.1070
   67SAPC  C218 5626   5.654   3.341   7.460  0.4152 -0.6048 -0.5469
   67SAPC  H18R 5627   5.580   3.423   7.474  2.0602  0.3817  4.4947
   67SAPC  H18S 5628   5.675   3.339   7.351  0.3680  2.4246 -0.7104
   67SAPC  C219 5629   5.769   3.381   7.545 -0.2400  0.5759 -0.0777
   67SAPC  H19R 5630   5.747   3.373   7.653  2.0376  0.0966  0.3936
   67SAPC  H19S 5631   5.804   3.482   7.515  0.3197  0.0371 -1.3440
   67SAPC  C220 5632   5.896   3.300   7.508  0.5986  0.6217 -0.3187
   67SAPC  H20R 5633   5.912   3.312   7.399  0.9378 -1.1823 -0.5110
   67SAPC  H20S 5634   5.884   3.190   7.516 -0.5581  0.6654 -1.1567
   67SAPC  H20T 5635   5.990   3.332   7.556  0.1234  2.3916 -0.5076
   67SAPC   C33 5636   4.108   3.275   7.141  0.4923 -0.2879  0.0489
   67SAPC   H3X 5637   4.005   3.258   7.104 -0.2068 -1.8651  2.4573
   67SAPC   H3Y 5638   4.134   3.382   7.158 -2.4054  0.2022  2.0586
   67SAPC   C34 5639   4.108   3.207   7.275 -0.4998 -0.8431 -0.6877
   67SAPC   H4X 5640   4.215   3.196   7.304 -0.7498  0.5694  0.9744
   67SAPC   H4Y 5641   4.066   3.105   7.264 -2.4185 -0.0769 -0.8697
   67SAPC   C35 5642   4.034   3.281   7.387 -0.6417 -0.1472 -0.2112
   67SAPC   H5X 5643   4.020   3.211   7.472  0.0991 -1.5927 -1.2366
   67SAPC   H5Y 5644   3.933   3.308   7.347 -0.2257  1.6063 -0.1485
   67SAPC   C36 5645   4.099   3.409   7.428  0.1485 -0.0848  0.3303
   67SAPC   H6X 5646   4.022   3.474   7.476 -0.1930  0.8366 -1.3837
   67SAPC   H6Y 5647   4.137   3.456   7.335  0.7631  0.0822  0.6562
   67SAPC   C37 5648   4.212   3.392   7.529  0.2416  0.2590 -0.1098
   67SAPC   H7X 5649   4.269   3.487   7.521 -1.6609  1.2697 -3.7737
   67SAPC   H7Y 5650   4.284   3.321   7.481  0.0990  0.5049 -0.6975
   67SAPC   C38 5651   4.170   3.359   7.668 -0.5320  0.4096  0.1056
   67SAPC   H8X 5652   4.113   3.265   7.652 -1.3547  0.2018  3.4476
   67SAPC   H8Y 5653   4.095   3.425   7.716 -0.1056 -0.1593  1.6224
   67SAPC   C39 5654   4.291   3.344   7.762 -0.4490  0.5192 -0.1305
   67SAPC   H9X 5655   4.369   3.268   7.737  0.9985  2.3340 -1.3866
   67SAPC   H9Y 5656   4.257   3.310   7.862  1.4673  0.3929  0.5276
   67SAPC  C310 5657   4.355   3.479   7.785  0.1165  0.1912 -0.3305
   67SAPC  H10X 5658   4.401   3.513   7.690 -2.2734 -1.4337 -2.2028
   67SAPC  H10Y 5659   4.432   3.460   7.862  0.0240  1.0239 -0.0227
   67SAPC  C311 5660   4.265   3.592   7.840 -0.3695 -0.0326  0.3877
   67SAPC  H11X 5661   4.191   3.554   7.914 -0.8374 -1.7373 -0.8913
   67SAPC  H11Y 5662   4.211   3.639   7.755  0.3556 -1.2141 -0.7695
   67SAPC  C312 5663   4.352   3.703   7.900 -0.1791 -0.0665  0.7493
   67SAPC  H12X 5664   4.441   3.722   7.838  0.5056  0.8556  1.9606
   67SAPC  H12Y 5665   4.380   3.662   8.000 -1.7518 -2.7684  0.1891
   67SAPC  C313 5666   4.281   3.839   7.911  0.5982  0.1956 -0.1332
   67SAPC  H13X 5667   4.226   3.878   7.823  0.8599  1.1557  0.1208
   67SAPC  H13Y 5668   4.361   3.910   7.940 -1.3595  1.8270  1.5752
   67SAPC  C314 5669   4.188   3.852   8.041 -0.3968  0.1695  0.7547
   67SAPC  H14X 5670   4.174   3.962   8.049 -0.8115  0.2053 -0.3441
   67SAPC  H14Y 5671   4.232   3.810   8.134 -1.9453 -2.5948  0.3503
   67SAPC  C315 5672   4.054   3.778   8.038  0.2088 -0.2463  0.0679
   67SAPC  H15X 5673   4.066   3.668   8.051  0.1629 -0.9200 -4.1121
   67SAPC  H15Y 5674   4.020   3.785   7.932  1.0627  0.5480 -0.1647
   67SAPC  C316 5675   3.941   3.844   8.123  0.1556 -0.4607  0.2771
   67SAPC  H16X 5676   3.849   3.786   8.104 -1.4039  1.1463  2.3395
   67SAPC  H16Y 5677   3.924   3.944   8.078  1.3544  0.5390  1.8992
   67SAPC  C317 5678   3.978   3.855   8.275  0.8097  0.0513 -0.0032
   67SAPC  H17X 5679   3.898   3.912   8.326  1.0686 -1.7337  2.6062
   67SAPC  H17Y 5680   4.074   3.910   8.289  0.0285  1.2614  0.9228
   67SAPC  C318 5681   3.989   3.718   8.347  0.4246  0.3397 -0.4559
   67SAPC  H18X 5682   3.990   3.732   8.457  0.0915 -0.3867 -0.3561
   67SAPC  H18Y 5683   4.085   3.665   8.325  0.2973  0.3305 -1.0113
   67SAPC  H18Z 5684   3.901   3.653   8.328  1.2339 -0.5556 -1.2635
   68SAPC     N 5685   4.271   2.964   6.161  0.0723  0.3419 -0.4169
   68SAPC   C12 5686   4.180   2.997   6.050 -0.0494  0.1540  0.2384
   68SAPC  H12A 5687   4.089   2.939   6.053 -0.0230  0.0957 -0.0927
   68SAPC  H12B 5688   4.228   2.978   5.955 -0.0502 -2.1776  0.6533
   68SAPC   C13 5689   4.296   2.818   6.164  0.0711 -0.2557 -0.6750
   68SAPC  H13A 5690   4.379   2.790   6.100  0.7802  1.3918 -0.5176
   68SAPC  H13B 5691   4.321   2.794   6.267  1.6400  1.9703 -0.4588
   68SAPC  H13C 5692   4.213   2.754   6.140  0.6926 -1.2705 -0.2076
   68SAPC   C14 5693   4.398   3.040   6.146 -0.1301 -0.4509  0.4309
   68SAPC  H14A 5694   4.438   3.068   6.242 -1.0963  0.7509  0.5041
   68SAPC  H14B 5695   4.462   2.985   6.079 -2.5294  1.8459 -4.3042
   68SAPC  H14C 5696   4.366   3.133   6.101  0.1159 -1.6074 -2.3203
   68SAPC   C15 5697   4.204   3.001   6.290  0.4168  0.6228 -0.1208
   68SAPC  H15A 5698   4.199   3.109   6.300  2.2696  0.7265  0.0707
   68SAPC  H15B 5699   4.104   2.961   6.292  0.2834  0.9765  0.9281
   68SAPC  H15C 5700   4.262   2.966   6.374 -1.1923 -0.9310  0.3971
   68SAPC   C11 5701   4.136   3.150   6.033 -0.1996  0.0960  0.5452
   68SAPC  H11A 5702   4.070   3.137   5.945 -0.0659  0.6773  0.3525
   68SAPC  H11B 5703   4.223   3.213   6.005 -0.4050  0.7735  1.3928
   68SAPC     P 5704   4.067   3.352   6.192 -0.0120  0.0310 -0.7616
   68SAPC   O13 5705   4.205   3.372   6.243 -0.1607  0.3127 -0.1672
   68SAPC   O14 5706   4.021   3.447   6.087  0.0712 -0.2893  0.6361
   68SAPC   O12 5707   4.052   3.206   6.127 -0.0109  0.6885  0.3807
   68SAPC   O11 5708   3.972   3.339   6.313 -0.1127 -0.0049  0.1211
   68SAPC    C1 5709   3.892   3.219   6.333  1.0136 -0.8496 -0.3233
   68SAPC    HA 5710   3.809   3.210   6.259  1.1239  1.6344 -0.8491
   68SAPC    HB 5711   3.948   3.124   6.321  0.6147 -0.9477 -1.5577
   68SAPC    C2 5712   3.830   3.219   6.466  0.1635  0.6520  0.6506
   68SAPC    HS 5713   3.808   3.111   6.483  3.1533 -0.1128  0.1988
   68SAPC   O21 5714   3.716   3.305   6.462 -0.1400 -0.5472  0.5398
   68SAPC   C21 5715   3.597   3.254   6.496 -0.3169 -0.7284  0.0299
   68SAPC   O22 5716   3.578   3.140   6.519 -0.2071  0.1586  0.3228
   68SAPC   C22 5717   3.485   3.369   6.471 -0.8859 -0.4083 -0.1941
   68SAPC   H2R 5718   3.527   3.421   6.382  2.1825 -1.6085  0.4189
   68SAPC   H2S 5719   3.396   3.317   6.431  0.9620 -2.4736 -1.8845
   68SAPC    C3 5720   3.932   3.272   6.571 -0.0800 -0.1964  0.2373
   68SAPC    HX 5721   3.952   3.379   6.547  0.3599 -0.0024  1.4065
   68SAPC    HY 5722   4.033   3.226   6.565  0.9611  2.1452 -3.0558
   68SAPC   O31 5723   3.874   3.259   6.703  0.1479  0.0811  0.1082
   68SAPC   C31 5724   3.835   3.372   6.760  0.0006 -0.1717  0.0744
   68SAPC   O32 5725   3.841   3.487   6.722  0.4090  0.3456  0.2180
   68SAPC   C32 5726   3.756   3.329   6.886 -0.3422  0.3380 -0.2352
   68SAPC   H2X 5727   3.789   3.227   6.918  0.8668  0.8619  0.2745
   68SAPC   H2Y 5728   3.650   3.315   6.856 -0.1883 -0.9941 -0.2301
   68SAPC   C23 5729   3.456   3.464   6.588  0.1247 -0.2907  0.7271
   68SAPC   H3R 5730   3.395   3.548   6.546  2.3322  0.4279 -1.2467
   68SAPC   H3S 5731   3.547   3.519   6.620 -0.1708 -0.1311  1.3138
   68SAPC   C24 5732   3.388   3.389   6.703  0.5530  1.0781 -0.2291
   68SAPC   H4R 5733   3.436   3.293   6.731 -2.5965 -0.8275 -0.8921
   68SAPC   H4S 5734   3.291   3.356   6.661  0.5129  2.2743 -1.0993
   68SAPC   C25 5735   3.385   3.480   6.819  0.8336 -0.5555  0.7757
   68SAPC   H5R 5736   3.442   3.573   6.807 -0.3356  0.0327 -0.4971
   68SAPC   C26 5737   3.300   3.467   6.923 -0.0078 -0.0102 -0.3975
   68SAPC   H6R 5738   3.287   3.557   6.985  0.4402 -0.0477 -0.2475
   68SAPC   C27 5739   3.215   3.353   6.966 -0.2230  0.2367 -0.1543
   68SAPC   H7R 5740   3.194   3.281   6.884 -0.3829 -0.2035  0.2693
   68SAPC   H7S 5741   3.114   3.387   6.999 -0.1197 -0.7514  1.2706
   68SAPC   C28 5742   3.286   3.273   7.070  0.4056 -0.0514  0.1779
   68SAPC   H8R 5743   3.390   3.247   7.043  1.0713  1.4998  1.1089
   68SAPC   C29 5744   3.243   3.226   7.188 -0.4646 -0.2316 -0.5450
   68SAPC   H9R 5745   3.315   3.168   7.247 -1.7710 -1.3453 -0.0162
   68SAPC  C210 5746   3.108   3.251   7.245  0.3262  1.2616  0.4278
   68SAPC  H10R 5747   3.034   3.257   7.162 -1.7164 -2.0936  1.8049
   68SAPC  H10S 5748   3.122   3.349   7.296 -1.1209  2.6298 -1.6407
   68SAPC  C211 5749   3.087   3.130   7.333 -0.1785 -0.3530  0.7754
   68SAPC  H11R 5750   3.145   3.040   7.309  0.6582  0.4551 -0.3132
   68SAPC  C212 5751   3.020   3.124   7.452 -1.1006 -0.8393  0.3552
   68SAPC  H12R 5752   3.002   3.025   7.496 -2.2968 -0.9718 -0.3682
   68SAPC  C213 5753   2.939   3.237   7.498  0.2238  0.4102  0.4955
   68SAPC  H13R 5754   2.851   3.257   7.433 -0.3143  0.5099  1.2403
   68SAPC  H13S 5755   3.008   3.324   7.490 -0.2362  0.7969  0.6783
   68SAPC  C214 5756   2.907   3.227   7.650 -0.7948 -0.0108 -0.0058
   68SAPC  H14R 5757   2.985   3.273   7.712 -1.0087 -0.0943  0.3272
   68SAPC  C215 5758   2.820   3.143   7.708  0.1953 -0.0232 -0.4891
   68SAPC  H15R 5759   2.794   3.137   7.815 -0.5404 -3.5028 -0.7314
   68SAPC  C216 5760   2.714   3.079   7.627 -0.8917  0.3625 -0.4697
   68SAPC  H16R 5761   2.726   2.970   7.644 -1.0784  0.5444  0.9671
   68SAPC  H16S 5762   2.714   3.109   7.520  1.8268 -0.0724 -0.6577
   68SAPC  C217 5763   2.578   3.130   7.673  0.7254 -0.9349  0.6102
   68SAPC  H17R 5764   2.561   3.230   7.627  1.2099  0.0025  2.3877
   68SAPC  H17S 5765   2.572   3.133   7.784  0.6985  1.6657  0.5932
   68SAPC  C218 5766   2.470   3.037   7.630 -0.1223  0.2536 -0.0906
   68SAPC  H18R 5767   2.481   2.939   7.680  0.5257 -1.7181 -3.7220
   68SAPC  H18S 5768   2.487   3.023   7.521  0.4944  1.2487 -0.1369
   68SAPC  C219 5769   2.323   3.093   7.651 -0.3348  0.0961 -0.3246
   68SAPC  H19R 5770   2.257   3.009   7.623 -0.7219  0.2271  0.1757
   68SAPC  H19S 5771   2.310   3.185   7.590  2.5250 -1.8045 -4.1898
   68SAPC  C220 5772   2.293   3.138   7.797  0.9411  0.0682  0.0551
   68SAPC  H20R 5773   2.363   3.219   7.824  1.0331  0.1530 -0.4211
   68SAPC  H20S 5774   2.309   3.052   7.865 -0.0387 -0.9589 -0.9444
   68SAPC  H20T 5775   2.188   3.174   7.801  1.1792  0.6869  0.9040
   68SAPC   C33 5776   3.773   3.433   6.998  0.2742 -0.9548  0.0171
   68SAPC   H3X 5777   3.747   3.535   6.963  3.5902 -0.0597 -0.2061
   68SAPC   H3Y 5778   3.882   3.450   7.015 -0.3268  2.4545  1.2482
   68SAPC   C34 5779   3.692   3.402   7.121  0.3943 -0.3009 -0.1039
   68SAPC   H4X 5780   3.705   3.295   7.146  2.0925  0.4118  2.5666
   68SAPC   H4Y 5781   3.588   3.414   7.085  1.0609  2.0890 -1.4760
   68SAPC   C35 5782   3.717   3.508   7.233 -0.5500  0.9766 -0.2969
   68SAPC   H5X 5783   3.769   3.595   7.188  2.0884 -0.2141  0.2252
   68SAPC   H5Y 5784   3.802   3.469   7.293 -0.0016 -0.7877 -2.1188
   68SAPC   C36 5785   3.594   3.520   7.330 -0.3502 -0.3928  0.1189
   68SAPC   H6X 5786   3.509   3.565   7.274  0.1003 -0.9059 -1.0158
   68SAPC   H6Y 5787   3.624   3.592   7.408  2.3958  0.4411 -1.5466
   68SAPC   C37 5788   3.558   3.389   7.404 -0.3482  0.1796  0.0966
   68SAPC   H7X 5789   3.642   3.357   7.469  0.3251  2.4023  0.4184
   68SAPC   H7Y 5790   3.537   3.311   7.328 -0.4010 -1.4515  1.7181
   68SAPC   C38 5791   3.434   3.412   7.494 -0.0815 -0.3813 -0.2043
   68SAPC   H8X 5792   3.347   3.414   7.424 -0.4701 -2.4014  0.1721
   68SAPC   H8Y 5793   3.455   3.508   7.547  1.4191 -0.9899  0.3523
   68SAPC   C39 5794   3.424   3.301   7.592  0.2477 -0.2800 -0.2648
   68SAPC   H9X 5795   3.508   3.302   7.664  0.9068 -1.3902 -1.0030
   68SAPC   H9Y 5796   3.433   3.198   7.552 -0.9978 -0.4229 -0.2333
   68SAPC  C310 5797   3.298   3.327   7.673 -0.5806 -0.3741  0.7101
   68SAPC  H10X 5798   3.257   3.238   7.726 -0.2984 -1.0285 -0.1450
   68SAPC  H10Y 5799   3.221   3.359   7.600  0.8169  2.0881  0.2048
   68SAPC  C311 5800   3.308   3.444   7.768  0.1481 -0.1704 -0.8057
   68SAPC  H11X 5801   3.219   3.467   7.832  1.6090  3.6967  0.1764
   68SAPC  H11Y 5802   3.329   3.542   7.720  1.6530  0.2989  0.7065
   68SAPC  C312 5803   3.417   3.420   7.871 -1.0445  0.1116 -0.4302
   68SAPC  H12X 5804   3.523   3.428   7.839 -0.3907 -2.2824  0.8870
   68SAPC  H12Y 5805   3.411   3.312   7.897  1.0952 -0.0904 -0.5782
   68SAPC  C313 5806   3.410   3.514   8.002  0.0263 -0.1083  0.0748
   68SAPC  H13X 5807   3.323   3.483   8.063 -0.2966  0.3961 -0.1196
   68SAPC  H13Y 5808   3.391   3.620   7.972 -1.3869 -0.5645 -0.7426
   68SAPC  C314 5809   3.540   3.505   8.088  0.5855  1.2542  0.3266
   68SAPC  H14X 5810   3.634   3.544   8.042  0.7327 -0.2454 -0.7312
   68SAPC  H14Y 5811   3.553   3.396   8.104  0.2508  1.0324 -0.8304
   68SAPC  C315 5812   3.524   3.584   8.219  0.3124 -0.0737 -0.0432
   68SAPC  H15X 5813   3.616   3.553   8.273  0.9096 -2.3393 -2.1844
   68SAPC  H15Y 5814   3.429   3.560   8.271 -0.7774  1.2234 -1.3484
   68SAPC  C316 5815   3.550   3.731   8.182 -0.2435 -0.3567  0.1182
   68SAPC  H16X 5816   3.456   3.775   8.141  0.3994  1.1908  0.2513
   68SAPC  H16Y 5817   3.608   3.751   8.090 -1.7334  1.4393 -0.5043
   68SAPC  C317 5818   3.598   3.805   8.299 -0.3499  1.0070 -0.1061
   68SAPC  H17X 5819   3.607   3.911   8.268 -0.4003  1.0884  0.1530
   68SAPC  H17Y 5820   3.700   3.779   8.336 -0.1047  0.0187 -1.4066
   68SAPC  C318 5821   3.507   3.807   8.424 -0.4850 -0.1489  0.4431
   68SAPC  H18X 5822   3.543   3.873   8.506 -0.4969 -1.1185  1.2494
   68SAPC  H18Y 5823   3.513   3.707   8.472 -0.6318 -1.3825 -1.9505
   68SAPC  H18Z 5824   3.400   3.823   8.400 -0.5114  0.9601  1.1883
   69SLPC     N 5825   5.569   1.852  10.841 -0.0416 -0.2432  0.0539
   69SLPC   C13 5826   5.469   1.941  10.923 -0.0670 -0.0566 -0.2387
   69SLPC  H13A 5827   5.517   2.021  10.977 -0.8460  0.7111 -0.6615
   69SLPC  H13B 5828   5.393   1.989  10.864 -0.6712 -0.2787  0.3498
   69SLPC  H13C 5829   5.426   1.872  10.994 -1.7292 -0.8557 -1.9282
   69SLPC   C14 5830   5.649   1.951  10.762  1.0700 -0.2167 -0.2391
   69SLPC  H14A 5831   5.695   1.915  10.670  1.4595  1.2324 -0.6394
   69SLPC  H14B 5832   5.584   2.025  10.720 -0.7607 -1.8854 -0.4732
   69SLPC  H14C 5833   5.717   2.003  10.828  1.4184 -0.9411 -0.0102
   69SLPC   C15 5834   5.501   1.759  10.740 -0.2540 -0.3411 -0.6500
   69SLPC  H15A 5835   5.421   1.807  10.685  0.6805  0.0906 -1.6755
   69SLPC  H15B 5836   5.573   1.736  10.663  0.9125  0.5327  0.1458
   69SLPC  H15C 5837   5.466   1.666  10.781 -0.0432  0.4878  1.5424
   69SLPC   C12 5838   5.652   1.773  10.939 -0.0672  0.2029  0.0701
   69SLPC  H12A 5839   5.585   1.713  10.998  2.0199  0.3999  2.8297
   69SLPC  H12B 5840   5.690   1.854  10.999 -1.1544 -0.1689  1.2864
   69SLPC   C11 5841   5.764   1.670  10.888  0.2051  0.1476  0.4551
   69SLPC  H11A 5842   5.718   1.597  10.818 -1.6571  2.3196 -0.7432
   69SLPC  H11B 5843   5.801   1.619  10.979 -0.1863 -1.4007 -0.2118
   69SLPC     P 5844   5.983   1.666  10.759  0.1481  0.1418 -0.3992
   69SLPC   O13 5845   5.988   1.718  10.618 -0.7492 -0.3438  0.4158
   69SLPC   O14 5846   6.094   1.685  10.851 -0.2047 -0.4892  0.3486
   69SLPC   O12 5847   5.862   1.749  10.824  0.1058 -0.1689 -0.4014
   69SLPC   O11 5848   5.940   1.517  10.760 -0.2805  0.1053  0.3102
   69SLPC    C1 5849   5.937   1.442  10.642 -0.1532  0.2669 -0.0032
   69SLPC    HA 5850   5.858   1.363  10.645 -1.4505  1.5453  1.0411
   69SLPC    HB 5851   5.915   1.509  10.556  0.2564  0.1719 -0.1837
   69SLPC    C2 5852   6.075   1.380  10.614 -0.6670  0.0159  0.4050
   69SLPC    HS 5853   6.111   1.328  10.706  2.6012  0.3324 -0.5695
   69SLPC   O21 5854   6.171   1.477  10.572 -0.2617  0.1399  0.0919
   69SLPC   C21 5855   6.299   1.454  10.597 -0.9853 -0.3157  0.1900
   69SLPC   O22 5856   6.345   1.349  10.644 -0.7317  0.0313 -0.8162
   69SLPC   C22 5857   6.382   1.576  10.566 -0.1973 -0.3904  0.1233
   69SLPC   H2R 5858   6.314   1.662  10.589 -1.9825 -1.8189  0.4655
   69SLPC   H2S 5859   6.469   1.589  10.633  2.2810 -0.3533 -2.9076
   69SLPC    C3 5860   6.061   1.273  10.505 -0.9572 -0.4183 -1.3681
   69SLPC    HX 5861   6.004   1.193  10.557  0.9141 -1.1869 -0.3964
   69SLPC    HY 5862   6.159   1.229  10.474 -0.3699  0.6027 -1.0218
   69SLPC   O31 5863   5.988   1.327  10.390  0.3185  1.4119  0.4294
   69SLPC   C31 5864   6.070   1.365  10.285  0.5649  0.7628 -0.0147
   69SLPC   O32 5865   6.189   1.355  10.275 -0.2635 -0.4812 -0.3515
   69SLPC   C32 5866   5.982   1.446  10.186  1.0370  0.4719  0.6826
   69SLPC   H2X 5867   5.939   1.540  10.226  0.2229 -0.4678  2.1250
   69SLPC   H2Y 5868   5.897   1.379  10.161 -0.5590  1.7727  2.3789
   69SLPC   C23 5869   6.434   1.587  10.414 -0.1947 -0.5669 -0.4625
   69SLPC   H3R 5870   6.347   1.565  10.348  0.4754 -0.7551 -1.2972
   69SLPC   H3S 5871   6.514   1.515  10.389 -0.2820 -0.8967  0.2013
   69SLPC   C24 5872   6.481   1.728  10.384 -0.3370 -0.3312  0.0651
   69SLPC   H4R 5873   6.555   1.746  10.466 -1.2638 -1.7593  1.2567
   69SLPC   H4S 5874   6.387   1.787  10.378 -0.3577 -0.4497 -1.0460
   69SLPC   C25 5875   6.549   1.755  10.249 -0.7372 -0.1879  0.1901
   69SLPC   H5R 5876   6.624   1.673  10.243  0.3878  0.9346 -2.3276
   69SLPC   H5S 5877   6.596   1.855  10.254  0.8516 -0.9274  0.6125
   69SLPC   C26 5878   6.458   1.750  10.129  0.2882 -0.6004 -0.0757
   69SLPC   H6R 5879   6.368   1.813  10.149  0.2822 -0.5850 -0.1498
   69SLPC   H6S 5880   6.414   1.651  10.103 -0.2647 -0.3195 -0.2436
   69SLPC   C27 5881   6.536   1.799  10.007  0.3709  0.1553 -0.1141
   69SLPC   H7R 5882   6.622   1.734   9.979  1.0299  1.8760 -2.4261
   69SLPC   H7S 5883   6.583   1.895  10.038 -1.3492  1.0630 -0.2016
   69SLPC   C28 5884   6.460   1.840   9.880  0.4704  0.1936  0.0545
   69SLPC   H8R 5885   6.529   1.892   9.810  0.4962 -0.2144 -0.2239
   69SLPC   H8S 5886   6.378   1.909   9.910 -0.3810 -0.3476 -0.9842
   69SLPC   C29 5887   6.395   1.718   9.815 -0.0333 -0.3224  0.0874
   69SLPC   H9R 5888   6.363   1.647   9.892 -0.6026 -0.7137 -0.4905
   69SLPC  C210 5889   6.364   1.699   9.685  0.6040  0.4221  0.6208
   69SLPC  H10R 5890   6.306   1.611   9.655  0.1502  0.2953  1.8184
   69SLPC  C211 5891   6.392   1.789   9.566  0.0973  0.1060 -1.1513
   69SLPC  H11R 5892   6.446   1.739   9.483  2.6754 -0.5799  0.8198
   69SLPC  H11S 5893   6.465   1.868   9.593  0.0191 -0.0369 -0.4837
   69SLPC  C212 5894   6.267   1.856   9.524  0.7704 -0.1164 -0.0417
   69SLPC  H12R 5895   6.196   1.884   9.603 -0.1088  0.7319 -1.0949
   69SLPC  C213 5896   6.245   1.915   9.403  0.0187 -0.4174 -0.8480
   69SLPC  H13R 5897   6.146   1.958   9.383  0.5555  1.7700  0.8185
   69SLPC  C214 5898   6.336   1.935   9.285  0.0045  0.4197  0.1565
   69SLPC  H14R 5899   6.444   1.918   9.301  0.0538  0.6114  0.0299
   69SLPC  H14S 5900   6.328   2.041   9.253 -0.3143  0.2207 -0.4495
   69SLPC  C215 5901   6.303   1.843   9.167  0.5068  0.6744 -0.7001
   69SLPC  H15R 5902   6.193   1.830   9.163  0.3333  2.1004 -0.9441
   69SLPC  H15S 5903   6.359   1.748   9.177 -0.7830  0.0104  0.5443
   69SLPC  C216 5904   6.356   1.899   9.041 -0.4690 -0.7924  0.4502
   69SLPC  H16R 5905   6.466   1.917   9.043 -0.6617  0.8801 -1.2820
   69SLPC  H16S 5906   6.304   1.995   9.019 -2.8269 -1.6259  2.0569
   69SLPC  C217 5907   6.336   1.798   8.926  0.1156  0.0925  0.4661
   69SLPC  H17R 5908   6.362   1.838   8.826  2.9868  0.3153  1.1992
   69SLPC  H17S 5909   6.227   1.779   8.920 -0.4161  1.6766  3.2768
   69SLPC  C218 5910   6.419   1.671   8.925 -0.5634 -0.6399 -0.3792
   69SLPC  H18R 5911   6.398   1.622   8.828 -0.4779  0.9866 -1.2584
   69SLPC  H18S 5912   6.402   1.611   9.017 -0.6006  0.9136  0.6715
   69SLPC  H18T 5913   6.524   1.705   8.915  0.6301 -3.5002  1.1080
   69SLPC   C33 5914   6.057   1.476  10.051  0.0065  0.2054 -0.1542
   69SLPC   H3X 5915   6.115   1.388  10.018 -0.3507  0.1337 -0.5985
   69SLPC   H3Y 5916   6.131   1.558  10.067  2.3722 -1.6533 -0.9926
   69SLPC   C34 5917   5.957   1.518   9.946 -0.5030  0.1926 -0.2250
   69SLPC   H4X 5918   5.905   1.613   9.971  0.4923  0.6387  0.1925
   69SLPC   H4Y 5919   5.887   1.432   9.940  0.9598 -1.1301  0.9201
   69SLPC   C35 5920   6.016   1.525   9.805  0.8901  0.2852 -0.2577
   69SLPC   H5X 5921   6.076   1.432   9.794  1.2344  0.1962  1.9674
   69SLPC   H5Y 5922   6.071   1.620   9.820  1.5115 -0.3809  2.3040
   69SLPC   C36 5923   5.912   1.542   9.689 -0.5979  0.1519 -0.0746
   69SLPC   H6X 5924   5.842   1.626   9.708  0.3640  0.8921  0.2658
   69SLPC   H6Y 5925   5.862   1.447   9.661  0.5647  0.0500 -1.9760
   69SLPC   C37 5926   5.991   1.574   9.554 -0.7618  0.8978 -0.0632
   69SLPC   H7X 5927   6.062   1.491   9.536 -1.7004  0.0874 -0.0964
   69SLPC   H7Y 5928   6.047   1.666   9.583  2.0713 -1.1299  1.4675
   69SLPC   C38 5929   5.904   1.601   9.432  0.1307 -0.2558 -1.3007
   69SLPC   H8X 5930   5.841   1.689   9.453  0.5307 -0.2219 -0.1975
   69SLPC   H8Y 5931   5.840   1.513   9.407 -0.3769 -0.2704  0.0100
   69SLPC   C39 5932   5.994   1.624   9.312 -0.3546 -0.3179 -0.1125
   69SLPC   H9X 5933   6.096   1.587   9.335 -0.7118 -2.3238 -1.4604
   69SLPC   H9Y 5934   5.979   1.732   9.287 -1.9957 -1.0987 -2.9551
   69SLPC  C310 5935   5.960   1.551   9.182 -0.0262  0.5131  1.0157
   69SLPC  H10X 5936   5.966   1.441   9.193 -0.9371  0.4760  1.2192
   69SLPC  H10Y 5937   6.042   1.568   9.109  1.5146 -0.4075  2.4645
   69SLPC  C311 5938   5.830   1.617   9.119 -0.2833  0.5290  0.3656
   69SLPC  H11X 5939   5.865   1.719   9.090  1.3692 -0.3560 -0.9892
   69SLPC  H11Y 5940   5.748   1.619   9.193  0.2568 -1.9043  1.1256
   69SLPC  C312 5941   5.789   1.546   8.995 -0.1365  0.0820 -0.1476
   69SLPC  H12X 5942   5.747   1.446   9.016 -1.6507  0.5976 -0.5527
   69SLPC  H12Y 5943   5.870   1.544   8.919 -0.1442  1.3190 -0.2120
   69SLPC  C313 5944   5.669   1.633   8.933 -0.6863 -0.1186  0.6127
   69SLPC  H13X 5945   5.694   1.738   8.907 -0.2057  0.3432  2.7643
   69SLPC  H13Y 5946   5.591   1.643   9.012 -0.5431 -2.0344  1.0493
   69SLPC  C314 5947   5.601   1.557   8.815  0.2188 -0.1819 -0.6637
   69SLPC  H14X 5948   5.669   1.518   8.736 -1.2256 -0.5411 -1.7634
   69SLPC  H14Y 5949   5.532   1.632   8.772  0.0195  0.2893  0.4466
   69SLPC  C315 5950   5.519   1.433   8.867  0.1170 -0.5901 -1.4017
   69SLPC  H15X 5951   5.453   1.480   8.942  0.6183 -0.1053 -1.2548
   69SLPC  H15Y 5952   5.584   1.365   8.927  0.8840  2.1712  1.1144
   69SLPC  C316 5953   5.443   1.357   8.762  0.7491  0.3222 -0.7067
   69SLPC  H16X 5954   5.390   1.276   8.816  0.4627  1.0260  0.0896
   69SLPC  H16Y 5955   5.504   1.312   8.681  2.9361  0.4551  0.7878
   69SLPC  C317 5956   5.343   1.441   8.682 -0.8080  0.6743 -0.3619
   69SLPC  H17X 5957   5.384   1.528   8.626  1.9912  1.3279  2.3870
   69SLPC  H17Y 5958   5.273   1.481   8.758  1.3133  1.1944  1.4297
   69SLPC  C318 5959   5.283   1.360   8.570 -0.6143  0.2076 -0.1600
   69SLPC  H18X 5960   5.228   1.424   8.498 -0.7319  0.4685  0.1653
   69SLPC  H18Y 5961   5.219   1.273   8.596 -0.3850  0.3789  1.0243
   69SLPC  H18Z 5962   5.359   1.314   8.502  0.4417  0.3212  0.9194
   70SLPC     N 5963   6.199   6.151  10.922  0.4315 -0.0055  0.1542
   70SLPC   C13 5964   6.081   6.091  10.987  0.6441  0.1615 -0.1657
   70SLPC  H13A 5965   6.078   6.109  11.094  2.4500 -2.0964  0.3479
   70SLPC  H13B 5966   5.989   6.119  10.938 -1.4234 -3.7424  1.0848
   70SLPC  H13C 5967   6.109   5.987  10.985 -1.3368 -0.3908 -2.0554
   70SLPC   C14 5968   6.220   6.289  10.968  0.1049 -0.3417 -0.5324
   70SLPC  H14A 5969   6.147   6.356  10.926 -0.5835 -1.1667 -0.6827
   70SLPC  H14B 5970   6.218   6.283  11.076  0.6307 -2.3805 -0.5912
   70SLPC  H14C 5971   6.312   6.328  10.926 -0.1951  1.0438  0.0566
   70SLPC   C15 5972   6.171   6.150  10.777 -0.3457  0.5962 -0.2640
   70SLPC  H15A 5973   6.133   6.054  10.743  0.8447  0.1919 -0.4987
   70SLPC  H15B 5974   6.089   6.214  10.748  1.7191  2.8196 -1.5389
   70SLPC  H15C 5975   6.262   6.174  10.724  0.2487 -0.6885  0.1276
   70SLPC   C12 5976   6.322   6.065  10.958 -0.0203 -0.6806  0.4166
   70SLPC  H12A 5977   6.324   6.066  11.066  2.0144 -0.9710  0.4225
   70SLPC  H12B 5978   6.412   6.111  10.920  0.5898 -4.3613 -3.2457
   70SLPC   C11 5979   6.326   5.920  10.914 -0.1079 -0.1434  0.6686
   70SLPC  H11A 5980   6.430   5.886  10.932 -0.1146 -0.6212 -0.0950
   70SLPC  H11B 5981   6.312   5.896  10.806  1.1268  1.7546  0.0374
   70SLPC     P 5982   6.265   5.712  11.060  0.1084  0.5495  0.0777
   70SLPC   O13 5983   6.401   5.700  11.113 -0.2792  1.0082 -0.2397
   70SLPC   O14 5984   6.159   5.686  11.166 -0.0859 -0.1214  0.6072
   70SLPC   O12 5985   6.236   5.849  10.993  0.0143  0.4875 -0.3755
   70SLPC   O11 5986   6.240   5.605  10.940 -0.7551 -0.0572 -0.0503
   70SLPC    C1 5987   6.125   5.637  10.856  0.7740 -0.0148 -0.5186
   70SLPC    HA 5988   6.039   5.578  10.894  0.9688  0.4214  0.6430
   70SLPC    HB 5989   6.110   5.746  10.842  0.1948 -0.1555 -1.0816
   70SLPC    C2 5990   6.137   5.579  10.716  0.4497 -0.8693 -0.5507
   70SLPC    HS 5991   6.131   5.468  10.722 -0.1660 -0.7739  2.2390
   70SLPC   O21 5992   6.252   5.643  10.652  0.1631 -0.1342 -0.3096
   70SLPC   C21 5993   6.354   5.560  10.642  0.8432  0.4097  0.4288
   70SLPC   O22 5994   6.360   5.446  10.684 -0.4219  0.0814  0.5728
   70SLPC   C22 5995   6.473   5.638  10.572 -0.4670 -0.2184  0.4114
   70SLPC   H2R 5996   6.531   5.697  10.647 -2.9763  2.9016  0.1166
   70SLPC   H2S 5997   6.528   5.552  10.528 -3.0759 -1.3600 -0.8182
   70SLPC    C3 5998   6.017   5.631  10.638 -0.6264  0.4036  0.4073
   70SLPC    HX 5999   6.015   5.743  10.635  1.5416  0.5035 -2.6584
   70SLPC    HY 6000   5.921   5.598  10.683 -0.7024  1.4363  1.0380
   70SLPC   O31 6001   6.038   5.578  10.505  0.1382 -0.1742  0.1956
   70SLPC   C31 6002   5.924   5.576  10.432  0.2953 -0.4649  0.1818
   70SLPC   O32 6003   5.823   5.630  10.467  0.5652  0.2151 -0.1629
   70SLPC   C32 6004   5.943   5.482  10.311  0.0196  0.2111 -0.3934
   70SLPC   H2X 6005   5.845   5.430  10.301  0.3891 -0.3431 -1.2147
   70SLPC   H2Y 6006   6.021   5.405  10.328 -3.4398 -3.7697 -1.0382
   70SLPC   C23 6007   6.443   5.736  10.456  0.4352  0.6061 -0.2315
   70SLPC   H3R 6008   6.379   5.810  10.508  2.8306  2.5050  0.1767
   70SLPC   H3S 6009   6.401   5.684  10.367  0.6698  0.6727 -0.3819
   70SLPC   C24 6010   6.566   5.813  10.413  0.2570 -0.2341 -0.8805
   70SLPC   H4R 6011   6.662   5.759  10.422  0.6849  0.3436 -1.8165
   70SLPC   H4S 6012   6.571   5.887  10.495 -3.7009 -0.4567 -0.2294
   70SLPC   C25 6013   6.560   5.888  10.279  0.2076  0.5119 -0.6335
   70SLPC   H5R 6014   6.520   5.991  10.294 -0.2920  0.1853  0.3205
   70SLPC   H5S 6015   6.489   5.839  10.208  0.9677 -0.6305 -0.6209
   70SLPC   C26 6016   6.697   5.897  10.206 -0.1850  0.1065  0.3530
   70SLPC   H6R 6017   6.730   5.792  10.186 -0.5754 -0.4257  2.2564
   70SLPC   H6S 6018   6.775   5.939  10.273  1.8666  0.0212 -1.8668
   70SLPC   C27 6019   6.683   5.963  10.075  0.2523 -0.0221 -0.0907
   70SLPC   H7R 6020   6.679   6.073  10.089 -0.8591 -0.1819  1.1358
   70SLPC   H7S 6021   6.588   5.935  10.025  0.7244 -0.0476 -0.9848
   70SLPC   C28 6022   6.796   5.927   9.975 -0.6328  0.3694  0.0048
   70SLPC   H8R 6023   6.771   5.975   9.878  0.6622 -3.6968 -2.5966
   70SLPC   H8S 6024   6.804   5.817   9.960  2.4130  0.4436  0.5537
   70SLPC   C29 6025   6.929   5.976  10.029 -1.1840 -0.9319  0.2256
   70SLPC   H9R 6026   6.950   5.966  10.136  1.1924  2.4245  0.2304
   70SLPC  C210 6027   7.027   6.035   9.952  0.3256  0.2288  0.1227
   70SLPC  H10R 6028   7.121   6.069   9.998  0.8874  1.2246 -1.6444
   70SLPC  C211 6029   7.018   6.052   9.803 -0.7826 -0.4895  0.6248
   70SLPC  H11R 6030   6.960   5.971   9.754  0.0186 -0.0115 -1.1725
   70SLPC  H11S 6031   7.115   6.016   9.762 -0.3133 -0.3600  1.5764
   70SLPC  C212 6032   6.979   6.191   9.747 -0.2231 -0.1885  0.0960
   70SLPC  H12R 6033   6.919   6.239   9.827 -1.6403 -3.9110  1.4827
   70SLPC  C213 6034   7.003   6.250   9.628  0.2941 -0.2525 -0.3942
   70SLPC  H13R 6035   6.975   6.356   9.617 -0.0586 -0.3940 -0.8566
   70SLPC  C214 6036   7.086   6.202   9.517  0.4539 -0.1552  0.1601
   70SLPC  H14R 6037   7.145   6.113   9.547 -1.5266 -1.5541  0.0481
   70SLPC  H14S 6038   7.161   6.279   9.487 -0.5201  0.9624  0.5138
   70SLPC  C215 6039   7.016   6.160   9.392 -0.5112  0.6169 -0.3592
   70SLPC  H15R 6040   7.089   6.127   9.314  1.4205  0.8528  1.2542
   70SLPC  H15S 6041   6.960   6.249   9.357 -1.9996  0.6040  1.8159
   70SLPC  C216 6042   6.935   6.032   9.419  0.4316 -0.4514  0.2806
   70SLPC  H16R 6043   6.859   5.999   9.346 -0.9768 -1.0636  1.9362
   70SLPC  H16S 6044   6.874   6.038   9.512 -0.2684  0.2419 -0.2103
   70SLPC  C217 6045   7.014   5.905   9.426 -0.2060 -0.4839 -0.4382
   70SLPC  H17R 6046   7.077   5.920   9.517  1.3778  1.0147 -1.7292
   70SLPC  H17S 6047   7.081   5.886   9.340 -0.4011 -0.4914 -0.5877
   70SLPC  C218 6048   6.932   5.781   9.465 -0.1281  0.1990  0.0209
   70SLPC  H18R 6049   6.871   5.742   9.382  1.3570 -1.3012 -0.4237
   70SLPC  H18S 6050   6.866   5.797   9.554  2.9260 -1.5390  2.8542
   70SLPC  H18T 6051   7.009   5.711   9.504  1.2050  0.6432 -1.6777
   70SLPC   C33 6052   5.963   5.566  10.180 -0.0137  0.3144  0.5138
   70SLPC   H3X 6053   6.053   5.632  10.187  1.3153 -1.3753  0.1112
   70SLPC   H3Y 6054   5.863   5.610  10.160 -0.6658 -1.5174 -0.4883
   70SLPC   C34 6055   5.986   5.467  10.069  0.0205 -0.9621  0.2759
   70SLPC   H4X 6056   5.904   5.393  10.068 -1.4241  0.5614 -1.4560
   70SLPC   H4Y 6057   6.078   5.414  10.101 -0.4086 -0.4121  2.6485
   70SLPC   C35 6058   5.998   5.529   9.927 -0.2126 -0.2338 -0.7975
   70SLPC   H5X 6059   6.070   5.614   9.924  0.4531 -0.7488  0.0166
   70SLPC   H5Y 6060   5.895   5.560   9.900 -1.3873 -0.6459  2.7180
   70SLPC   C36 6061   6.044   5.426   9.825 -0.3073 -0.2252 -0.0199
   70SLPC   H6X 6062   5.957   5.358   9.812 -0.5463  0.1078 -0.1765
   70SLPC   H6Y 6063   6.121   5.366   9.878 -1.6605 -0.2962  1.9972
   70SLPC   C37 6064   6.083   5.495   9.697 -0.0416 -0.8388 -0.3051
   70SLPC   H7X 6065   6.184   5.541   9.705  0.1817 -1.2738 -0.5805
   70SLPC   H7Y 6066   6.013   5.578   9.673  0.7945  0.2495  0.9160
   70SLPC   C38 6067   6.097   5.396   9.583  0.0099  0.2750  0.1262
   70SLPC   H8X 6068   6.012   5.323   9.584  1.0620 -0.9882  1.0277
   70SLPC   H8Y 6069   6.187   5.336   9.605 -1.7671 -2.6026  0.0872
   70SLPC   C39 6070   6.119   5.454   9.440  0.4926 -0.3552 -0.4718
   70SLPC   H9X 6071   6.208   5.521   9.441  1.2449 -1.2354  2.2654
   70SLPC   H9Y 6072   6.034   5.525   9.433  2.2046  1.9249  0.5317
   70SLPC  C310 6073   6.118   5.351   9.334  0.4299 -0.6353 -0.4464
   70SLPC  H10X 6074   6.017   5.305   9.328 -0.5015  1.4862 -1.9851
   70SLPC  H10Y 6075   6.184   5.272   9.376  0.1140 -0.9405 -0.5219
   70SLPC  C311 6076   6.166   5.407   9.190  0.4608  0.2190  0.0640
   70SLPC  H11X 6077   6.189   5.310   9.141 -0.2240 -0.4153  0.9645
   70SLPC  H11Y 6078   6.256   5.469   9.206  0.0599  1.4634 -2.1453
   70SLPC  C312 6079   6.064   5.487   9.110 -0.6863  0.3276  0.2129
   70SLPC  H12X 6080   6.013   5.566   9.168  0.9977  0.8575  1.0428
   70SLPC  H12Y 6081   5.982   5.417   9.082  1.3378 -1.8540 -0.6639
   70SLPC  C313 6082   6.123   5.549   8.986  0.2366 -0.1911  0.5590
   70SLPC  H13X 6083   6.194   5.629   9.015 -2.3719  2.4362  0.2293
   70SLPC  H13Y 6084   6.052   5.605   8.922 -0.4464 -2.2910 -0.6437
   70SLPC  C314 6085   6.190   5.445   8.890 -0.2564  0.2910  0.9039
   70SLPC  H14X 6086   6.103   5.403   8.835  0.1662  1.1732 -0.5207
   70SLPC  H14Y 6087   6.234   5.370   8.959 -1.0641 -0.9745  0.0944
   70SLPC  C315 6088   6.301   5.485   8.792 -0.0035 -0.8547 -0.1722
   70SLPC  H15X 6089   6.371   5.543   8.856 -0.5519  0.5788 -0.8371
   70SLPC  H15Y 6090   6.268   5.558   8.715  0.4228 -2.7337 -2.2376
   70SLPC  C316 6091   6.374   5.365   8.720  0.1160 -0.1665 -0.1537
   70SLPC  H16X 6092   6.296   5.288   8.703 -1.0819  1.1660 -0.9979
   70SLPC  H16Y 6093   6.455   5.332   8.788  0.8008 -1.2816 -1.4540
   70SLPC  C317 6094   6.448   5.399   8.584  0.9501 -0.4958 -0.3340
   70SLPC  H17X 6095   6.378   5.453   8.517 -0.4632 -2.0843 -0.2031
   70SLPC  H17Y 6096   6.460   5.301   8.533 -0.9096  0.1445 -2.1616
   70SLPC  C318 6097   6.589   5.464   8.595  0.0529 -0.0343  0.1682
   70SLPC  H18X 6098   6.646   5.412   8.675  1.8190 -0.1707 -1.1264
   70SLPC  H18Y 6099   6.593   5.573   8.613  1.0472  0.0692 -0.6248
   70SLPC  H18Z 6100   6.638   5.466   8.495  0.8778  2.8501  0.5444
   71SLPC     N 6101   0.211   5.274  10.523  0.0478  0.2446 -0.3273
   71SLPC   C13 6102   0.216   5.158  10.619 -0.4206 -0.2285  0.0986
   71SLPC  H13A 6103   0.148   5.174  10.701 -1.2093 -1.5056 -0.2757
   71SLPC  H13B 6104   0.197   5.058  10.580  1.6497 -0.5189 -0.2765
   71SLPC  H13C 6105   0.315   5.160  10.662 -0.4340 -1.4165  0.2380
   71SLPC   C14 6106   0.311   5.251  10.414  0.2922 -0.0829 -0.1427
   71SLPC  H14A 6107   0.409   5.245  10.461 -0.0772 -0.8893  0.5361
   71SLPC  H14B 6108   0.294   5.149  10.383 -0.3287 -0.8596  2.4548
   71SLPC  H14C 6109   0.294   5.326  10.339 -2.4966 -0.5056 -0.0219
   71SLPC   C15 6110   0.238   5.393  10.609 -0.1183 -0.5710  0.2852
   71SLPC  H15A 6111   0.179   5.479  10.582  0.8284  0.3547  1.0470
   71SLPC  H15B 6112   0.208   5.363  10.708 -1.0389 -0.9928 -0.1075
   71SLPC  H15C 6113   0.340   5.428  10.597  0.2680 -1.8198 -0.2602
   71SLPC   C12 6114   0.074   5.287  10.468  0.6521  0.1021  1.2311
   71SLPC  H12A 6115   0.070   5.376  10.405 -1.4463 -1.0010 -0.3293
   71SLPC  H12B 6116   0.000   5.284  10.546 -0.1107 -1.1027  0.4876
   71SLPC   C11 6117   0.031   5.182  10.368  0.5368  0.2211  0.0198
   71SLPC  H11A 6118   0.093   5.174  10.276 -1.0018 -0.0235 -1.0373
   71SLPC  H11B 6119  -0.061   5.223  10.322 -0.0776 -0.7578  0.3647
   71SLPC     P 6120  -0.115   5.023  10.498  0.7430  0.2697 -0.0658
   71SLPC   O13 6121  -0.098   4.917  10.604 -0.0654  0.0975 -0.9734
   71SLPC   O14 6122  -0.175   5.147  10.560  0.1189  0.3743  0.1814
   71SLPC   O12 6123   0.017   5.050  10.422 -0.3127 -0.0219  0.3301
   71SLPC   O11 6124  -0.204   4.973  10.371  0.6320 -0.1697 -0.1975
   71SLPC    C1 6125  -0.135   4.932  10.255 -0.4162 -0.2573 -0.4359
   71SLPC    HA 6126  -0.070   5.010  10.210  1.3735 -0.8043  1.0337
   71SLPC    HB 6127  -0.066   4.846  10.268 -0.6125 -0.5166 -1.0852
   71SLPC    C2 6128  -0.234   4.881  10.155  0.4851  0.3185  0.5210
   71SLPC    HS 6129  -0.326   4.860  10.214  0.7534 -2.9133 -0.0368
   71SLPC   O21 6130  -0.194   4.757  10.091 -0.5613 -0.0220  0.6886
   71SLPC   C21 6131  -0.288   4.699  10.021  0.5356  0.0849 -0.3584
   71SLPC   O22 6132  -0.408   4.735  10.017  0.0275  0.4832  1.0261
   71SLPC   C22 6133  -0.224   4.592   9.939  0.0413 -0.7244 -0.4266
   71SLPC   H2R 6134  -0.115   4.610   9.944 -0.2927  1.2338  2.6804
   71SLPC   H2S 6135  -0.235   4.489   9.979  0.3048 -0.8586 -0.6961
   71SLPC    C3 6136  -0.267   4.999  10.050 -0.0093 -0.0836 -0.6032
   71SLPC    HX 6137  -0.256   5.095  10.105  1.5796  0.4117 -1.7177
   71SLPC    HY 6138  -0.376   5.002  10.025  0.0617  1.1068 -0.8442
   71SLPC   O31 6139  -0.192   4.989   9.928  0.3487 -0.5315  0.4151
   71SLPC   C31 6140  -0.112   5.087   9.904 -0.2720  0.1871 -0.6516
   71SLPC   O32 6141  -0.089   5.186   9.973 -0.4361  0.0462  0.1132
   71SLPC   C32 6142  -0.047   5.051   9.773 -0.0566  0.2598  0.5643
   71SLPC   H2X 6143   0.016   4.960   9.783 -0.4689 -0.1058 -0.0595
   71SLPC   H2Y 6144   0.019   5.138   9.750 -0.1549 -0.0160 -0.8720
   71SLPC   C23 6145  -0.285   4.582   9.797 -0.8791 -0.2769  0.3904
   71SLPC   H3R 6146  -0.375   4.644   9.777 -1.1965 -0.9356 -0.2804
   71SLPC   H3S 6147  -0.314   4.479   9.766  2.3907 -1.4345  0.7602
   71SLPC   C24 6148  -0.178   4.601   9.689  0.1541  0.0789 -0.4714
   71SLPC   H4R 6149  -0.100   4.525   9.711  0.1062  0.3011  0.5110
   71SLPC   H4S 6150  -0.137   4.702   9.711 -1.2540  0.9731 -1.7720
   71SLPC   C25 6151  -0.221   4.578   9.545 -0.2049 -0.6083 -0.5094
   71SLPC   H5R 6152  -0.313   4.640   9.539  1.1261  1.5685  0.3727
   71SLPC   H5S 6153  -0.242   4.472   9.520 -1.1599 -0.5084 -0.1476
   71SLPC   C26 6154  -0.125   4.645   9.444 -0.5682  0.5225  0.5418
   71SLPC   H6R 6155  -0.032   4.586   9.429 -1.7652 -1.7877  1.5486
   71SLPC   H6S 6156  -0.102   4.746   9.483 -1.4493  1.1623 -0.5356
   71SLPC   C27 6157  -0.197   4.650   9.315  0.0819  0.0087  0.5483
   71SLPC   H7R 6158  -0.296   4.699   9.330  0.2244 -0.1631  2.3452
   71SLPC   H7S 6159  -0.229   4.550   9.280  0.5316  0.0132  0.1120
   71SLPC   C28 6160  -0.129   4.738   9.212  0.0137  0.3992  0.1782
   71SLPC   H8R 6161  -0.029   4.701   9.183 -0.2159  1.0614 -1.6072
   71SLPC   H8S 6162  -0.112   4.841   9.251  0.4812  1.4821 -2.6653
   71SLPC   C29 6163  -0.196   4.732   9.077  0.3524 -0.4714  0.2662
   71SLPC   H9R 6164  -0.236   4.633   9.049  1.6354 -1.2570  1.0856
   71SLPC  C210 6165  -0.218   4.834   8.998  0.5387  0.2433  0.2488
   71SLPC  H10R 6166  -0.279   4.804   8.911  0.7766 -2.5511  0.9363
   71SLPC  C211 6167  -0.176   4.973   9.014  0.2148 -0.0915 -0.1881
   71SLPC  H11R 6168  -0.147   4.989   9.120 -1.6797 -0.3980  0.4005
   71SLPC  H11S 6169  -0.264   5.039   8.998  0.8783  1.0963  0.8525
   71SLPC  C212 6170  -0.054   5.019   8.936  0.1072 -0.0530 -0.4807
   71SLPC  H12R 6171   0.042   5.007   8.988  1.2942  2.8903 -1.8137
   71SLPC  C213 6172  -0.049   5.055   8.806  0.1912  0.2563 -0.7725
   71SLPC  H13R 6173   0.053   5.061   8.766  0.1142  1.0993 -0.8635
   71SLPC  C214 6174  -0.173   5.073   8.716 -0.6676 -0.5958  0.3559
   71SLPC  H14R 6175  -0.181   5.176   8.674 -2.1464  0.0634  2.0941
   71SLPC  H14S 6176  -0.269   5.054   8.770  0.2702 -2.0913  1.5826
   71SLPC  C215 6177  -0.159   4.959   8.612  0.1913 -0.0917  0.2377
   71SLPC  H15R 6178  -0.198   4.863   8.650 -0.8190 -0.1929 -1.0007
   71SLPC  H15S 6179  -0.054   4.951   8.575  0.8611  0.1277  1.9840
   71SLPC  C216 6180  -0.247   4.989   8.493 -0.0378 -0.2841  0.7145
   71SLPC  H16R 6181  -0.206   5.086   8.459  1.0037 -1.4323 -1.4889
   71SLPC  H16S 6182  -0.352   5.014   8.520 -0.3389 -0.1251 -0.5444
   71SLPC  C217 6183  -0.254   4.874   8.387 -0.2728 -0.1543 -1.1285
   71SLPC  H17R 6184  -0.324   4.801   8.432 -1.0424  0.5604 -1.1530
   71SLPC  H17S 6185  -0.148   4.841   8.381  0.8657  2.8481  0.4262
   71SLPC  C218 6186  -0.310   4.915   8.245 -0.3113 -0.6329 -0.1187
   71SLPC  H18R 6187  -0.421   4.910   8.253 -0.1907 -1.5177  1.4010
   71SLPC  H18S 6188  -0.288   4.841   8.164 -1.2364 -1.4291  0.3371
   71SLPC  H18T 6189  -0.274   5.018   8.227 -1.0972 -0.3486 -0.0964
   71SLPC   C33 6190  -0.147   5.020   9.652 -0.0535 -0.4098  0.1117
   71SLPC   H3X 6191  -0.208   4.928   9.662 -2.1380  0.6103 -2.0790
   71SLPC   H3Y 6192  -0.093   5.002   9.557  2.0914  0.1059  1.1592
   71SLPC   C34 6193  -0.246   5.139   9.628 -0.2907 -0.2049 -0.2757
   71SLPC   H4X 6194  -0.211   5.233   9.676  1.7382 -0.4491 -1.1652
   71SLPC   H4Y 6195  -0.345   5.113   9.671  0.5883 -3.4841  0.0075
   71SLPC   C35 6196  -0.274   5.195   9.485  0.0912  0.2641  0.1064
   71SLPC   H5X 6197  -0.348   5.274   9.510  2.1512  2.3551 -0.0607
   71SLPC   H5Y 6198  -0.322   5.116   9.424  2.1768 -1.2794  0.3384
   71SLPC   C36 6199  -0.151   5.247   9.399  0.1571  1.0137 -0.1417
   71SLPC   H6X 6200  -0.085   5.158   9.398  1.0386  1.6532 -0.5501
   71SLPC   H6Y 6201  -0.094   5.321   9.461  2.7496 -1.1802  0.3077
   71SLPC   C37 6202  -0.177   5.295   9.252  0.1469  0.3402 -0.2339
   71SLPC   H7X 6203  -0.228   5.394   9.256 -0.0878  0.1903  1.6780
   71SLPC   H7Y 6204  -0.241   5.215   9.208 -0.2103 -0.1125  1.0516
   71SLPC   C38 6205  -0.051   5.312   9.168  0.3444  0.3421  0.5139
   71SLPC   H8X 6206  -0.002   5.216   9.141  2.5459  1.2834  1.0119
   71SLPC   H8Y 6207   0.010   5.370   9.240 -0.7035  1.4448  0.5593
   71SLPC   C39 6208  -0.087   5.377   9.034  0.2905 -0.3863  1.0243
   71SLPC   H9X 6209  -0.167   5.454   9.046  1.1295  1.0054 -1.5725
   71SLPC   H9Y 6210  -0.122   5.296   8.966  1.0510 -0.5293  0.8000
   71SLPC  C310 6211   0.040   5.445   8.963  0.4736  0.1468  0.6008
   71SLPC  H10X 6212   0.015   5.434   8.855 -1.7838  1.1207  0.9554
   71SLPC  H10Y 6213   0.136   5.397   8.993  1.7883  1.9093 -0.5971
   71SLPC  C311 6214   0.036   5.592   8.990 -0.5399 -0.1918  0.0588
   71SLPC  H11X 6215   0.049   5.616   9.098  0.8382  0.0026 -0.1376
   71SLPC  H11Y 6216  -0.067   5.609   8.952 -0.9034  0.0094  1.0858
   71SLPC  C312 6217   0.143   5.668   8.927 -0.0209  0.2361  1.0783
   71SLPC  H12X 6218   0.180   5.618   8.835 -0.9572 -0.0975  0.8738
   71SLPC  H12Y 6219   0.237   5.674   8.987  0.3911  3.3757  0.3159
   71SLPC  C313 6220   0.108   5.813   8.884 -0.0976  0.0986  0.1189
   71SLPC  H13X 6221   0.042   5.853   8.963 -2.0244  0.0733 -1.4058
   71SLPC  H13Y 6222   0.054   5.816   8.787  1.1883 -0.1708 -0.6353
   71SLPC  C314 6223   0.226   5.905   8.866 -0.4241  0.2084  0.7204
   71SLPC  H14X 6224   0.284   5.909   8.961  0.3031 -2.8332  0.5064
   71SLPC  H14Y 6225   0.187   6.000   8.826 -0.3739 -0.0996 -0.0707
   71SLPC  C315 6226   0.334   5.857   8.761  0.5002  0.3434 -0.4762
   71SLPC  H15X 6227   0.372   5.754   8.779  0.2352  0.5548  1.5560
   71SLPC  H15Y 6228   0.417   5.930   8.771  0.9140 -0.2690  0.7994
   71SLPC  C316 6229   0.289   5.849   8.615 -0.1941 -0.0667 -0.7614
   71SLPC  H16X 6230   0.273   5.954   8.583 -1.0527 -0.5156 -1.8805
   71SLPC  H16Y 6231   0.201   5.786   8.589  1.6542 -2.4418 -1.7181
   71SLPC  C317 6232   0.402   5.793   8.533  0.1206  0.0636  1.1738
   71SLPC  H17X 6233   0.425   5.688   8.561 -2.5914 -0.5724  1.2898
   71SLPC  H17Y 6234   0.490   5.860   8.543  0.3363  0.1022 -0.6690
   71SLPC  C318 6235   0.379   5.772   8.379  0.5081 -0.0984 -0.5940
   71SLPC  H18X 6236   0.471   5.739   8.326  0.5136 -1.5974  0.2814
   71SLPC  H18Y 6237   0.348   5.867   8.332  1.8419 -0.0793 -1.5076
   71SLPC  H18Z 6238   0.303   5.692   8.370  0.9412 -0.4396 -1.2892
   72SLPC     N 6239   6.670   1.942  10.854 -0.4276  0.7390  0.4890
   72SLPC   C13 6240   6.712   1.813  10.770 -0.0740  0.2087  0.0201
   72SLPC  H13A 6241   6.817   1.788  10.779  0.2979  1.1585 -1.3441
   72SLPC  H13B 6242   6.644   1.733  10.794  0.2618 -0.1308 -0.1428
   72SLPC  H13C 6243   6.687   1.840  10.668 -0.1003  1.7848  0.4142
   72SLPC   C14 6244   6.783   2.040  10.844  0.4899  0.5034  0.4462
   72SLPC  H14A 6245   6.813   2.059  10.742  1.3824 -0.7415  0.4570
   72SLPC  H14B 6246   6.762   2.140  10.880 -0.3494  0.4332  0.1749
   72SLPC  H14C 6247   6.868   2.013  10.905  0.2169  1.4230  1.2647
   72SLPC   C15 6248   6.657   1.892  10.993 -0.0808 -0.4106  0.2681
   72SLPC  H15A 6249   6.730   1.822  11.032  0.0704 -0.2898  0.2053
   72SLPC  H15B 6250   6.646   1.976  11.059 -0.7035 -0.2703 -0.0136
   72SLPC  H15C 6251   6.566   1.837  11.013 -0.3332  0.8101  2.8758
   72SLPC   C12 6252   6.530   1.998  10.806  0.4417 -0.6685  0.1667
   72SLPC  H12A 6253   6.518   2.091  10.859 -0.2114 -0.7115  0.1003
   72SLPC  H12B 6254   6.453   1.933  10.844  0.7030 -1.8638 -1.2525
   72SLPC   C11 6255   6.505   2.028  10.660 -0.1925  0.9390  0.4226
   72SLPC  H11A 6256   6.405   2.072  10.640  0.8002  2.7023 -1.0002
   72SLPC  H11B 6257   6.505   1.938  10.595  0.0572 -0.8790  2.8325
   72SLPC     P 6258   6.581   2.275  10.621 -0.3771  0.0506  0.2269
   72SLPC   O13 6259   6.492   2.303  10.738 -0.6678  0.2014  0.2664
   72SLPC   O14 6260   6.717   2.332  10.620 -0.0671  0.4476  0.1510
   72SLPC   O12 6261   6.601   2.118  10.603  0.0983 -0.2969 -1.0271
   72SLPC   O11 6262   6.507   2.319  10.490  0.6908  0.3931  0.4645
   72SLPC    C1 6263   6.517   2.245  10.366 -0.2517 -0.5441  1.0079
   72SLPC    HA 6264   6.491   2.137  10.375 -1.8660 -0.5491 -2.2636
   72SLPC    HB 6265   6.439   2.287  10.299  0.6792 -2.3188 -1.3139
   72SLPC    C2 6266   6.651   2.273  10.286  0.0070 -0.3356 -0.5032
   72SLPC    HS 6267   6.729   2.228  10.350 -1.3963  0.9324  2.2991
   72SLPC   O21 6268   6.659   2.421  10.264  0.0680  0.3760 -0.3781
   72SLPC   C21 6269   6.789   2.458  10.242 -0.0487  0.7519 -1.3462
   72SLPC   O22 6270   6.887   2.385  10.254  0.0247  0.3481 -0.2755
   72SLPC   C22 6271   6.794   2.600  10.194  0.6891 -0.5608  0.1955
   72SLPC   H2R 6272   6.691   2.638  10.185 -0.0768 -2.5194  0.1424
   72SLPC   H2S 6273   6.846   2.665  10.267  2.6564 -1.2841 -0.4752
   72SLPC    C3 6274   6.640   2.199  10.145  0.0369  0.9063 -0.2569
   72SLPC    HX 6275   6.570   2.250  10.076  0.0101  1.8277  0.4356
   72SLPC    HY 6276   6.588   2.102  10.159 -2.6747  1.9464 -2.2863
   72SLPC   O31 6277   6.768   2.183  10.080  0.5646 -0.4373  0.5177
   72SLPC   C31 6278   6.870   2.121  10.139 -0.2838  0.0016 -0.9447
   72SLPC   O32 6279   6.880   2.077  10.252  0.5922  0.1314 -0.2098
   72SLPC   C32 6280   6.986   2.116  10.037  0.4976 -0.2157 -0.7011
   72SLPC   H2X 6281   6.939   2.101   9.937 -2.9711 -0.8316  0.8774
   72SLPC   H2Y 6282   7.046   2.029  10.069  0.2777  0.0152  0.3705
   72SLPC   C23 6283   6.866   2.621  10.058 -0.0688  0.6020  0.1738
   72SLPC   H3R 6284   6.973   2.590  10.062 -0.7970 -2.8167 -2.0064
   72SLPC   H3S 6285   6.862   2.729  10.033 -1.6458  0.5750  0.1930
   72SLPC   C24 6286   6.802   2.539   9.944  0.5367  0.2833  0.0151
   72SLPC   H4R 6287   6.709   2.594   9.919  0.1547  0.0120  0.8209
   72SLPC   H4S 6288   6.777   2.434   9.970 -0.1155  0.3030 -0.4874
   72SLPC   C25 6289   6.885   2.536   9.812  0.5180 -0.2153 -0.5287
   72SLPC   H5R 6290   6.977   2.477   9.830 -0.5728 -2.0197 -0.6084
   72SLPC   H5S 6291   6.924   2.637   9.786  0.3814 -0.2444 -0.8472
   72SLPC   C26 6292   6.816   2.463   9.699  0.6712  0.1323  0.2875
   72SLPC   H6R 6293   6.874   2.461   9.605 -0.7573 -2.8863 -0.6449
   72SLPC   H6S 6294   6.722   2.510   9.661  1.4768  0.4359 -1.4335
   72SLPC   C27 6295   6.786   2.313   9.728 -0.1241 -0.8519 -0.1183
   72SLPC   H7R 6296   6.713   2.302   9.811 -1.2868 -0.4696 -1.0525
   72SLPC   H7S 6297   6.871   2.260   9.775  0.7047  1.0909  0.6700
   72SLPC   C28 6298   6.730   2.238   9.617 -1.0535 -0.8166  0.4736
   72SLPC   H8R 6299   6.801   2.249   9.532  0.1479 -0.6173  1.4795
   72SLPC   H8S 6300   6.635   2.281   9.580 -0.3723  0.7590  0.4836
   72SLPC   C29 6301   6.682   2.101   9.644 -0.1088 -0.5973 -0.3151
   72SLPC   H9R 6302   6.600   2.088   9.716 -0.1101 -0.4732 -0.2947
   72SLPC  C210 6303   6.723   2.000   9.563 -0.1385  0.3310 -0.0767
   72SLPC  H10R 6304   6.691   1.903   9.604  2.4342 -0.2639  0.6425
   72SLPC  C211 6305   6.828   2.000   9.457 -0.7224  0.4528  0.2475
   72SLPC  H11R 6306   6.878   1.901   9.469  3.2626  2.0496 -1.3444
   72SLPC  H11S 6307   6.911   2.065   9.491 -0.3544 -0.5090  1.2848
   72SLPC  C212 6308   6.791   2.030   9.319  1.1422  0.2862  0.9073
   72SLPC  H12R 6309   6.687   1.999   9.300  1.4069 -0.1489  0.1086
   72SLPC  C213 6310   6.867   2.088   9.230  0.2314  0.1266  0.4792
   72SLPC  H13R 6311   6.819   2.098   9.131  0.4413  1.4364  0.4828
   72SLPC  C214 6312   7.009   2.136   9.238 -0.0751 -0.2513  0.1280
   72SLPC  H14R 6313   7.060   2.132   9.336 -1.1305 -1.1416  0.6689
   72SLPC  H14S 6314   7.018   2.237   9.193 -1.2020  0.2430  0.9757
   72SLPC  C215 6315   7.100   2.040   9.157  0.5421 -0.3197 -0.0143
   72SLPC  H15R 6316   7.105   1.942   9.209  3.1444  0.3099  1.0393
   72SLPC  H15S 6317   7.199   2.089   9.161  0.5551 -0.1624 -1.6164
   72SLPC  C216 6318   7.068   2.021   9.007 -0.0156  0.4520 -0.5882
   72SLPC  H16R 6319   7.046   2.119   8.958 -1.7498  1.4475  1.9397
   72SLPC  H16S 6320   6.967   1.974   9.000 -0.1779  0.8238 -0.7475
   72SLPC  C217 6321   7.178   1.948   8.927 -0.0830  0.1789 -0.7916
   72SLPC  H17R 6322   7.190   1.852   8.981 -1.4934  0.7302  0.5725
   72SLPC  H17S 6323   7.275   2.000   8.941  0.1240 -0.4122 -0.0317
   72SLPC  C218 6324   7.138   1.938   8.785  0.0013 -0.1044 -0.1442
   72SLPC  H18R 6325   7.039   1.890   8.779 -1.4243  2.2746  2.1911
   72SLPC  H18S 6326   7.216   1.890   8.721  2.4579  2.9580  0.2663
   72SLPC  H18T 6327   7.136   2.041   8.742 -1.8485  0.5693  1.4009
   72SLPC   C33 6328   7.079   2.234  10.024  0.1744  0.5882  0.9695
   72SLPC   H3X 6329   7.093   2.275  10.127 -0.0803 -2.8714  2.5232
   72SLPC   H3Y 6330   7.041   2.306   9.948  2.0631  0.6662  0.0523
   72SLPC   C34 6331   7.217   2.193   9.962  0.1239 -0.4640 -0.3601
   72SLPC   H4X 6332   7.249   2.105  10.021  1.2710  0.4998  0.5234
   72SLPC   H4Y 6333   7.291   2.271   9.991 -0.3930  0.2457 -0.8939
   72SLPC   C35 6334   7.196   2.158   9.815 -0.2780  0.3432 -0.3986
   72SLPC   H5X 6335   7.158   2.247   9.761  1.6874  0.8551 -0.9955
   72SLPC   H5Y 6336   7.128   2.070   9.811  0.6535 -0.7440  3.3229
   72SLPC   C36 6337   7.326   2.124   9.755 -0.3139  0.2315 -0.1558
   72SLPC   H6X 6338   7.378   2.047   9.816 -1.9083  0.1778  1.1959
   72SLPC   H6Y 6339   7.400   2.207   9.758 -0.7441  0.6952 -1.5891
   72SLPC   C37 6340   7.319   2.073   9.603 -0.6892  0.2217 -0.5898
   72SLPC   H7X 6341   7.298   2.149   9.525  0.1152 -1.0104 -2.0716
   72SLPC   H7Y 6342   7.227   2.011   9.599 -0.8690  0.0761  3.0212
   72SLPC   C38 6343   7.433   1.991   9.552 -0.5493 -1.0533  0.7963
   72SLPC   H8X 6344   7.448   1.918   9.634 -1.2445 -4.4962 -1.8846
   72SLPC   H8Y 6345   7.523   2.057   9.549  0.0183 -1.8419 -0.4600
   72SLPC   C39 6346   7.429   1.918   9.412 -0.6481 -0.4187 -0.2343
   72SLPC   H9X 6347   7.407   2.001   9.341 -2.2962 -0.1123  0.5642
   72SLPC   H9Y 6348   7.348   1.842   9.404 -0.7908 -0.2529 -0.3826
   72SLPC  C310 6349   7.564   1.843   9.371  0.7199  0.3759  0.3490
   72SLPC  H10X 6350   7.572   1.749   9.429  0.4319 -0.3189 -0.6953
   72SLPC  H10Y 6351   7.636   1.925   9.392 -0.6712  1.8100 -0.1988
   72SLPC  C311 6352   7.552   1.819   9.217  0.3379  0.3230  0.3173
   72SLPC  H11X 6353   7.509   1.910   9.169 -0.1859 -0.0257  0.1127
   72SLPC  H11Y 6354   7.478   1.736   9.216  0.7452 -0.0422  0.2631
   72SLPC  C312 6355   7.682   1.777   9.150  0.6599  0.1411  0.9722
   72SLPC  H12X 6356   7.715   1.676   9.182  0.8617  0.5373  2.0557
   72SLPC  H12Y 6357   7.761   1.846   9.186  0.6060  1.9549 -2.0200
   72SLPC  C313 6358   7.668   1.775   8.994 -0.5451 -0.1932  0.6122
   72SLPC  H13X 6359   7.639   1.878   8.965 -0.3065 -0.0704  0.8117
   72SLPC  H13Y 6360   7.599   1.702   8.946 -0.2682 -0.0009 -0.0876
   72SLPC  C314 6361   7.809   1.757   8.929 -0.4859 -1.0880  0.1435
   72SLPC  H14X 6362   7.884   1.818   8.985  0.4127  0.2181 -2.3203
   72SLPC  H14Y 6363   7.799   1.793   8.825  0.4729  0.5795  0.5918
   72SLPC  C315 6364   7.848   1.601   8.923 -0.4792 -0.3218 -0.2568
   72SLPC  H15X 6365   7.769   1.546   8.868 -0.0826 -0.0543 -1.1046
   72SLPC  H15Y 6366   7.853   1.568   9.029 -1.2662 -0.4595 -0.2572
   72SLPC  C316 6367   7.989   1.590   8.859 -0.0453  0.9417 -0.8747
   72SLPC  H16X 6368   8.061   1.633   8.931  0.8495 -1.7103 -0.0786
   72SLPC  H16Y 6369   7.986   1.646   8.763 -0.4965  0.0567 -1.3962
   72SLPC  C317 6370   8.019   1.448   8.834  0.0615 -0.4344  0.0912
   72SLPC  H17X 6371   7.947   1.423   8.753  1.0924 -1.1756 -0.6288
   72SLPC  H17Y 6372   8.008   1.386   8.925  1.4471  1.7650  1.8645
   72SLPC  C318 6373   8.163   1.425   8.781 -0.3522 -0.3708 -0.8995
   72SLPC  H18X 6374   8.236   1.418   8.864 -0.9199 -0.1403 -0.3742
   72SLPC  H18Y 6375   8.192   1.496   8.700  1.9193 -0.0740  0.1161
   72SLPC  H18Z 6376   8.173   1.325   8.733  0.1431 -2.2288  2.7071
   73SLPC     N 6377   6.654   3.595  11.087 -0.3764  0.1429 -0.6862
   73SLPC   C13 6378   6.569   3.573  11.204  0.5785 -0.1479 -0.2159
   73SLPC  H13A 6379   6.600   3.636  11.286  1.2275  1.1904 -1.4293
   73SLPC  H13B 6380   6.465   3.591  11.180  0.9179 -0.4122 -2.0226
   73SLPC  H13C 6381   6.567   3.474  11.247 -2.0043  0.0846  0.3360
   73SLPC   C14 6382   6.790   3.559  11.125 -0.2924  0.2730  0.6053
   73SLPC  H14A 6383   6.833   3.613  11.208  1.4133 -1.2858  0.7843
   73SLPC  H14B 6384   6.785   3.457  11.159 -1.0115 -0.1698 -0.7376
   73SLPC  H14C 6385   6.858   3.553  11.041 -1.1179  1.3487 -0.1680
   73SLPC   C15 6386   6.668   3.742  11.063  0.6924  0.4978 -0.1661
   73SLPC  H15A 6387   6.571   3.783  11.038  0.0975 -1.5171 -1.3945
   73SLPC  H15B 6388   6.706   3.795  11.150 -0.7953  2.5592 -0.6792
   73SLPC  H15C 6389   6.734   3.765  10.981 -0.4930  0.3392 -1.1767
   73SLPC   C12 6390   6.602   3.524  10.963 -1.2657  0.3218  0.2160
   73SLPC  H12A 6391   6.495   3.538  10.960 -1.4601 -0.6192  1.5732
   73SLPC  H12B 6392   6.605   3.417  10.978 -0.8663  0.0358 -1.6159
   73SLPC   C11 6393   6.658   3.543  10.827 -0.4840 -0.0557  0.3560
   73SLPC  H11A 6394   6.660   3.653  10.807  2.0604 -0.0535  0.3423
   73SLPC  H11B 6395   6.600   3.487  10.750 -2.9761 -1.5138  3.1137
   73SLPC     P 6396   6.856   3.379  10.762 -0.3362 -0.0323  0.2101
   73SLPC   O13 6397   6.999   3.385  10.796  0.0430 -0.0210  0.3551
   73SLPC   O14 6398   6.780   3.258  10.812 -0.1384  0.6879 -0.4624
   73SLPC   O12 6399   6.794   3.513  10.824  0.0033 -0.1003 -0.5734
   73SLPC   O11 6400   6.840   3.387  10.606  0.9252 -0.2337 -0.0891
   73SLPC    C1 6401   6.912   3.498  10.550  0.1273 -0.0692  1.0242
   73SLPC    HA 6402   6.898   3.601  10.589  2.8262  1.2877 -1.1853
   73SLPC    HB 6403   7.020   3.478  10.569 -0.7605 -2.8741  4.1093
   73SLPC    C2 6404   6.883   3.504  10.397 -0.1654 -0.8171 -0.6741
   73SLPC    HS 6405   6.945   3.586  10.355  0.8334 -1.1231  0.1816
   73SLPC   O21 6406   6.747   3.530  10.371 -0.0322  0.4187  0.2334
   73SLPC   C21 6407   6.705   3.653  10.406 -0.5611 -0.3942  0.0627
   73SLPC   O22 6408   6.772   3.742  10.456  0.2746  0.0238  0.0935
   73SLPC   C22 6409   6.557   3.675  10.361 -0.2918  0.0991  0.2051
   73SLPC   H2R 6410   6.524   3.578  10.318  1.9292 -0.6511  0.0426
   73SLPC   H2S 6411   6.495   3.678  10.453  0.0361  2.0400  0.4153
   73SLPC    C3 6412   6.932   3.364  10.336  0.2191  0.0152 -0.5346
   73SLPC    HX 6413   6.904   3.278  10.400 -1.1388  0.0408 -1.0618
   73SLPC    HY 6414   7.042   3.363  10.354  0.0362  1.1316  0.7802
   73SLPC   O31 6415   6.908   3.355  10.195  0.2784  0.1109 -0.0039
   73SLPC   C31 6416   6.830   3.251  10.162 -0.0897  0.0985  0.0320
   73SLPC   O32 6417   6.762   3.185  10.243  0.0760  0.2800  0.2605
   73SLPC   C32 6418   6.828   3.241  10.012 -0.2550  0.2364 -0.5699
   73SLPC   H2X 6419   6.919   3.297   9.981  0.7616 -0.3262  1.1951
   73SLPC   H2Y 6420   6.737   3.281   9.964  1.0424  0.7975 -2.7003
   73SLPC   C23 6421   6.525   3.800  10.273  0.4732 -0.8293 -0.0761
   73SLPC   H3R 6422   6.603   3.878  10.283 -0.4012 -0.2255  2.8928
   73SLPC   H3S 6423   6.430   3.850  10.300  0.4169 -0.1176 -1.4923
   73SLPC   C24 6424   6.528   3.771  10.123  0.6377  0.1682 -0.2670
   73SLPC   H4R 6425   6.517   3.865  10.065  0.8499  1.1705  1.2617
   73SLPC   H4S 6426   6.444   3.704  10.096 -1.1260  2.0108  0.4012
   73SLPC   C25 6427   6.666   3.703  10.079  0.1471 -0.5739  0.4798
   73SLPC   H5R 6428   6.680   3.604  10.128  1.0224 -0.0375  1.3279
   73SLPC   H5S 6429   6.746   3.774  10.107 -2.0000  1.2943  2.2903
   73SLPC   C26 6430   6.667   3.667   9.928 -0.2473 -0.1034  0.9905
   73SLPC   H6R 6431   6.624   3.751   9.869  1.3131 -0.3939 -0.6963
   73SLPC   H6S 6432   6.602   3.578   9.926  1.8911 -1.7795  1.8755
   73SLPC   C27 6433   6.798   3.624   9.869 -0.4106 -0.1091 -0.2015
   73SLPC   H7R 6434   6.844   3.540   9.926 -0.5838  0.3248  0.5971
   73SLPC   H7S 6435   6.870   3.709   9.871 -0.9949  0.3741  0.8742
   73SLPC   C28 6436   6.766   3.579   9.728 -0.1244 -0.1617  0.3828
   73SLPC   H8R 6437   6.714   3.665   9.682 -0.4185 -0.2011  0.6364
   73SLPC   H8S 6438   6.691   3.497   9.719 -0.2854  0.2005 -2.9711
   73SLPC   C29 6439   6.878   3.532   9.645 -0.0309  0.1624  0.5910
   73SLPC   H9R 6440   6.882   3.423   9.639 -1.1977  0.1588 -0.3708
   73SLPC  C210 6441   6.966   3.600   9.566  0.4731  0.6015 -0.1169
   73SLPC  H10R 6442   7.042   3.538   9.517  0.9928 -0.1320  1.5319
   73SLPC  C211 6443   6.971   3.747   9.534 -0.1299  0.8397 -0.1467
   73SLPC  H11R 6444   7.060   3.767   9.470  0.6198  0.1831  0.6626
   73SLPC  H11S 6445   6.986   3.806   9.628 -2.1038 -1.0437  1.4585
   73SLPC  C212 6446   6.850   3.809   9.473 -0.7881 -0.0401  0.8055
   73SLPC  H12R 6447   6.788   3.858   9.550  0.6008  0.9746  1.3260
   73SLPC  C213 6448   6.829   3.823   9.340  0.8360 -0.3898 -0.2915
   73SLPC  H13R 6449   6.737   3.877   9.311  0.9200  0.6504  1.2593
   73SLPC  C214 6450   6.922   3.789   9.228 -0.0745  0.4216 -0.9474
   73SLPC  H14R 6451   6.905   3.696   9.170  0.0790 -0.0187 -0.3060
   73SLPC  H14S 6452   7.026   3.782   9.268 -0.9214  0.6344  1.4941
   73SLPC  C215 6453   6.925   3.910   9.129  0.2814 -0.1521  0.2641
   73SLPC  H15R 6454   6.997   3.992   9.148  1.4402 -0.6780 -1.5325
   73SLPC  H15S 6455   6.826   3.959   9.140  0.3950  0.8735 -2.3817
   73SLPC  C216 6456   6.934   3.863   8.981  0.1491 -0.7723 -0.8156
   73SLPC  H16R 6457   6.841   3.805   8.961 -1.2972  0.9428  0.6756
   73SLPC  H16S 6458   7.020   3.792   8.973  0.1962 -0.7195 -0.7706
   73SLPC  C217 6459   6.925   3.989   8.890  0.0972 -0.5422 -0.2792
   73SLPC  H17R 6460   7.013   4.046   8.926  1.0191 -0.7389 -2.1228
   73SLPC  H17S 6461   6.829   4.043   8.903 -0.4407 -1.3709 -0.7033
   73SLPC  C218 6462   6.936   3.954   8.743 -0.3625 -0.0219 -0.0982
   73SLPC  H18R 6463   7.038   3.922   8.713 -0.7136 -1.0486 -0.2233
   73SLPC  H18S 6464   6.910   4.048   8.689  1.6483  1.3379  1.1618
   73SLPC  H18T 6465   6.852   3.887   8.715 -0.2997  0.6233 -1.9804
   73SLPC   C33 6466   6.847   3.102   9.963 -0.6328  0.1477  0.1439
   73SLPC   H3X 6467   6.930   3.055  10.020 -1.2285  0.1245  1.0086
   73SLPC   H3Y 6468   6.883   3.102   9.858 -4.1188  1.4165 -1.1751
   73SLPC   C34 6469   6.719   3.023   9.961  0.6718 -0.3666 -0.4283
   73SLPC   H4X 6470   6.640   3.067  10.026 -1.7351 -1.5186 -2.4071
   73SLPC   H4Y 6471   6.743   2.925  10.006  2.0211 -1.7821 -3.8472
   73SLPC   C35 6472   6.654   3.018   9.825 -0.8335 -0.2983 -0.6978
   73SLPC   H5X 6473   6.638   3.122   9.787  0.0227 -0.3153 -1.1211
   73SLPC   H5Y 6474   6.550   2.981   9.835 -1.5788  2.1833  2.3089
   73SLPC   C36 6475   6.736   2.923   9.730  0.1419 -0.3642  0.2539
   73SLPC   H6X 6476   6.802   2.854   9.786  1.3434  0.7180  0.2074
   73SLPC   H6Y 6477   6.801   2.991   9.670  0.5326 -1.6797 -0.8704
   73SLPC   C37 6478   6.652   2.843   9.630 -0.5817 -0.5056 -0.4840
   73SLPC   H7X 6479   6.591   2.923   9.583  0.5376  0.1031 -0.9252
   73SLPC   H7Y 6480   6.577   2.766   9.660 -2.0918  1.2075  0.3577
   73SLPC   C38 6481   6.740   2.774   9.532 -0.0301 -0.0200  1.0606
   73SLPC   H8X 6482   6.781   2.684   9.582 -0.4531  0.0855  1.5996
   73SLPC   H8Y 6483   6.822   2.844   9.504 -0.5668  0.2370  0.0756
   73SLPC   C39 6484   6.662   2.724   9.408  0.8461  0.1032 -0.6921
   73SLPC   H9X 6485   6.558   2.764   9.410  0.0107 -1.9284 -1.0350
   73SLPC   H9Y 6486   6.651   2.614   9.409 -1.8023  0.2986 -0.9669
   73SLPC  C310 6487   6.724   2.766   9.278  0.4648 -0.2489  0.1174
   73SLPC  H10X 6488   6.821   2.721   9.250  1.3132  2.0638 -0.8731
   73SLPC  H10Y 6489   6.742   2.875   9.274 -1.0895  0.0112 -2.6038
   73SLPC  C311 6490   6.635   2.733   9.154  0.4565 -0.4820  0.4957
   73SLPC  H11X 6491   6.529   2.764   9.167  1.3658  2.2262  2.4047
   73SLPC  H11Y 6492   6.649   2.624   9.138  0.0667 -0.3897 -0.6026
   73SLPC  C312 6493   6.682   2.777   9.020 -0.3929 -0.1483 -0.2589
   73SLPC  H12X 6494   6.782   2.734   9.000 -0.2255  0.2024 -0.1810
   73SLPC  H12Y 6495   6.679   2.888   9.015 -1.4797 -0.0674  1.2494
   73SLPC  C313 6496   6.579   2.734   8.912 -0.3889  0.3874  0.1444
   73SLPC  H13X 6497   6.473   2.756   8.939 -1.4721 -2.9582 -0.8886
   73SLPC  H13Y 6498   6.589   2.628   8.879  0.5214  0.4739  0.1115
   73SLPC  C314 6499   6.593   2.805   8.780 -0.9108  0.0168 -0.1435
   73SLPC  H14X 6500   6.570   2.913   8.788  0.6798  0.6055 -2.4141
   73SLPC  H14Y 6501   6.530   2.755   8.703 -1.1199  0.8007 -0.4909
   73SLPC  C315 6502   6.745   2.805   8.732 -0.1165  0.3180  0.1465
   73SLPC  H15X 6503   6.786   2.702   8.742  1.2114  0.8340  0.1323
   73SLPC  H15Y 6504   6.814   2.864   8.795 -0.0983  0.6692 -0.2034
   73SLPC  C316 6505   6.750   2.842   8.580  0.8546  0.6178 -0.2328
   73SLPC  H16X 6506   6.690   2.935   8.576 -1.6986 -0.9210  0.0842
   73SLPC  H16Y 6507   6.699   2.773   8.510  2.6622  0.3763 -1.3818
   73SLPC  C317 6508   6.898   2.848   8.529  0.3962 -0.1310 -0.3625
   73SLPC  H17X 6509   6.927   2.741   8.532  0.2850 -0.1439  0.4779
   73SLPC  H17Y 6510   6.954   2.906   8.605  0.0600 -0.9224  0.5165
   73SLPC  C318 6511   6.909   2.908   8.384 -0.2762  0.8968 -0.9068
   73SLPC  H18X 6512   7.009   2.916   8.336  0.6053 -0.0615  0.6930
   73SLPC  H18Y 6513   6.858   3.006   8.389  0.1878  1.1123 -0.3095
   73SLPC  H18Z 6514   6.842   2.835   8.333  2.2143 -2.1097 -0.2201
   74SLPC     N 6515   1.666   5.300  10.552  0.0813 -0.2479 -0.2100
   74SLPC   C13 6516   1.655   5.298  10.702 -0.4168  0.3023 -0.1672
   74SLPC  H13A 6517   1.733   5.254  10.763  0.7327  1.0971 -1.0207
   74SLPC  H13B 6518   1.655   5.397  10.745  1.5171  0.6220 -0.7824
   74SLPC  H13C 6519   1.558   5.258  10.725  1.0357 -3.1173  0.6617
   74SLPC   C14 6520   1.782   5.388  10.513  0.7356  0.1355  0.3963
   74SLPC  H14A 6521   1.872   5.368  10.568  0.1345  0.5150  1.5496
   74SLPC  H14B 6522   1.812   5.359  10.413  2.1116 -2.2284  1.4107
   74SLPC  H14C 6523   1.775   5.496  10.519  2.4138  0.2648  0.3469
   74SLPC   C15 6524   1.548   5.355  10.493 -0.6558 -0.0602  0.4538
   74SLPC  H15A 6525   1.460   5.293  10.508 -1.2231 -0.1437 -2.5368
   74SLPC  H15B 6526   1.521   5.453  10.529 -1.0056 -0.1431  0.4265
   74SLPC  H15C 6527   1.555   5.367  10.385  0.4604 -0.8699  0.4215
   74SLPC   C12 6528   1.694   5.156  10.499 -0.3614  0.3580 -0.2344
   74SLPC  H12A 6529   1.783   5.120  10.549 -0.4597  0.4235 -0.0076
   74SLPC  H12B 6530   1.719   5.167  10.395  2.6958 -0.0894  0.3478
   74SLPC   C11 6531   1.589   5.047  10.527 -0.0175  0.1708  0.0904
   74SLPC  H11A 6532   1.489   5.067  10.484 -0.0613 -0.9686 -0.4017
   74SLPC  H11B 6533   1.571   5.053  10.636  0.0197  0.2013  0.0948
   74SLPC     P 6534   1.744   4.841  10.565  0.3109 -0.1186  0.0709
   74SLPC   O13 6535   1.860   4.928  10.593  0.1507 -0.1781  0.0913
   74SLPC   O14 6536   1.679   4.776  10.676 -0.3201 -0.4372 -0.3328
   74SLPC   O12 6537   1.642   4.918  10.481 -0.0632 -0.2022  0.3038
   74SLPC   O11 6538   1.794   4.729  10.463 -0.5083 -0.0472  0.8521
   74SLPC    C1 6539   1.708   4.669  10.362 -0.2658 -0.2708  0.2059
   74SLPC    HA 6540   1.610   4.721  10.365  0.1551  0.5386  0.1347
   74SLPC    HB 6541   1.750   4.676  10.260  0.7489 -3.7541  0.2701
   74SLPC    C2 6542   1.693   4.518  10.379 -0.6356  0.0852 -0.0044
   74SLPC    HS 6543   1.661   4.504  10.485 -1.1432 -1.4517 -0.3434
   74SLPC   O21 6544   1.822   4.458  10.368  0.1763  0.4690 -0.0716
   74SLPC   C21 6545   1.822   4.317  10.378 -0.9432 -0.1238  1.1416
   74SLPC   O22 6546   1.744   4.257  10.448  0.0915 -0.5493 -0.8420
   74SLPC   C22 6547   1.946   4.260  10.306  0.4280 -0.3154  0.4026
   74SLPC   H2R 6548   1.971   4.341  10.234 -0.9442  1.2524  1.6103
   74SLPC   H2S 6549   2.037   4.255  10.368  1.9159 -1.4693 -1.7408
   74SLPC    C3 6550   1.578   4.470  10.291 -0.0664 -0.6330 -0.2740
   74SLPC    HX 6551   1.480   4.511  10.326  0.3734 -1.8194  2.6472
   74SLPC    HY 6552   1.569   4.359  10.285 -0.6046 -0.6005 -0.1477
   74SLPC   O31 6553   1.600   4.510  10.157  0.3293  0.3501  0.5470
   74SLPC   C31 6554   1.525   4.608  10.113 -0.0729 -0.3278  0.4032
   74SLPC   O32 6555   1.448   4.682  10.175  0.5334  0.2881  0.0169
   74SLPC   C32 6556   1.549   4.624   9.965 -0.5873  0.5340 -0.5817
   74SLPC   H2X 6557   1.451   4.636   9.915 -0.6669 -0.0994 -0.5849
   74SLPC   H2Y 6558   1.599   4.533   9.924  1.2763  1.0742  0.3837
   74SLPC   C23 6559   1.912   4.131  10.237 -0.4120  0.1235 -0.1382
   74SLPC   H3R 6560   1.820   4.140  10.174  0.1327 -0.1624 -0.9922
   74SLPC   H3S 6561   1.901   4.051  10.313 -0.6572  0.6455  0.3837
   74SLPC   C24 6562   2.016   4.101  10.124 -0.2279  0.2010 -0.0617
   74SLPC   H4R 6563   2.008   4.172  10.038 -0.2572  2.5385  1.7510
   74SLPC   H4S 6564   1.985   3.999  10.093 -0.1856 -0.3414  1.5678
   74SLPC   C25 6565   2.161   4.105  10.181  0.1483 -0.2339 -0.5375
   74SLPC   H5R 6566   2.170   4.049  10.276  1.9208  0.1028 -0.4811
   74SLPC   H5S 6567   2.181   4.212  10.205  2.4738 -0.9209  0.9214
   74SLPC   C26 6568   2.264   4.058  10.077  0.0801 -0.2250 -0.5067
   74SLPC   H6R 6569   2.251   4.120   9.986 -1.4333  1.2809  0.6676
   74SLPC   H6S 6570   2.240   3.952  10.057 -0.4220 -0.2446  0.1710
   74SLPC   C27 6571   2.412   4.088  10.117  0.6868 -0.1658  0.2509
   74SLPC   H7R 6572   2.425   4.026  10.209 -1.2323 -0.0127  0.6597
   74SLPC   H7S 6573   2.423   4.189  10.163 -0.1302  0.2843 -0.5324
   74SLPC   C28 6574   2.514   4.064  10.009 -0.5388 -0.3553  0.4920
   74SLPC   H8R 6575   2.481   3.970   9.960  1.2727 -0.1992 -1.1902
   74SLPC   H8S 6576   2.613   4.044  10.054  0.1097  0.3820 -0.5418
   74SLPC   C29 6577   2.534   4.176   9.908 -0.1860  0.2009  0.1322
   74SLPC   H9R 6578   2.607   4.251   9.943 -0.4497  0.9079 -0.7765
   74SLPC  C210 6579   2.483   4.183   9.785  0.3831  0.1502 -1.0324
   74SLPC  H10R 6580   2.501   4.274   9.726  1.8906  1.2888  1.0213
   74SLPC  C211 6581   2.389   4.090   9.727 -0.4787  0.6195 -0.1129
   74SLPC  H11R 6582   2.314   4.149   9.669  0.4517  2.2844  0.3176
   74SLPC  H11S 6583   2.336   4.027   9.801  2.0169 -0.1362  1.1563
   74SLPC  C212 6584   2.465   3.994   9.641  0.1086  0.7552 -0.5180
   74SLPC  H12R 6585   2.534   3.927   9.696  0.0856  1.7118  0.7181
   74SLPC  C213 6586   2.458   3.978   9.502 -0.5505  0.0353  0.2736
   74SLPC  H13R 6587   2.519   3.899   9.456 -0.8381  0.0184 -0.0765
   74SLPC  C214 6588   2.395   4.067   9.392 -0.3629 -0.6496  0.0727
   74SLPC  H14R 6589   2.359   4.166   9.429  1.2798 -0.5116  1.4078
   74SLPC  H14S 6590   2.303   4.028   9.343 -0.4776 -0.3746  0.0635
   74SLPC  C215 6591   2.504   4.103   9.281  0.3034 -0.0039 -0.0470
   74SLPC  H15R 6592   2.507   4.014   9.216  2.3812 -0.6663  0.8753
   74SLPC  H15S 6593   2.608   4.121   9.315 -0.1817  2.4342  0.3939
   74SLPC  C216 6594   2.456   4.223   9.195  0.2719  0.5567  0.4132
   74SLPC  H16R 6595   2.443   4.317   9.253  1.3042 -0.0835  1.7410
   74SLPC  H16S 6596   2.358   4.197   9.151  0.7852 -0.8421  0.0563
   74SLPC  C217 6597   2.549   4.259   9.075  0.7198 -0.7220 -0.6031
   74SLPC  H17R 6598   2.648   4.293   9.114  0.3952 -1.6383  1.1159
   74SLPC  H17S 6599   2.493   4.348   9.038  1.9037 -0.1201 -1.0225
   74SLPC  C218 6600   2.550   4.159   8.956 -0.3139  0.0848 -0.0851
   74SLPC  H18R 6601   2.593   4.213   8.869  0.9788  0.7815  0.9474
   74SLPC  H18S 6602   2.447   4.123   8.934 -0.2191 -0.7701  0.7854
   74SLPC  H18T 6603   2.602   4.068   8.992 -0.0872  0.8175  1.4911
   74SLPC   C33 6604   1.632   4.749   9.939  0.7477 -0.0387 -0.5900
   74SLPC   H3X 6605   1.734   4.744   9.983  1.0060  1.2786 -0.9733
   74SLPC   H3Y 6606   1.580   4.830   9.994  3.2852  0.4265  1.3376
   74SLPC   C34 6607   1.654   4.783   9.794  0.1827  0.4112 -0.9566
   74SLPC   H4X 6608   1.688   4.886   9.770 -2.0062  1.1079 -1.3236
   74SLPC   H4Y 6609   1.555   4.767   9.746 -0.2367 -4.8246  0.9548
   74SLPC   C35 6610   1.750   4.687   9.723 -0.6826 -0.3618  0.1254
   74SLPC   H5X 6611   1.725   4.581   9.747  2.6570 -0.7899  2.4088
   74SLPC   H5Y 6612   1.848   4.695   9.774 -0.1656 -1.7609 -0.6004
   74SLPC   C36 6613   1.778   4.722   9.578  0.9502  0.0533 -0.0539
   74SLPC   H6X 6614   1.848   4.664   9.515 -2.8563 -2.4151 -2.4757
   74SLPC   H6Y 6615   1.808   4.828   9.573 -0.4074  0.4044 -2.9282
   74SLPC   C37 6616   1.652   4.704   9.487 -0.6723 -0.4195 -0.4103
   74SLPC   H7X 6617   1.584   4.783   9.525  2.0410  1.1644  1.5042
   74SLPC   H7Y 6618   1.603   4.605   9.505  0.5221 -0.5079  3.3308
   74SLPC   C38 6619   1.686   4.736   9.344  0.2577 -0.5266 -0.0587
   74SLPC   H8X 6620   1.748   4.652   9.306 -1.7026 -0.8613 -2.8236
   74SLPC   H8Y 6621   1.752   4.825   9.355  1.2718 -1.5202  2.9658
   74SLPC   C39 6622   1.576   4.744   9.239  0.7696  0.2334 -0.1444
   74SLPC   H9X 6623   1.504   4.826   9.258  0.6613 -0.1860  1.3297
   74SLPC   H9Y 6624   1.526   4.646   9.219 -0.3724  0.6284  0.6896
   74SLPC  C310 6625   1.627   4.789   9.101  0.0556  0.5180 -0.0914
   74SLPC  H10X 6626   1.693   4.876   9.122  0.4751  0.1732  0.0298
   74SLPC  H10Y 6627   1.537   4.828   9.049 -1.7737 -3.1835 -0.0384
   74SLPC  C311 6628   1.699   4.673   9.023 -1.1578 -0.6333 -0.1737
   74SLPC  H11X 6629   1.624   4.591   9.022 -0.5607 -1.2047  0.6079
   74SLPC  H11Y 6630   1.792   4.649   9.080  0.2298  1.2615 -1.4956
   74SLPC  C312 6631   1.726   4.724   8.880  0.6102 -0.0181  0.4791
   74SLPC  H12X 6632   1.635   4.768   8.834  1.9550  1.4017 -0.9961
   74SLPC  H12Y 6633   1.773   4.637   8.828  2.0926  0.0621  1.6101
   74SLPC  C313 6634   1.828   4.841   8.867  0.4200  0.4096  0.4378
   74SLPC  H13X 6635   1.934   4.818   8.841 -0.1026 -1.3744 -0.2423
   74SLPC  H13Y 6636   1.828   4.899   8.962  1.4645  1.7392 -0.3304
   74SLPC  C314 6637   1.781   4.933   8.749 -0.5294 -0.3827 -0.1269
   74SLPC  H14X 6638   1.846   5.023   8.741  2.4040 -2.4292 -1.1501
   74SLPC  H14Y 6639   1.681   4.975   8.773 -0.7243  0.1584 -1.7530
   74SLPC  C315 6640   1.774   4.865   8.609  0.6833  0.3938 -0.6641
   74SLPC  H15X 6641   1.734   4.763   8.622  1.2503  0.2812  0.2376
   74SLPC  H15Y 6642   1.878   4.858   8.569  0.3040 -0.8115 -1.5152
   74SLPC  C316 6643   1.690   4.946   8.512  0.7022 -0.6620  0.1238
   74SLPC  H16X 6644   1.724   5.052   8.507 -0.7437  0.0415  3.0012
   74SLPC  H16Y 6645   1.593   4.945   8.567  0.6485 -2.9345  0.0685
   74SLPC  C317 6646   1.670   4.896   8.375  0.0990 -0.1536  0.3750
   74SLPC  H17X 6647   1.619   4.799   8.394 -1.0313  0.2382 -0.5205
   74SLPC  H17Y 6648   1.770   4.872   8.333 -0.3390  0.4752 -1.0958
   74SLPC  C318 6649   1.586   4.989   8.276  0.0985  0.1143  0.6098
   74SLPC  H18X 6650   1.566   4.936   8.180  2.8506  0.1576 -0.0763
   74SLPC  H18Y 6651   1.648   5.079   8.253 -1.7300  1.6432  1.3256
   74SLPC  H18Z 6652   1.494   5.031   8.322  1.4292  3.3002  0.6378
   75SLPC     N 6653   6.694   4.704   6.363 -0.1267  0.7474  0.6518
   75SLPC   C13 6654   6.552   4.661   6.344 -0.4258 -0.7399 -0.2710
   75SLPC  H13A 6655   6.526   4.578   6.408  1.2889  1.0292  3.0326
   75SLPC  H13B 6656   6.486   4.744   6.366  0.2351  0.2358 -1.8083
   75SLPC  H13C 6657   6.530   4.632   6.243 -2.1427 -3.0186  0.6515
   75SLPC   C14 6658   6.784   4.586   6.346 -0.1386 -0.6461  0.1573
   75SLPC  H14A 6659   6.762   4.539   6.252 -2.6205  0.7069 -0.0033
   75SLPC  H14B 6660   6.886   4.620   6.358  0.0429 -1.7240  2.1593
   75SLPC  H14C 6661   6.765   4.512   6.422 -1.6146 -0.7185 -0.2545
   75SLPC   C15 6662   6.729   4.759   6.501  0.4472  0.1787 -0.0315
   75SLPC  H15A 6663   6.833   4.780   6.521  0.3318 -1.4280  2.5750
   75SLPC  H15B 6664   6.672   4.848   6.526 -1.5909 -1.4080  1.2432
   75SLPC  H15C 6665   6.693   4.688   6.573 -1.5639  2.2894  1.1990
   75SLPC   C12 6666   6.738   4.809   6.261  0.5531 -0.2669  0.1147
   75SLPC  H12A 6667   6.711   4.785   6.159  0.1910  1.3867 -0.1992
   75SLPC  H12B 6668   6.845   4.822   6.255  0.7690 -1.4528  0.9558
   75SLPC   C11 6669   6.668   4.949   6.279  0.9519 -0.0347  0.1199
   75SLPC  H11A 6670   6.639   4.960   6.386 -0.0525  1.1490 -0.2438
   75SLPC  H11B 6671   6.571   4.945   6.224 -0.0674  1.0216  1.7788
   75SLPC     P 6672   6.719   5.184   6.185 -0.0524 -0.0808 -0.6010
   75SLPC   O13 6673   6.830   5.258   6.126 -0.1037 -0.2388  0.0875
   75SLPC   O14 6674   6.581   5.188   6.127  0.1612  0.0042  0.1322
   75SLPC   O12 6675   6.761   5.037   6.224 -0.3375  0.9193 -0.1728
   75SLPC   O11 6676   6.697   5.259   6.327 -0.3832  0.1427 -0.1682
   75SLPC    C1 6677   6.807   5.267   6.419  0.1554  1.1249  0.0866
   75SLPC    HA 6678   6.838   5.165   6.451  0.7591  1.3611  0.2695
   75SLPC    HB 6679   6.900   5.306   6.371  1.4829  0.7427  2.2268
   75SLPC    C2 6680   6.772   5.362   6.543  0.5062 -0.1189 -0.1554
   75SLPC    HS 6681   6.860   5.412   6.590 -0.2868  0.7519  0.4364
   75SLPC   O21 6682   6.698   5.288   6.645  0.2062  0.4862 -0.2804
   75SLPC   C21 6683   6.755   5.282   6.759  0.6585  0.4792 -0.5237
   75SLPC   O22 6684   6.852   5.342   6.788  0.1379 -0.1558 -0.8309
   75SLPC   C22 6685   6.669   5.207   6.855 -0.1979  0.8090 -0.1320
   75SLPC   H2R 6686   6.568   5.254   6.856 -0.7506 -0.3600  0.9964
   75SLPC   H2S 6687   6.657   5.102   6.820 -0.5895  0.3606  1.2884
   75SLPC    C3 6688   6.692   5.489   6.506  0.3163  0.5296  0.0019
   75SLPC    HX 6689   6.605   5.446   6.451 -0.7576  0.3329  1.7534
   75SLPC    HY 6690   6.738   5.547   6.423 -0.0993 -0.7732 -1.1611
   75SLPC   O31 6691   6.653   5.571   6.616  0.3631  0.0725  0.1571
   75SLPC   C31 6692   6.740   5.645   6.679  0.3261  0.5409  0.6419
   75SLPC   O32 6693   6.860   5.645   6.654 -0.2584  0.1448  0.0404
   75SLPC   C32 6694   6.677   5.741   6.777 -0.7969 -0.1723 -0.7364
   75SLPC   H2X 6695   6.569   5.748   6.755 -1.1386 -3.1283 -0.3818
   75SLPC   H2Y 6696   6.723   5.841   6.757  1.6542 -1.3485 -1.4665
   75SLPC   C23 6697   6.732   5.211   6.998  0.3522  0.1901  0.4232
   75SLPC   H3R 6698   6.731   5.314   7.038 -0.4499  0.6297 -0.6855
   75SLPC   H3S 6699   6.832   5.163   6.998  0.3530  0.1199 -1.9058
   75SLPC   C24 6700   6.631   5.157   7.093  0.2665  0.3595 -0.3484
   75SLPC   H4R 6701   6.607   5.049   7.085  0.3049  0.2073  1.3357
   75SLPC   H4S 6702   6.537   5.214   7.081  0.2561  1.1068  2.5724
   75SLPC   C25 6703   6.669   5.176   7.238 -0.2391  0.0135 -0.4084
   75SLPC   H5R 6704   6.713   5.278   7.247 -1.0284  0.3763 -0.5720
   75SLPC   H5S 6705   6.741   5.100   7.275 -1.0036 -0.2343  0.6168
   75SLPC   C26 6706   6.550   5.181   7.340  0.4207 -0.2986 -0.0746
   75SLPC   H6R 6707   6.592   5.187   7.443 -1.5062  0.6161  0.7269
   75SLPC   H6S 6708   6.504   5.080   7.333  3.0957 -1.5020 -1.8682
   75SLPC   C27 6709   6.436   5.287   7.328  0.6012 -0.7926 -0.0840
   75SLPC   H7R 6710   6.402   5.287   7.222  2.2705 -1.4332 -0.6544
   75SLPC   H7S 6711   6.480   5.387   7.345  0.8033 -0.7772 -0.6688
   75SLPC   C28 6712   6.322   5.257   7.425 -0.4556 -0.1515 -0.1571
   75SLPC   H8R 6713   6.363   5.252   7.528  2.1133 -0.0007 -1.1016
   75SLPC   H8S 6714   6.305   5.153   7.392 -0.7448  0.2738 -1.3898
   75SLPC   C29 6715   6.202   5.351   7.408 -0.2701 -0.4017 -0.5965
   75SLPC   H9R 6716   6.174   5.366   7.303 -0.9542  0.9617 -0.2455
   75SLPC  C210 6717   6.134   5.405   7.504  0.2667  0.6001  0.0011
   75SLPC  H10R 6718   6.042   5.465   7.490  0.6467  1.5904  1.4902
   75SLPC  C211 6719   6.154   5.378   7.654  0.1495 -0.2297  0.3926
   75SLPC  H11R 6720   6.239   5.445   7.679 -0.8247  0.2116  2.7332
   75SLPC  H11S 6721   6.174   5.271   7.673 -0.0518 -0.4075 -0.3656
   75SLPC  C212 6722   6.033   5.429   7.743  0.1746  0.6837  0.1755
   75SLPC  H12R 6723   5.983   5.520   7.707  0.3557  0.4516 -0.6926
   75SLPC  C213 6724   5.981   5.371   7.852  0.2975 -0.7825  0.2540
   75SLPC  H13R 6725   5.889   5.417   7.891  0.4908 -0.0973 -0.0793
   75SLPC  C214 6726   6.024   5.245   7.915  0.6030 -0.4166  0.3216
   75SLPC  H14R 6727   6.114   5.203   7.865 -0.2004  0.4437 -1.9738
   75SLPC  H14S 6728   5.948   5.167   7.892  0.4981  0.5796 -3.2731
   75SLPC  C215 6729   6.050   5.251   8.065  0.3279  0.7615 -0.2399
   75SLPC  H15R 6730   6.072   5.148   8.100  1.5784  1.3280  0.7192
   75SLPC  H15S 6731   5.954   5.281   8.113  0.5402 -3.0146  3.1311
   75SLPC  C216 6732   6.148   5.356   8.118 -0.1307 -0.0114  0.0700
   75SLPC  H16R 6733   6.130   5.456   8.072 -0.3557  0.0923  0.3807
   75SLPC  H16S 6734   6.248   5.320   8.085 -0.3412  1.2361 -2.1017
   75SLPC  C217 6735   6.142   5.356   8.273 -0.2018  0.2853  0.1398
   75SLPC  H17R 6736   6.034   5.362   8.300 -0.1948  0.1821  0.1926
   75SLPC  H17S 6737   6.186   5.449   8.315 -1.0295  2.4320 -3.2926
   75SLPC  C218 6738   6.215   5.233   8.332 -0.4339  0.4831 -0.1265
   75SLPC  H18R 6739   6.245   5.239   8.439 -1.6961  0.2777  0.2561
   75SLPC  H18S 6740   6.318   5.231   8.291 -0.2295 -1.1679  0.3926
   75SLPC  H18T 6741   6.165   5.137   8.307  0.7002  0.3723 -2.1935
   75SLPC   C33 6742   6.695   5.697   6.923  0.1524  0.5857 -0.1198
   75SLPC   H3X 6743   6.638   5.606   6.952  0.8251  0.8929  2.4682
   75SLPC   H3Y 6744   6.804   5.677   6.933  0.7632  2.9736 -1.1705
   75SLPC   C34 6745   6.657   5.791   7.031  0.6813 -0.6330 -0.8531
   75SLPC   H4X 6746   6.552   5.822   7.012 -0.5100 -2.9249  1.3577
   75SLPC   H4Y 6747   6.714   5.885   7.016  0.4824 -0.5360 -1.0043
   75SLPC   C35 6748   6.662   5.736   7.178  0.0812  0.4155 -0.1410
   75SLPC   H5X 6749   6.586   5.655   7.185  0.5324 -0.1109 -1.1020
   75SLPC   H5Y 6750   6.628   5.818   7.245 -1.0262 -0.1842  0.0494
   75SLPC   C36 6751   6.798   5.690   7.225 -0.6285 -0.8491 -0.0616
   75SLPC   H6X 6752   6.879   5.763   7.207  0.2313 -1.2360  1.9131
   75SLPC   H6Y 6753   6.832   5.601   7.167  0.1794 -0.4194 -0.2503
   75SLPC   C37 6754   6.801   5.685   7.378 -0.0974  0.2970 -0.2394
   75SLPC   H7X 6755   6.774   5.777   7.434 -1.6225  1.4739 -2.7425
   75SLPC   H7Y 6756   6.904   5.662   7.413  0.4315  1.3723 -1.0451
   75SLPC   C38 6757   6.712   5.567   7.423  0.3403 -0.4085 -1.5425
   75SLPC   H8X 6758   6.725   5.469   7.371  1.3058 -0.8339 -0.5609
   75SLPC   H8Y 6759   6.606   5.592   7.401 -0.3841 -1.9429 -0.0704
   75SLPC   C39 6760   6.706   5.558   7.579  0.5627 -0.6990 -0.5900
   75SLPC   H9X 6761   6.669   5.657   7.611  0.9661  0.1166 -2.5202
   75SLPC   H9Y 6762   6.813   5.551   7.608  0.1313 -1.6864  0.8680
   75SLPC  C310 6763   6.638   5.435   7.640  0.1223  0.0315  0.7550
   75SLPC  H10X 6764   6.677   5.346   7.586  0.2506 -0.7602  2.0994
   75SLPC  H10Y 6765   6.529   5.438   7.624  0.2248 -0.5628 -0.1146
   75SLPC  C311 6766   6.648   5.423   7.797  0.8558  0.0761  0.1286
   75SLPC  H11X 6767   6.633   5.523   7.843 -0.2127  1.1666 -2.4062
   75SLPC  H11Y 6768   6.753   5.397   7.825  0.3617  0.0216  2.0411
   75SLPC  C312 6769   6.540   5.328   7.858 -0.2761 -0.1132  0.1350
   75SLPC  H12X 6770   6.568   5.228   7.819  0.3533  0.8088 -1.8908
   75SLPC  H12Y 6771   6.435   5.352   7.831 -0.9488  1.1518  3.4157
   75SLPC  C313 6772   6.533   5.309   8.013  0.6377  0.0569  0.2871
   75SLPC  H13X 6773   6.444   5.248   8.041  1.8464 -1.3743  1.2285
   75SLPC  H13Y 6774   6.512   5.410   8.055  1.7861  1.8643 -3.1855
   75SLPC  C314 6775   6.658   5.257   8.067  0.8962  0.8006  0.5311
   75SLPC  H14X 6776   6.743   5.319   8.032 -0.1122  1.6063 -0.5495
   75SLPC  H14Y 6777   6.670   5.149   8.041  1.6101  0.8088  0.8000
   75SLPC  C315 6778   6.666   5.256   8.218 -0.2787  0.1568  0.4325
   75SLPC  H15X 6779   6.576   5.219   8.271 -0.0169 -1.2069 -0.0336
   75SLPC  H15Y 6780   6.677   5.361   8.255  0.6903  1.1439 -2.3986
   75SLPC  C316 6781   6.787   5.168   8.256  0.2045  0.3701  0.6556
   75SLPC  H16X 6782   6.870   5.183   8.184  2.2202 -3.9446  1.7822
   75SLPC  H16Y 6783   6.768   5.059   8.246 -0.9967  0.4395  1.8087
   75SLPC  C317 6784   6.842   5.201   8.394  0.2399  0.6116 -0.7598
   75SLPC  H17X 6785   6.906   5.116   8.427 -0.2397 -0.3236 -2.1649
   75SLPC  H17Y 6786   6.753   5.193   8.460  0.9496  1.3759  0.3287
   75SLPC  C318 6787   6.914   5.336   8.415  0.1706  0.1441 -0.2103
   75SLPC  H18X 6788   6.970   5.344   8.510 -1.4335  0.8998  0.7130
   75SLPC  H18Y 6789   6.848   5.422   8.392  0.0346 -0.2682 -1.4819
   75SLPC  H18Z 6790   6.999   5.348   8.344 -0.2625  3.2093 -0.3254
   76SLPC     N 6791   2.821   4.919   5.922  0.0298  0.4180  0.2482
   76SLPC   C13 6792   2.711   4.991   5.993 -0.3313  0.5729 -0.2277
   76SLPC  H13A 6793   2.628   5.004   5.925 -0.4863  1.1717  0.0677
   76SLPC  H13B 6794   2.668   4.936   6.075  0.6744  0.1597  0.0397
   76SLPC  H13C 6795   2.754   5.081   6.034 -1.3649  0.0352  2.2336
   76SLPC   C14 6796   2.931   4.872   6.009 -0.6511  0.0411 -0.0552
   76SLPC  H14A 6797   2.897   4.790   6.071  0.2709 -0.5527 -0.3113
   76SLPC  H14B 6798   3.013   4.830   5.952 -2.9731  0.1120 -3.8146
   76SLPC  H14C 6799   2.965   4.947   6.079 -0.4319 -0.3445  0.2541
   76SLPC   C15 6800   2.878   5.010   5.823 -0.0831 -0.2453 -0.4793
   76SLPC  H15A 6801   2.799   5.030   5.751  1.3373  0.5282 -1.8773
   76SLPC  H15B 6802   2.910   5.104   5.864  0.5454 -0.3255 -0.7688
   76SLPC  H15C 6803   2.951   4.967   5.757  1.2015  1.4788 -0.2424
   76SLPC   C12 6804   2.746   4.794   5.863  0.2114  0.7251  0.1881
   76SLPC  H12A 6805   2.739   4.721   5.942  0.1684  0.3003 -0.2074
   76SLPC  H12B 6806   2.816   4.754   5.792  0.2398 -0.3680  0.8047
   76SLPC   C11 6807   2.612   4.797   5.789 -0.3296  0.5009  0.0082
   76SLPC  H11A 6808   2.602   4.697   5.743  1.3307  1.3144 -2.3184
   76SLPC  H11B 6809   2.618   4.866   5.702 -1.8841  0.3724 -0.2361
   76SLPC     P 6810   2.374   4.745   5.893  0.2653 -0.0086 -0.1017
   76SLPC   O13 6811   2.265   4.792   5.802  0.4050  0.0058 -0.1769
   76SLPC   O14 6812   2.409   4.602   5.875  0.8004  0.0789  0.0106
   76SLPC   O12 6813   2.500   4.835   5.870  0.1040  0.8912 -0.0778
   76SLPC   O11 6814   2.331   4.774   6.040 -0.0890 -0.3134 -0.2150
   76SLPC    C1 6815   2.263   4.897   6.067  0.6385 -0.7140  0.0300
   76SLPC    HA 6816   2.312   4.990   6.030  3.5969 -2.2946 -0.3298
   76SLPC    HB 6817   2.166   4.898   6.013  1.9188  2.0627 -2.5276
   76SLPC    C2 6818   2.218   4.907   6.214  0.0360  0.8214  0.7931
   76SLPC    HS 6819   2.174   5.008   6.229 -1.8950 -0.0615  1.3667
   76SLPC   O21 6820   2.333   4.878   6.297  0.0497 -0.2165 -0.2277
   76SLPC   C21 6821   2.438   4.948   6.301  0.6344 -0.0423 -0.5711
   76SLPC   O22 6822   2.476   5.030   6.222 -0.1572  0.6542 -0.1469
   76SLPC   C22 6823   2.512   4.911   6.426 -0.1306 -0.3259 -0.0251
   76SLPC   H2R 6824   2.595   4.840   6.404 -0.3047 -0.2063 -1.1183
   76SLPC   H2S 6825   2.561   5.004   6.462 -0.6390 -0.9322  2.4457
   76SLPC    C3 6826   2.112   4.797   6.253 -0.4308  0.5710  0.4262
   76SLPC    HX 6827   2.165   4.701   6.235 -1.2017 -0.0535  1.3461
   76SLPC    HY 6828   2.033   4.805   6.175  1.4194  0.8991 -1.4807
   76SLPC   O31 6829   2.044   4.799   6.383 -0.2225 -0.1443  0.6896
   76SLPC   C31 6830   2.094   4.721   6.474  0.1913  0.6590 -0.1103
   76SLPC   O32 6831   2.189   4.644   6.455  0.2529  0.6002 -0.0878
   76SLPC   C32 6832   2.032   4.748   6.602 -1.1268  0.8916 -0.3982
   76SLPC   H2X 6833   1.931   4.789   6.581  0.0199  3.7841 -0.7091
   76SLPC   H2Y 6834   2.096   4.819   6.659  0.6735 -1.0756  0.1481
   76SLPC   C23 6835   2.425   4.882   6.551  0.2459  0.2976  0.1102
   76SLPC   H3R 6836   2.355   4.796   6.540  0.3385  0.2838 -0.4002
   76SLPC   H3S 6837   2.366   4.974   6.572  0.9787  0.4838  1.4984
   76SLPC   C24 6838   2.511   4.850   6.675  0.3550 -0.7146  0.0887
   76SLPC   H4R 6839   2.571   4.941   6.697  0.8746 -0.9559 -0.2975
   76SLPC   H4S 6840   2.577   4.767   6.640  1.9580  1.2182 -1.8300
   76SLPC   C25 6841   2.428   4.813   6.799  0.2530  0.6086 -0.3977
   76SLPC   H5R 6842   2.338   4.756   6.765  0.0363  1.4092 -1.1851
   76SLPC   H5S 6843   2.389   4.906   6.845 -1.1689  1.2870 -2.8265
   76SLPC   C26 6844   2.514   4.741   6.911 -0.0913 -0.2575  0.9835
   76SLPC   H6R 6845   2.560   4.653   6.862  0.1341  0.1345  0.4838
   76SLPC   H6S 6846   2.442   4.714   6.992 -0.5961 -0.6239  0.4184
   76SLPC   C27 6847   2.629   4.830   6.973 -0.2953  0.1405  0.3220
   76SLPC   H7R 6848   2.564   4.913   7.005 -0.9762 -0.6097  0.9178
   76SLPC   H7S 6849   2.688   4.868   6.887 -0.0210 -0.0579  0.4208
   76SLPC   C28 6850   2.696   4.762   7.090 -1.3174  0.3288  0.1129
   76SLPC   H8R 6851   2.609   4.720   7.146 -3.4709  0.6836 -2.7307
   76SLPC   H8S 6852   2.756   4.679   7.050 -0.0020  0.6749  1.2895
   76SLPC   C29 6853   2.788   4.850   7.167  0.0650 -0.3271 -0.2453
   76SLPC   H9R 6854   2.886   4.868   7.120  0.1797 -0.3825 -0.0245
   76SLPC  C210 6855   2.764   4.916   7.283  0.4057 -0.7552 -0.2425
   76SLPC  H10R 6856   2.847   4.974   7.328 -0.5790  1.4686 -1.1305
   76SLPC  C211 6857   2.634   4.917   7.359 -0.0791  0.0715  0.5756
   76SLPC  H11R 6858   2.557   4.859   7.304  1.8047 -0.0205 -2.1162
   76SLPC  H11S 6859   2.589   5.016   7.381  0.5644  0.2181  1.3226
   76SLPC  C212 6860   2.664   4.838   7.487 -0.5057  0.4188  1.0979
   76SLPC  H12R 6861   2.685   4.732   7.466 -2.6654  0.2052 -0.2961
   76SLPC  C213 6862   2.661   4.885   7.609 -0.1328 -1.1240 -0.4303
   76SLPC  H13R 6863   2.677   4.813   7.690  2.1444 -0.5541 -0.3058
   76SLPC  C214 6864   2.622   5.026   7.666 -0.2588 -0.0107 -0.1168
   76SLPC  H14R 6865   2.581   5.084   7.581  0.6925 -1.5014 -1.6728
   76SLPC  H14S 6866   2.718   5.058   7.713  0.1252 -3.2569  1.6263
   76SLPC  C215 6867   2.524   5.018   7.779  0.3200 -0.6307 -0.5146
   76SLPC  H15R 6868   2.564   4.976   7.874  2.0171  2.6445  0.3654
   76SLPC  H15S 6869   2.442   4.952   7.744 -0.8966  0.4577  0.2153
   76SLPC  C216 6870   2.449   5.159   7.808 -0.1817 -0.0755 -0.5666
   76SLPC  H16R 6871   2.389   5.188   7.719 -1.6379  0.1439  0.4507
   76SLPC  H16S 6872   2.527   5.233   7.838 -0.7427 -0.1557  1.2033
   76SLPC  C217 6873   2.328   5.161   7.913  0.0120  0.4770  0.0772
   76SLPC  H17R 6874   2.239   5.102   7.881  1.1017 -0.6978 -0.8875
   76SLPC  H17S 6875   2.299   5.268   7.918  0.8287  0.6667  2.7186
   76SLPC  C218 6876   2.342   5.108   8.061 -1.0720 -0.3660  0.6933
   76SLPC  H18R 6877   2.347   4.997   8.061  0.9292 -0.5442 -3.9113
   76SLPC  H18S 6878   2.250   5.147   8.108 -1.2945 -1.1111  0.8726
   76SLPC  H18T 6879   2.426   5.154   8.118  1.0819 -2.1858 -0.8547
   76SLPC   C33 6880   2.025   4.612   6.668  0.3730 -0.2580 -0.2496
   76SLPC   H3X 6881   2.128   4.572   6.681  0.2399 -1.8791 -3.1686
   76SLPC   H3Y 6882   1.967   4.536   6.611 -1.3192  1.6722 -1.2028
   76SLPC   C34 6883   1.970   4.624   6.817  0.1590  0.6412 -0.2375
   76SLPC   H4X 6884   1.863   4.654   6.811  0.0185  0.0887 -0.5721
   76SLPC   H4Y 6885   2.023   4.701   6.877  0.0324 -0.7747  1.7633
   76SLPC   C35 6886   1.989   4.499   6.911 -0.2806 -0.0084  0.4288
   76SLPC   H5X 6887   2.088   4.450   6.898 -0.0474  0.9918 -2.0721
   76SLPC   H5Y 6888   1.910   4.425   6.885  0.7024  0.0207 -3.2008
   76SLPC   C36 6889   1.999   4.541   7.062  0.3125 -0.1062  0.3012
   76SLPC   H6X 6890   1.998   4.452   7.129  3.3339  0.6462  1.5372
   76SLPC   H6Y 6891   1.908   4.599   7.086  0.4794 -0.1675  1.1111
   76SLPC   C37 6892   2.123   4.621   7.094  0.3605  0.2922  0.6379
   76SLPC   H7X 6893   2.105   4.725   7.058  1.1446 -0.3375 -1.7781
   76SLPC   H7Y 6894   2.213   4.580   7.043 -1.3600 -2.9080 -0.0721
   76SLPC   C38 6895   2.153   4.618   7.245  0.8360 -0.3422  0.1815
   76SLPC   H8X 6896   2.183   4.513   7.268 -0.3065 -1.1615 -1.8452
   76SLPC   H8Y 6897   2.059   4.625   7.304 -0.0081 -2.9413 -0.7330
   76SLPC   C39 6898   2.245   4.731   7.290 -0.6829 -0.2709  0.1338
   76SLPC   H9X 6899   2.208   4.826   7.246  0.6352  0.4360  0.4651
   76SLPC   H9Y 6900   2.348   4.710   7.254  0.6970  0.7598  3.0833
   76SLPC  C310 6901   2.240   4.748   7.445  0.3074 -0.1112  0.5622
   76SLPC  H10X 6902   2.133   4.748   7.475  0.4758 -0.4994  1.1807
   76SLPC  H10Y 6903   2.285   4.848   7.462  1.0474 -0.0971 -1.2306
   76SLPC  C311 6904   2.314   4.646   7.541  0.4117  0.3242  0.2628
   76SLPC  H11X 6905   2.422   4.656   7.514  0.2406  2.1713  0.1105
   76SLPC  H11Y 6906   2.273   4.550   7.504 -0.1780 -0.3999  2.6448
   76SLPC  C312 6907   2.288   4.668   7.684 -0.6791 -0.4918  0.0058
   76SLPC  H12X 6908   2.181   4.673   7.714 -0.5930 -1.2999  0.4801
   76SLPC  H12Y 6909   2.330   4.762   7.724 -1.5324 -0.5083  0.9658
   76SLPC  C313 6910   2.346   4.546   7.768  0.0068  0.9260 -0.1785
   76SLPC  H13X 6911   2.455   4.549   7.748  0.1602  3.0978  0.6721
   76SLPC  H13Y 6912   2.314   4.445   7.733 -1.5932  0.5296  2.1700
   76SLPC  C314 6913   2.332   4.546   7.919  0.2622 -0.1442 -1.1947
   76SLPC  H14X 6914   2.389   4.455   7.946 -1.9774 -1.5346 -0.8562
   76SLPC  H14Y 6915   2.225   4.533   7.944  0.5661 -0.1158  0.1856
   76SLPC  C315 6916   2.404   4.659   8.010  0.5572 -0.0407  1.5243
   76SLPC  H15X 6917   2.362   4.750   7.961 -3.3611 -1.8913  1.0865
   76SLPC  H15Y 6918   2.511   4.655   7.981  0.1203 -0.7853 -0.1043
   76SLPC  C316 6919   2.370   4.647   8.158  0.4081  0.7194 -0.0025
   76SLPC  H16X 6920   2.406   4.549   8.198 -1.4457  1.0498  2.7238
   76SLPC  H16Y 6921   2.261   4.656   8.173  0.3344 -1.8428  1.6853
   76SLPC  C317 6922   2.442   4.754   8.246  0.5386  0.4450  0.0555
   76SLPC  H17X 6923   2.398   4.749   8.348 -1.4733  1.1467 -0.7465
   76SLPC  H17Y 6924   2.412   4.851   8.201 -0.4496  0.9243  1.6723
   76SLPC  C318 6925   2.599   4.752   8.253 -0.3493  0.2461 -0.1191
   76SLPC  H18X 6926   2.638   4.649   8.266  0.2464  0.6445  1.5002
   76SLPC  H18Y 6927   2.643   4.817   8.332  1.6293 -1.3327  0.1461
   76SLPC  H18Z 6928   2.636   4.786   8.154  1.9970  0.6641  0.8550
   77SLPC     N 6929   6.280   1.933   6.116 -0.4841 -0.3840  0.4087
   77SLPC   C13 6930   6.159   1.895   6.036 -0.2250  0.0585  0.0143
   77SLPC  H13A 6931   6.166   1.800   5.985 -1.6294 -0.5809  0.9197
   77SLPC  H13B 6932   6.075   1.880   6.103 -1.5110  2.6538 -0.8770
   77SLPC  H13C 6933   6.142   1.978   5.969  0.5148 -0.3310 -0.6746
   77SLPC   C14 6934   6.397   1.960   6.025  0.7537  0.1911  0.4892
   77SLPC  H14A 6935   6.476   2.008   6.081 -0.7324  2.5650  0.6794
   77SLPC  H14B 6936   6.441   1.873   5.979 -0.7231  1.3963 -3.5693
   77SLPC  H14C 6937   6.359   2.029   5.952 -3.7310 -3.6452 -1.3058
   77SLPC   C15 6938   6.317   1.828   6.209  0.2390  0.2919 -0.3272
   77SLPC  H15A 6939   6.385   1.855   6.288  0.9622 -0.6896 -0.5971
   77SLPC  H15B 6940   6.226   1.794   6.255 -0.8430  0.6341 -2.1049
   77SLPC  H15C 6941   6.364   1.749   6.152 -1.0642 -0.3755 -0.4905
   77SLPC   C12 6942   6.242   2.056   6.201  0.1357 -0.7998  0.2477
   77SLPC  H12A 6943   6.326   2.068   6.268  0.6045 -1.4263 -0.2149
   77SLPC  H12B 6944   6.159   2.022   6.261 -0.0052  0.8890  1.0623
   77SLPC   C11 6945   6.208   2.190   6.142 -0.0665 -0.6891  0.4736
   77SLPC  H11A 6946   6.161   2.257   6.218 -1.6730  0.0073 -1.0717
   77SLPC  H11B 6947   6.125   2.174   6.070 -0.1814  2.6691 -0.3360
   77SLPC     P 6948   6.433   2.327   6.128 -0.2907  0.6071 -0.2259
   77SLPC   O13 6949   6.564   2.287   6.080  0.0978  0.5540 -0.2652
   77SLPC   O14 6950   6.399   2.469   6.123  0.0220 -0.0804 -0.5028
   77SLPC   O12 6951   6.319   2.244   6.061  0.1228  0.1467  0.0856
   77SLPC   O11 6952   6.417   2.287   6.281 -0.0829  0.3938 -0.3725
   77SLPC    C1 6953   6.357   2.385   6.368  0.2396 -0.5191 -0.1730
   77SLPC    HA 6954   6.413   2.481   6.365  0.4206 -0.6479 -1.9729
   77SLPC    HB 6955   6.249   2.402   6.348 -0.2542 -0.9019  1.8445
   77SLPC    C2 6956   6.347   2.330   6.509 -0.2763 -0.1364 -0.3232
   77SLPC    HS 6957   6.275   2.385   6.572  0.4774  0.1338  0.3207
   77SLPC   O21 6958   6.481   2.345   6.567 -0.2700  0.0412 -0.1556
   77SLPC   C21 6959   6.485   2.356   6.695  0.5376 -0.3329 -1.0675
   77SLPC   O22 6960   6.395   2.342   6.779 -0.0064  0.1054  0.3100
   77SLPC   C22 6961   6.627   2.384   6.734 -0.2580  0.6593  0.3041
   77SLPC   H2R 6962   6.681   2.289   6.759  1.8984  2.1090  1.5010
   77SLPC   H2S 6963   6.692   2.417   6.650  1.1476 -0.7725  0.7670
   77SLPC    C3 6964   6.299   2.187   6.518 -0.0371  1.2861 -0.1012
   77SLPC    HX 6965   6.384   2.133   6.472 -1.0425  0.8855 -1.5780
   77SLPC    HY 6966   6.206   2.172   6.459 -0.5578  0.5791  0.8665
   77SLPC   O31 6967   6.279   2.132   6.648 -0.4671  0.4769 -0.2798
   77SLPC   C31 6968   6.160   2.158   6.705  0.1612  0.7257 -0.4975
   77SLPC   O32 6969   6.058   2.205   6.646 -0.0456 -0.1519 -0.8380
   77SLPC   C32 6970   6.166   2.100   6.850  0.3226 -0.0032  0.0264
   77SLPC   H2X 6971   6.187   2.185   6.919 -0.4669  1.2658 -1.2433
   77SLPC   H2Y 6972   6.251   2.029   6.855 -0.1733 -0.5156  1.8795
   77SLPC   C23 6973   6.626   2.468   6.862  0.0240 -0.1811 -0.5764
   77SLPC   H3R 6974   6.554   2.418   6.930  2.1874 -4.2518 -1.0067
   77SLPC   H3S 6975   6.581   2.565   6.830  1.8711  0.6553 -0.7390
   77SLPC   C24 6976   6.765   2.509   6.907  0.4169 -0.2228 -0.4822
   77SLPC   H4R 6977   6.831   2.539   6.823  0.0217  1.6414 -0.1908
   77SLPC   H4S 6978   6.799   2.417   6.958 -1.6197 -0.1354  1.1704
   77SLPC   C25 6979   6.771   2.634   6.995  0.5583  0.1655  0.2236
   77SLPC   H5R 6980   6.725   2.712   6.932  1.6484  0.0074 -0.8067
   77SLPC   H5S 6981   6.874   2.665   7.022  0.6536  1.3751 -1.4249
   77SLPC   C26 6982   6.692   2.622   7.124  0.2066  0.2919  0.0895
   77SLPC   H6R 6983   6.600   2.566   7.100 -0.6551  2.2491 -1.4317
   77SLPC   H6S 6984   6.663   2.722   7.163  4.0881  1.2588  0.9957
   77SLPC   C27 6985   6.764   2.542   7.234 -0.2672 -0.0150  0.4088
   77SLPC   H7R 6986   6.853   2.595   7.276 -0.4862  0.2822  0.4989
   77SLPC   H7S 6987   6.802   2.453   7.180 -1.1405 -0.2193  0.1142
   77SLPC   C28 6988   6.665   2.493   7.343  0.5906 -0.0767  0.0724
   77SLPC   H8R 6989   6.723   2.426   7.410 -0.2126 -0.6856  0.1761
   77SLPC   H8S 6990   6.590   2.423   7.301  1.3228 -0.7385 -0.1701
   77SLPC   C29 6991   6.602   2.609   7.415  0.2210  0.5286  0.2354
   77SLPC   H9R 6992   6.534   2.667   7.351  0.0805 -1.5450 -1.6120
   77SLPC  C210 6993   6.623   2.651   7.544  0.3775 -0.1515  0.4797
   77SLPC  H10R 6994   6.569   2.738   7.583 -1.3199 -0.5876 -0.7502
   77SLPC  C211 6995   6.718   2.578   7.639  0.8064  0.2304 -0.2717
   77SLPC  H11R 6996   6.772   2.658   7.694 -0.4740  1.7818 -1.1826
   77SLPC  H11S 6997   6.787   2.508   7.588 -2.2295 -1.8397 -1.8512
   77SLPC  C212 6998   6.630   2.491   7.724 -0.4839  0.3262 -0.3398
   77SLPC  H12R 6999   6.541   2.446   7.677 -0.6365  1.7690 -1.4983
   77SLPC  C213 7000   6.647   2.469   7.855 -0.0270 -0.9395 -0.0865
   77SLPC  H13R 7001   6.565   2.419   7.908 -0.8655  0.8869  0.4315
   77SLPC  C214 7002   6.768   2.523   7.938 -0.8115 -0.4981  0.0850
   77SLPC  H14R 7003   6.736   2.615   7.990 -0.3863 -0.6835  0.6925
   77SLPC  H14S 7004   6.855   2.552   7.876 -0.6249 -0.7213  0.2379
   77SLPC  C215 7005   6.829   2.416   8.038 -0.1497  0.0968  0.0577
   77SLPC  H15R 7006   6.917   2.465   8.086 -1.2144  0.9323  1.2184
   77SLPC  H15S 7007   6.861   2.325   7.983 -1.3211 -0.6346  0.5428
   77SLPC  C216 7008   6.730   2.380   8.149  0.5055  0.8251  0.0393
   77SLPC  H16R 7009   6.651   2.308   8.118  0.6434  0.1532  1.2026
   77SLPC  H16S 7010   6.673   2.472   8.176 -0.6564 -0.4510  2.2319
   77SLPC  C217 7011   6.797   2.334   8.278 -0.3942 -0.0904 -0.8792
   77SLPC  H17R 7012   6.877   2.264   8.244  0.3970  1.3383 -2.0734
   77SLPC  H17S 7013   6.713   2.274   8.320 -0.0249 -0.0639 -0.0826
   77SLPC  C218 7014   6.844   2.443   8.385  0.4588  0.7741  0.7934
   77SLPC  H18R 7015   6.757   2.495   8.431 -0.9690  1.3627 -2.2957
   77SLPC  H18S 7016   6.907   2.527   8.351 -1.3833  1.8913  0.0379
   77SLPC  H18T 7017   6.899   2.387   8.464 -1.1977 -1.7846  0.2572
   77SLPC   C33 7018   6.033   2.036   6.892 -0.1179 -0.2569 -0.7819
   77SLPC   H3X 7019   5.998   1.946   6.837 -2.8981 -1.1183  2.1095
   77SLPC   H3Y 7020   5.949   2.104   6.868 -1.0728 -1.1362 -0.0513
   77SLPC   C34 7021   6.020   1.996   7.038  0.2337 -0.3066  0.4445
   77SLPC   H4X 7022   5.919   1.954   7.058  0.4346 -1.1099 -0.1627
   77SLPC   H4Y 7023   6.034   2.087   7.099 -1.4911 -1.1594  2.2217
   77SLPC   C35 7024   6.126   1.887   7.082  0.0170  0.0450 -0.0127
   77SLPC   H5X 7025   6.227   1.931   7.071  0.3454 -0.2466  1.5885
   77SLPC   H5Y 7026   6.119   1.796   7.019 -0.1595  0.8358 -1.1866
   77SLPC   C36 7027   6.105   1.852   7.235 -0.0972  0.6495  0.0509
   77SLPC   H6X 7028   6.194   1.793   7.266 -2.3201 -2.0728  1.7737
   77SLPC   H6Y 7029   6.022   1.779   7.241 -0.6843  1.3818  1.2065
   77SLPC   C37 7030   6.089   1.961   7.340 -0.0617 -1.0570 -0.4844
   77SLPC   H7X 7031   5.989   2.006   7.321 -0.1090 -0.9732 -0.0398
   77SLPC   H7Y 7032   6.172   2.033   7.322 -0.8239  0.1389  0.5837
   77SLPC   C38 7033   6.094   1.922   7.487  0.3339  0.5400  0.3670
   77SLPC   H8X 7034   6.195   1.886   7.518  0.1290  0.3691  0.8410
   77SLPC   H8Y 7035   6.028   1.834   7.500 -0.0362  0.8628  0.6942
   77SLPC   C39 7036   6.040   2.028   7.582 -0.0627 -0.8160  0.0589
   77SLPC   H9X 7037   5.935   2.040   7.546 -0.3867 -0.8023  0.9939
   77SLPC   H9Y 7038   6.089   2.127   7.569 -0.7643 -0.4592  0.0443
   77SLPC  C310 7039   6.030   1.979   7.725 -0.0363 -0.6872 -0.6522
   77SLPC  H10X 7040   6.138   1.977   7.753 -0.0373  0.5548 -0.5316
   77SLPC  H10Y 7041   6.004   1.871   7.722 -1.8125 -0.2654 -1.6148
   77SLPC  C311 7042   5.933   2.042   7.822  0.4759 -0.1513 -0.1408
   77SLPC  H11X 7043   5.833   2.052   7.775  0.4437 -0.3436 -0.1137
   77SLPC  H11Y 7044   5.963   2.144   7.854 -0.3066 -0.3392  1.2697
   77SLPC  C312 7045   5.886   1.952   7.943  0.5023 -0.2010  0.3461
   77SLPC  H12X 7046   5.853   1.854   7.903  1.5561  0.2945 -1.9199
   77SLPC  H12Y 7047   5.805   2.015   7.986  1.8344  1.5580  0.4084
   77SLPC  C313 7048   5.992   1.936   8.052 -0.1925  0.1683  0.1439
   77SLPC  H13X 7049   6.007   2.036   8.098  2.0871 -0.5375  1.0366
   77SLPC  H13Y 7050   6.089   1.911   8.005  0.0713 -0.0506  0.7980
   77SLPC  C314 7051   5.945   1.816   8.148  0.5111 -0.1844  0.0164
   77SLPC  H14X 7052   5.917   1.726   8.090  3.5815 -0.9455 -0.4763
   77SLPC  H14Y 7053   5.855   1.843   8.206  2.0799  0.3527  2.3694
   77SLPC  C315 7054   6.059   1.764   8.235  0.2903 -0.1323  0.1046
   77SLPC  H15X 7055   6.097   1.851   8.294 -1.4126 -0.3941  1.7021
   77SLPC  H15Y 7056   6.143   1.741   8.166 -0.8333  0.5736 -1.5579
   77SLPC  C316 7057   6.022   1.655   8.333 -0.5216  0.1823  0.1873
   77SLPC  H16X 7058   6.040   1.560   8.278  0.9032 -1.6079  3.4264
   77SLPC  H16Y 7059   5.915   1.644   8.362 -0.4866 -0.6280  0.0391
   77SLPC  C317 7060   6.099   1.660   8.468 -0.4297  0.1009 -0.7143
   77SLPC  H17X 7061   6.203   1.697   8.462  0.0486 -0.7182  1.5905
   77SLPC  H17Y 7062   6.087   1.556   8.507  0.7610  0.4808  0.7510
   77SLPC  C318 7063   6.018   1.751   8.560  0.4747 -0.4161  0.4256
   77SLPC  H18X 7064   6.050   1.754   8.666 -1.3480  1.2250  0.9885
   77SLPC  H18Y 7065   5.912   1.720   8.575  0.0878 -0.3953 -1.8117
   77SLPC  H18Z 7066   6.025   1.858   8.533 -1.5044 -0.4012 -0.2274
   78SLPC     N 7067   1.961   4.034   5.864  0.7267 -0.3359  0.2578
   78SLPC   C13 7068   2.108   4.055   5.841 -0.4283 -0.8428 -0.5359
   78SLPC  H13A 7069   2.146   3.967   5.793 -2.0725 -1.1331 -1.3954
   78SLPC  H13B 7070   2.134   4.137   5.776 -2.3826 -0.9187 -1.4893
   78SLPC  H13C 7071   2.154   4.078   5.936 -0.9299 -0.2811 -0.4197
   78SLPC   C14 7072   1.910   4.021   5.729 -0.4271 -0.1074 -0.2112
   78SLPC  H14A 7073   1.922   4.115   5.677  2.9236  0.0489  0.6424
   78SLPC  H14B 7074   1.960   3.945   5.672 -1.7655  0.0976 -1.7574
   78SLPC  H14C 7075   1.805   3.994   5.726 -0.1182 -1.3663 -0.2669
   78SLPC   C15 7076   1.896   4.150   5.930 -0.2392  0.2000  0.1403
   78SLPC  H15A 7077   1.964   4.179   6.008  1.9702 -2.9651 -0.4083
   78SLPC  H15B 7078   1.867   4.234   5.868 -3.3966 -0.9040 -0.0489
   78SLPC  H15C 7079   1.807   4.112   5.978 -0.0363 -2.1772 -1.1870
   78SLPC   C12 7080   1.929   3.908   5.948 -0.1699  0.4143 -0.1361
   78SLPC  H12A 7081   1.960   3.820   5.893 -1.9328  0.2280 -0.9187
   78SLPC  H12B 7082   1.822   3.892   5.944 -0.2412  0.8949 -3.4027
   78SLPC   C11 7083   1.976   3.907   6.095  0.5254  0.6205 -0.3349
   78SLPC  H11A 7084   1.938   3.820   6.153  2.2305 -0.2727 -0.4890
   78SLPC  H11B 7085   1.938   3.997   6.148 -1.9115 -1.5957  1.9835
   78SLPC     P 7086   2.199   3.783   6.092 -0.1387 -0.1207  0.0734
   78SLPC   O13 7087   2.133   3.706   5.983 -0.3846  0.0691  0.4819
   78SLPC   O14 7088   2.340   3.825   6.086 -0.1089 -0.0537  0.0522
   78SLPC   O12 7089   2.116   3.912   6.101  0.7412 -0.3061 -0.0990
   78SLPC   O11 7090   2.160   3.713   6.220 -0.2347  0.1737 -0.1279
   78SLPC    C1 7091   2.211   3.587   6.270 -0.1751 -0.5916 -0.8331
   78SLPC    HA 7092   2.167   3.503   6.212 -3.8455  0.3667  0.2666
   78SLPC    HB 7093   2.320   3.578   6.251  0.9701  1.6797  3.2092
   78SLPC    C2 7094   2.189   3.553   6.427 -0.8376  0.2699  0.7218
   78SLPC    HS 7095   2.202   3.443   6.439 -0.9588  0.1820  0.0926
   78SLPC   O21 7096   2.058   3.605   6.469  0.1205 -0.0464  0.2036
   78SLPC   C21 7097   1.959   3.542   6.418 -0.0990  0.3998 -0.6522
   78SLPC   O22 7098   1.973   3.437   6.352  0.2775 -0.6935  0.1637
   78SLPC   C22 7099   1.825   3.620   6.432 -0.5978 -0.3635  0.0555
   78SLPC   H2R 7100   1.760   3.578   6.353 -3.2591  2.4468  0.5470
   78SLPC   H2S 7101   1.775   3.592   6.528  1.4026 -0.5082  1.0961
   78SLPC    C3 7102   2.291   3.633   6.517  0.5407  0.9911  0.4831
   78SLPC    HX 7103   2.313   3.734   6.477  1.4856  0.8667  0.6666
   78SLPC    HY 7104   2.383   3.571   6.513 -0.1496 -0.0648  0.6187
   78SLPC   O31 7105   2.256   3.639   6.657  0.1377 -0.4109 -0.8963
   78SLPC   C31 7106   2.330   3.709   6.742 -0.5322 -0.4905 -0.3988
   78SLPC   O32 7107   2.419   3.784   6.717 -0.1311 -0.5807 -0.5504
   78SLPC   C32 7108   2.275   3.693   6.883  0.6216 -0.1126  0.0768
   78SLPC   H2X 7109   2.270   3.583   6.899  1.9017 -0.0259  1.2140
   78SLPC   H2Y 7110   2.175   3.741   6.887  1.0808  0.8390  0.2629
   78SLPC   C23 7111   1.842   3.780   6.437  0.3785  0.2089 -0.5992
   78SLPC   H3R 7112   1.748   3.822   6.393 -0.5638 -0.9023  0.3036
   78SLPC   H3S 7113   1.934   3.813   6.383  1.0877 -0.3182  0.2691
   78SLPC   C24 7114   1.835   3.840   6.581  0.2386 -0.2457 -0.1201
   78SLPC   H4R 7115   1.916   3.794   6.641  0.4799 -0.4682 -0.6123
   78SLPC   H4S 7116   1.735   3.814   6.620  0.6056 -3.4892 -1.0524
   78SLPC   C25 7117   1.869   3.993   6.569 -0.1474 -0.1947  0.5361
   78SLPC   H5R 7118   1.779   4.059   6.570  0.0086  0.0587 -0.5058
   78SLPC   H5S 7119   1.932   4.001   6.477 -0.9210 -0.3246 -0.0138
   78SLPC   C26 7120   1.957   4.033   6.689 -0.5662 -0.3397  0.4274
   78SLPC   H6R 7121   2.025   4.119   6.672  0.3790 -0.9807  0.8805
   78SLPC   H6S 7122   2.029   3.950   6.709 -0.6316 -0.8839 -1.4324
   78SLPC   C27 7123   1.878   4.057   6.827  0.0700 -0.6710  0.0162
   78SLPC   H7R 7124   1.810   3.970   6.838 -0.3384 -0.5755 -1.5290
   78SLPC   H7S 7125   1.804   4.138   6.809  0.0380 -0.1666  2.1664
   78SLPC   C28 7126   1.970   4.099   6.943  0.3868 -0.8223  0.0177
   78SLPC   H8R 7127   1.917   4.185   6.988 -0.3907  0.1712 -2.6037
   78SLPC   H8S 7128   2.055   4.147   6.889 -0.1988 -1.5208 -1.5937
   78SLPC   C29 7129   2.019   3.985   7.029  0.1257 -0.8843  0.5727
   78SLPC   H9R 7130   2.079   3.918   6.965  1.5969  1.8686 -1.1288
   78SLPC  C210 7131   2.011   3.977   7.165  1.0671 -0.1637  0.1503
   78SLPC  H10R 7132   2.063   3.894   7.215 -0.7423 -0.0085  2.4993
   78SLPC  C211 7133   1.925   4.064   7.263 -1.1604  0.4542  0.0301
   78SLPC  H11R 7134   1.819   4.047   7.231 -0.9381  1.3438 -1.2543
   78SLPC  H11S 7135   1.954   4.170   7.250 -0.9353  0.4625  0.5722
   78SLPC  C212 7136   1.940   4.015   7.402 -0.1061 -0.3566 -0.1720
   78SLPC  H12R 7137   1.857   3.947   7.425 -0.1736  0.4960  2.3821
   78SLPC  C213 7138   2.013   4.076   7.499  0.4141 -0.6201 -0.3631
   78SLPC  H13R 7139   2.016   4.028   7.597  0.3687 -0.1063 -0.1068
   78SLPC  C214 7140   2.101   4.188   7.470  0.0831 -0.4931  0.5070
   78SLPC  H14R 7141   2.117   4.220   7.365  0.1043 -3.6250 -0.5596
   78SLPC  H14S 7142   2.205   4.154   7.484  0.2640 -0.2888 -0.2986
   78SLPC  C215 7143   2.078   4.309   7.562 -0.2688  0.0211  0.1208
   78SLPC  H15R 7144   2.157   4.380   7.528  1.4130 -2.4576 -1.4796
   78SLPC  H15S 7145   2.098   4.275   7.666 -1.8098 -1.0140  0.1054
   78SLPC  C216 7146   1.935   4.369   7.556  0.5331 -0.7044 -0.1485
   78SLPC  H16R 7147   1.879   4.296   7.618  0.6428  0.4066  1.3262
   78SLPC  H16S 7148   1.899   4.372   7.451  0.8629  1.0802 -0.2450
   78SLPC  C217 7149   1.906   4.495   7.627 -1.2554  0.0707 -0.9466
   78SLPC  H17R 7150   1.804   4.535   7.611 -0.9684  0.3262 -2.3181
   78SLPC  H17S 7151   1.974   4.579   7.601  2.1402 -1.8808  0.8755
   78SLPC  C218 7152   1.923   4.479   7.779  0.2408  0.9249 -0.4378
   78SLPC  H18R 7153   2.032   4.478   7.797  0.4705  2.6945 -1.5598
   78SLPC  H18S 7154   1.887   4.385   7.826  1.7414 -0.0532 -1.1855
   78SLPC  H18T 7155   1.877   4.563   7.836  1.1054 -0.5465  2.6699
   78SLPC   C33 7156   2.360   3.760   6.988 -0.4395  0.0051  0.4356
   78SLPC   H3X 7157   2.345   3.870   6.989  0.1748  0.1094 -0.5354
   78SLPC   H3Y 7158   2.469   3.739   6.981 -0.6806 -1.2829  0.3378
   78SLPC   C34 7159   2.313   3.721   7.124 -0.3063 -0.3219 -0.4576
   78SLPC   H4X 7160   2.337   3.613   7.141 -6.4498 -2.0215 -0.4434
   78SLPC   H4Y 7161   2.202   3.726   7.129 -0.2547  1.2640  3.8719
   78SLPC   C35 7162   2.377   3.813   7.235  0.0440 -0.8314  0.5116
   78SLPC   H5X 7163   2.354   3.919   7.214  0.5565 -1.1311 -1.8707
   78SLPC   H5Y 7164   2.485   3.794   7.254  0.4472  0.5707 -0.2903
   78SLPC   C36 7165   2.302   3.784   7.374 -0.5029 -0.1088  0.5692
   78SLPC   H6X 7166   2.335   3.681   7.402 -0.4704 -0.4421 -0.6431
   78SLPC   H6Y 7167   2.195   3.800   7.349 -0.4326 -0.2845  0.1458
   78SLPC   C37 7168   2.346   3.876   7.482  0.2291 -0.3279  0.0023
   78SLPC   H7X 7169   2.341   3.984   7.456 -1.9480 -0.5243 -0.5738
   78SLPC   H7Y 7170   2.454   3.856   7.500  0.5514  0.7768 -0.5938
   78SLPC   C38 7171   2.274   3.861   7.617  0.2323 -0.1873 -0.2948
   78SLPC   H8X 7172   2.288   3.758   7.657 -1.5846 -0.7407 -0.9506
   78SLPC   H8Y 7173   2.165   3.880   7.608  0.2889 -0.5939 -2.0182
   78SLPC   C39 7174   2.336   3.951   7.727 -0.4237  0.7333  0.1469
   78SLPC   H9X 7175   2.335   4.057   7.695 -0.6472  0.7942  0.3523
   78SLPC   H9Y 7176   2.442   3.919   7.732 -0.4405  0.8252  1.4337
   78SLPC  C310 7177   2.283   3.934   7.871 -0.3737  0.5210  0.2890
   78SLPC  H10X 7178   2.340   3.991   7.947  0.2093 -1.6834  1.5939
   78SLPC  H10Y 7179   2.295   3.827   7.901 -0.7689  0.7792  1.4126
   78SLPC  C311 7180   2.137   3.968   7.886 -0.0752  0.1060 -0.3707
   78SLPC  H11X 7181   2.091   3.868   7.871  0.4679 -0.0558 -0.9655
   78SLPC  H11Y 7182   2.099   4.041   7.812  1.3294  1.6736  0.3799
   78SLPC  C312 7183   2.105   4.012   8.029  0.0380 -0.2341 -0.2151
   78SLPC  H12X 7184   2.161   3.965   8.113  2.1811  2.3639 -0.0560
   78SLPC  H12Y 7185   1.995   3.999   8.035  0.1538 -1.5710 -0.5964
   78SLPC  C313 7186   2.131   4.161   8.048 -0.0731 -0.6335  0.3191
   78SLPC  H13X 7187   2.077   4.221   7.972 -0.5925 -1.8695 -0.3173
   78SLPC  H13Y 7188   2.241   4.171   8.033 -0.7222  1.5761 -4.9684
   78SLPC  C314 7189   2.104   4.215   8.187 -0.3542  0.1871 -0.4223
   78SLPC  H14X 7190   2.092   4.132   8.260  1.1986  0.1977 -0.1360
   78SLPC  H14Y 7191   2.002   4.259   8.180  0.0686  1.0850 -1.4089
   78SLPC  C315 7192   2.199   4.324   8.229  0.5606 -0.1338  0.2553
   78SLPC  H15X 7193   2.201   4.417   8.169 -0.5903 -0.2302  0.0390
   78SLPC  H15Y 7194   2.302   4.283   8.222  0.3714 -1.1728  2.6730
   78SLPC  C316 7195   2.171   4.373   8.375 -0.4560 -0.0991  0.8672
   78SLPC  H16X 7196   2.259   4.428   8.415 -0.0052  0.2799 -0.5845
   78SLPC  H16Y 7197   2.152   4.286   8.441 -2.7791 -0.2835  0.0443
   78SLPC  C317 7198   2.038   4.459   8.383  0.3370  0.0055  0.3135
   78SLPC  H17X 7199   1.953   4.388   8.391  0.0946  0.2991  0.4000
   78SLPC  H17Y 7200   2.035   4.517   8.288  0.1936  1.2482  1.0501
   78SLPC  C318 7201   2.039   4.554   8.502 -0.6384  0.2698  0.1843
   78SLPC  H18X 7202   2.125   4.624   8.489  2.2816 -3.1667 -0.8315
   78SLPC  H18Y 7203   2.061   4.505   8.600  1.4515  1.3947  0.3391
   78SLPC  H18Z 7204   1.941   4.600   8.527  0.0950  0.9366  2.0572
   79SLPC     N 7205   5.619   6.195   6.001 -0.0819 -0.3650  0.4745
   79SLPC   C13 7206   5.611   6.167   5.853  0.2437 -0.5259 -0.2477
   79SLPC  H13A 7207   5.521   6.118   5.817  1.4674 -1.6423 -1.9761
   79SLPC  H13B 7208   5.623   6.253   5.789 -2.9027 -1.9020 -3.0722
   79SLPC  H13C 7209   5.697   6.106   5.829  1.2899  0.4405  0.9306
   79SLPC   C14 7210   5.726   6.295   6.031 -0.6210 -0.2086  0.8638
   79SLPC  H14A 7211   5.711   6.391   5.985  2.9328  0.6586  1.2462
   79SLPC  H14B 7212   5.722   6.316   6.137 -0.6960  1.1738  0.5993
   79SLPC  H14C 7213   5.822   6.255   6.002 -0.7859 -1.6982  2.2385
   79SLPC   C15 7214   5.659   6.069   6.073 -0.1081 -0.1867 -0.2850
   79SLPC  H15A 7215   5.675   6.085   6.179 -1.5317 -0.2243 -0.0413
   79SLPC  H15B 7216   5.573   6.004   6.068 -0.9511  0.8740  0.0228
   79SLPC  H15C 7217   5.746   6.020   6.032  1.6454  0.3066  2.5614
   79SLPC   C12 7218   5.480   6.248   6.045 -0.0762  0.0414 -0.2648
   79SLPC  H12A 7219   5.402   6.189   5.998  0.8559 -0.0342 -1.7868
   79SLPC  H12B 7220   5.454   6.349   6.018 -0.9384  1.2008  4.1956
   79SLPC   C11 7221   5.444   6.231   6.198  0.5011 -0.0186 -0.2211
   79SLPC  H11A 7222   5.438   6.123   6.221  3.2981 -0.0952  0.4930
   79SLPC  H11B 7223   5.343   6.274   6.214 -0.5233 -1.7944 -1.5843
   79SLPC     P 7224   5.527   6.451   6.313 -0.0314  0.4121 -0.0367
   79SLPC   O13 7225   5.636   6.492   6.400 -0.3239  0.1909 -0.1221
   79SLPC   O14 7226   5.515   6.534   6.186  0.3272  0.0636 -0.1234
   79SLPC   O12 7227   5.544   6.301   6.268 -0.0517  0.2683 -0.1482
   79SLPC   O11 7228   5.385   6.457   6.385 -0.2234 -0.5279 -0.3229
   79SLPC    C1 7229   5.346   6.364   6.482  0.3903  0.5353 -0.0396
   79SLPC    HA 7230   5.238   6.377   6.505 -0.1568 -1.6151 -1.1279
   79SLPC    HB 7231   5.351   6.261   6.442  0.4261  0.9095 -1.0318
   79SLPC    C2 7232   5.409   6.383   6.628 -0.3512 -0.6219 -0.4163
   79SLPC    HS 7233   5.388   6.491   6.645  0.9218 -0.3613 -0.3684
   79SLPC   O21 7234   5.550   6.353   6.633 -0.0495  0.0915 -0.2608
   79SLPC   C21 7235   5.626   6.435   6.701 -0.1268  0.1443 -0.4583
   79SLPC   O22 7236   5.593   6.541   6.747  0.2771  0.0420  0.5593
   79SLPC   C22 7237   5.768   6.382   6.705 -0.3479  0.5859 -0.0467
   79SLPC   H2R 7238   5.805   6.377   6.600  0.2254  1.3374  0.1083
   79SLPC   H2S 7239   5.833   6.461   6.748  0.8585  0.3235 -1.3027
   79SLPC    C3 7240   5.343   6.303   6.739 -0.1258  0.4707  0.8063
   79SLPC    HX 7241   5.374   6.197   6.738  2.0392  1.0420 -0.3792
   79SLPC    HY 7242   5.233   6.303   6.728 -0.2007 -2.5395  0.8871
   79SLPC   O31 7243   5.393   6.359   6.866 -0.4371 -0.2535 -0.1366
   79SLPC   C31 7244   5.325   6.458   6.917 -0.4847  0.2267 -0.1598
   79SLPC   O32 7245   5.232   6.514   6.870  0.5675 -0.5302 -0.1505
   79SLPC   C32 7246   5.380   6.474   7.058 -0.4505  0.1586 -0.1987
   79SLPC   H2X 7247   5.396   6.378   7.110 -0.0548 -1.2303 -2.7085
   79SLPC   H2Y 7248   5.303   6.528   7.117 -0.6624  0.1204 -0.4399
   79SLPC   C23 7249   5.774   6.248   6.785  0.3310 -0.3006  0.0064
   79SLPC   H3R 7250   5.754   6.156   6.726  2.4668 -1.5472  1.1172
   79SLPC   H3S 7251   5.699   6.252   6.867  0.9448 -1.0451  0.6169
   79SLPC   C24 7252   5.917   6.229   6.837  0.4855  0.3336 -0.3181
   79SLPC   H4R 7253   5.988   6.266   6.760 -0.7501  1.8250 -0.8097
   79SLPC   H4S 7254   5.945   6.124   6.859  1.2430 -0.6478 -4.8970
   79SLPC   C25 7255   5.948   6.317   6.956 -0.3274 -1.2664 -0.4707
   79SLPC   H5R 7256   5.865   6.387   6.980  1.2977  0.2225  1.1574
   79SLPC   H5S 7257   6.037   6.381   6.940 -0.5367 -0.6233  0.8075
   79SLPC   C26 7258   5.983   6.226   7.080  0.5361 -0.2712  0.1815
   79SLPC   H6R 7259   6.087   6.186   7.071  0.1466 -1.4407  0.6617
   79SLPC   H6S 7260   5.917   6.137   7.080 -1.0698  0.8581  1.6511
   79SLPC   C27 7261   5.960   6.300   7.213 -0.6481 -0.2494  0.0911
   79SLPC   H7R 7262   5.862   6.351   7.200  0.1268  1.3564  0.3323
   79SLPC   H7S 7263   6.036   6.381   7.215 -0.5639 -0.3396  0.7681
   79SLPC   C28 7264   5.963   6.217   7.336  0.5527 -0.1494 -0.0940
   79SLPC   H8R 7265   6.068   6.181   7.341  0.8337  0.8026  2.0463
   79SLPC   H8S 7266   5.894   6.131   7.324  0.7573 -0.7848  2.6739
   79SLPC   C29 7267   5.944   6.307   7.454  0.2969 -0.0707 -0.3142
   79SLPC   H9R 7268   5.928   6.412   7.425 -1.6802 -0.0619  0.6239
   79SLPC  C210 7269   5.970   6.272   7.581 -0.4435  0.7421 -0.4322
   79SLPC  H10R 7270   5.959   6.347   7.661 -0.6171  1.1768 -0.8570
   79SLPC  C211 7271   6.023   6.139   7.630 -0.2751  0.2492  0.5875
   79SLPC  H11R 7272   6.080   6.087   7.550  0.1397 -0.6778  1.4595
   79SLPC  H11S 7273   5.928   6.082   7.641 -0.5634  0.8110  1.0629
   79SLPC  C212 7274   6.100   6.144   7.761  0.0279  0.0094 -0.3905
   79SLPC  H12R 7275   6.204   6.174   7.741 -0.0488 -0.6348 -1.9359
   79SLPC  C213 7276   6.052   6.108   7.883 -0.1704 -0.7995 -0.2166
   79SLPC  H13R 7277   6.108   6.131   7.975  0.6362 -0.2890 -0.8239
   79SLPC  C214 7278   5.911   6.066   7.915 -0.1112  0.1896 -1.1224
   79SLPC  H14R 7279   5.854   6.028   7.828  1.2695 -1.5002 -1.3417
   79SLPC  H14S 7280   5.866   6.159   7.955  2.0232  1.1178 -0.7074
   79SLPC  C215 7281   5.908   5.956   8.022 -0.6912 -0.2176  0.5584
   79SLPC  H15R 7282   5.817   5.971   8.084  0.0861 -0.0827  1.7062
   79SLPC  H15S 7283   5.996   5.950   8.089 -1.0532  1.5613  1.2482
   79SLPC  C216 7284   5.887   5.808   7.968  0.0045  0.4435  0.1714
   79SLPC  H16R 7285   5.963   5.789   7.890  0.4340  0.7181  0.5237
   79SLPC  H16S 7286   5.785   5.798   7.924 -0.6140  0.5668  1.5247
   79SLPC  C217 7287   5.897   5.701   8.082  0.1834 -0.8965 -0.4153
   79SLPC  H17R 7288   5.981   5.727   8.150  2.1968 -0.8024 -2.8000
   79SLPC  H17S 7289   5.906   5.597   8.045 -1.4914 -1.0511 -0.4965
   79SLPC  C218 7290   5.774   5.696   8.172 -0.4666  0.6116 -0.4357
   79SLPC  H18R 7291   5.766   5.792   8.228 -0.9300  0.1609  0.2807
   79SLPC  H18S 7292   5.771   5.610   8.242 -1.0982  2.5202  2.0603
   79SLPC  H18T 7293   5.688   5.699   8.102 -1.1393  0.0381  0.3543
   79SLPC   C33 7294   5.504   6.559   7.055 -0.0953 -0.2654  0.3796
   79SLPC   H3X 7295   5.501   6.650   6.990  1.6039 -1.7367 -1.9137
   79SLPC   H3Y 7296   5.596   6.504   7.027 -0.2789  0.2145 -1.3022
   79SLPC   C34 7297   5.548   6.590   7.197  0.6266  0.3290  0.2190
   79SLPC   H4X 7298   5.648   6.639   7.190  1.2920 -0.6898  2.0304
   79SLPC   H4Y 7299   5.580   6.501   7.255 -0.9700  0.9724  2.1891
   79SLPC   C35 7300   5.453   6.669   7.281 -0.2027 -0.1781  0.3495
   79SLPC   H5X 7301   5.365   6.607   7.308 -1.1547  1.4601  1.1640
   79SLPC   H5Y 7302   5.407   6.757   7.232 -1.4069  0.3365  2.3014
   79SLPC   C36 7303   5.516   6.714   7.417 -0.5480 -0.2584  0.5506
   79SLPC   H6X 7304   5.600   6.781   7.389 -0.6516 -0.9922 -1.7142
   79SLPC   H6Y 7305   5.563   6.632   7.475 -4.0654 -1.4885  1.9342
   79SLPC   C37 7306   5.432   6.785   7.528  0.2964  0.3919  0.4135
   79SLPC   H7X 7307   5.346   6.718   7.550 -1.8209  1.5770 -3.2341
   79SLPC   H7Y 7308   5.380   6.864   7.469 -1.4647  0.6479  2.2042
   79SLPC   C38 7309   5.508   6.838   7.647 -0.4313 -0.4991 -0.1136
   79SLPC   H8X 7310   5.581   6.919   7.621  3.0548 -2.6959  1.9630
   79SLPC   H8Y 7311   5.566   6.754   7.691 -0.3058 -0.8785 -0.9992
   79SLPC   C39 7312   5.415   6.902   7.757 -0.5875 -0.0359 -0.1183
   79SLPC   H9X 7313   5.353   6.981   7.711 -2.6653 -1.5254 -0.0282
   79SLPC   H9Y 7314   5.483   6.960   7.823 -1.2619 -0.1404  0.6890
   79SLPC  C310 7315   5.329   6.800   7.828 -0.1770 -0.4853 -0.0752
   79SLPC  H10X 7316   5.395   6.720   7.868  1.7461  1.5344  1.0123
   79SLPC  H10Y 7317   5.259   6.760   7.752 -0.1220 -1.4087  0.3453
   79SLPC  C311 7318   5.257   6.864   7.951 -0.1733 -0.4201  0.2441
   79SLPC  H11X 7319   5.198   6.784   8.001  0.5532 -0.6730  0.7034
   79SLPC  H11Y 7320   5.185   6.943   7.922 -0.0457  0.4955  2.2800
   79SLPC  C312 7321   5.353   6.926   8.050 -0.6497 -0.1766  0.2782
   79SLPC  H12X 7322   5.363   7.034   8.026  2.3819 -0.8109 -1.8892
   79SLPC  H12Y 7323   5.454   6.886   8.027 -1.2501 -1.3175 -0.4682
   79SLPC  C313 7324   5.317   6.899   8.202  0.1418  0.7096  0.4561
   79SLPC  H13X 7325   5.296   6.793   8.224  1.7324  0.1909 -0.3617
   79SLPC  H13Y 7326   5.225   6.961   8.213 -0.3172 -0.2009  1.8849
   79SLPC  C314 7327   5.417   6.951   8.308  0.4579 -0.3220  1.0287
   79SLPC  H14X 7328   5.368   6.984   8.402 -2.1878 -0.6766 -0.1367
   79SLPC  H14Y 7329   5.471   7.042   8.276  1.4999 -0.3334  2.6262
   79SLPC  C315 7330   5.526   6.846   8.340  0.4828  0.2767  0.2881
   79SLPC  H15X 7331   5.579   6.824   8.245 -1.6915 -0.8290 -0.7096
   79SLPC  H15Y 7332   5.482   6.748   8.370  0.5234 -0.2175 -1.1949
   79SLPC  C316 7333   5.610   6.888   8.460 -0.2611 -0.1358  0.1582
   79SLPC  H16X 7334   5.536   6.895   8.542 -2.7797  0.0195 -1.9697
   79SLPC  H16Y 7335   5.677   6.971   8.429  0.0258 -0.4548 -0.0843
   79SLPC  C317 7336   5.719   6.788   8.508  1.0470  0.0670 -0.2687
   79SLPC  H17X 7337   5.654   6.702   8.533  1.9931 -0.1928  1.4726
   79SLPC  H17Y 7338   5.769   6.823   8.601  0.2894 -0.1891  0.2475
   79SLPC  C318 7339   5.818   6.751   8.400  0.2960 -0.2458 -0.4447
   79SLPC  H18X 7340   5.882   6.840   8.381 -0.9148  1.0197  1.1099
   79SLPC  H18Y 7341   5.761   6.723   8.309  0.1331 -2.2466  0.2340
   79SLPC  H18Z 7342   5.878   6.659   8.420  0.2320 -0.8720 -2.8126
   80SLPC     N 7343   5.630   4.354   6.075 -0.2481  0.4645  0.1413
   80SLPC   C13 7344   5.503   4.286   6.063 -0.5569  1.0406 -0.3996
   80SLPC  H13A 7345   5.432   4.347   6.010  0.0748  1.6260 -0.5923
   80SLPC  H13B 7346   5.506   4.192   6.010  0.4162 -0.2128  1.7357
   80SLPC  H13C 7347   5.457   4.266   6.159 -1.2852  0.4189 -0.8659
   80SLPC   C14 7348   5.624   4.457   5.971  0.4326 -0.8492  0.8847
   80SLPC  H14A 7349   5.717   4.512   5.971  1.7768 -3.0115  0.8592
   80SLPC  H14B 7350   5.629   4.410   5.874 -0.2458  0.3777  0.2328
   80SLPC  H14C 7351   5.539   4.523   5.982  1.3273  0.1364  2.1782
   80SLPC   C15 7352   5.733   4.246   6.047  0.3717  0.2510 -0.0748
   80SLPC  H15A 7353   5.745   4.177   6.130  2.0808 -0.4800 -0.8698
   80SLPC  H15B 7354   5.707   4.205   5.950  1.8318  0.9257 -0.7781
   80SLPC  H15C 7355   5.828   4.288   6.020 -0.8068  1.4925 -2.7201
   80SLPC   C12 7356   5.643   4.429   6.210 -0.4983 -0.1661 -0.1769
   80SLPC  H12A 7357   5.586   4.520   6.204 -0.2424  0.0221  0.2087
   80SLPC  H12B 7358   5.747   4.457   6.215 -0.6920  0.6140 -0.3901
   80SLPC   C11 7359   5.606   4.357   6.350  0.5991  0.0917  0.2678
   80SLPC  H11A 7360   5.497   4.342   6.338  0.6816 -0.0126 -0.3829
   80SLPC  H11B 7361   5.624   4.421   6.439  2.8905  1.1127 -0.8226
   80SLPC     P 7362   5.827   4.236   6.401  0.4000  0.4258 -0.0236
   80SLPC   O13 7363   5.883   4.112   6.344  0.0415 -0.2297  0.2271
   80SLPC   O14 7364   5.886   4.366   6.370  0.0515  0.3551 -0.4244
   80SLPC   O12 7365   5.671   4.229   6.361  0.8049 -0.8940  0.1916
   80SLPC   O11 7366   5.819   4.223   6.560 -0.0940 -0.3039  0.2170
   80SLPC    C1 7367   5.753   4.107   6.619  0.3124  1.2308 -1.0286
   80SLPC    HA 7368   5.653   4.130   6.662  0.4197 -0.8803  0.5077
   80SLPC    HB 7369   5.731   4.027   6.546 -1.5308  0.7506 -0.0289
   80SLPC    C2 7370   5.845   4.036   6.722 -0.1957 -0.2444 -0.4233
   80SLPC    HS 7371   5.806   3.948   6.778 -0.3557 -0.3651 -0.7269
   80SLPC   O21 7372   5.895   4.140   6.820  0.0299 -0.0797 -0.0261
   80SLPC   C21 7373   5.820   4.249   6.857 -0.5447 -0.5493  0.2200
   80SLPC   O22 7374   5.698   4.259   6.847 -0.2151 -0.6058 -1.5231
   80SLPC   C22 7375   5.909   4.360   6.907 -0.6596 -0.4305 -0.5426
   80SLPC   H2R 7376   5.997   4.311   6.954 -1.7768 -0.6515  1.4420
   80SLPC   H2S 7377   5.954   4.416   6.823  0.0377  1.4610  1.0222
   80SLPC    C3 7378   5.972   3.985   6.648 -0.1571  0.9502 -0.0736
   80SLPC    HX 7379   6.025   4.071   6.602  0.9200 -0.4604 -1.6240
   80SLPC    HY 7380   5.931   3.930   6.560 -3.4360  2.2332  0.5124
   80SLPC   O31 7381   6.062   3.906   6.731 -0.1542 -0.1353 -0.0026
   80SLPC   C31 7382   6.042   3.777   6.743  0.6388  0.8600  0.4156
   80SLPC   O32 7383   5.945   3.717   6.698  0.0954 -0.6156  0.6261
   80SLPC   C32 7384   6.159   3.707   6.815  0.1699  0.0102  0.1618
   80SLPC   H2X 7385   6.171   3.760   6.912 -0.6151  1.6722 -0.6061
   80SLPC   H2Y 7386   6.244   3.734   6.749 -0.2394  3.6510  0.8867
   80SLPC   C23 7387   5.845   4.448   7.022 -0.2396  1.2960  0.8656
   80SLPC   H3R 7388   5.754   4.502   6.989 -0.8421 -0.7331 -1.0489
   80SLPC   H3S 7389   5.918   4.529   7.045  1.5199 -0.1990  0.7444
   80SLPC   C24 7390   5.808   4.369   7.154 -0.6284 -0.4032  0.3685
   80SLPC   H4R 7391   5.744   4.282   7.129 -1.6787  0.9036 -1.8606
   80SLPC   H4S 7392   5.739   4.423   7.222  0.3136 -1.9424  2.6621
   80SLPC   C25 7393   5.919   4.323   7.240 -0.7447  0.3702 -0.6088
   80SLPC   H5R 7394   5.993   4.271   7.177 -1.1950  1.3210 -1.9607
   80SLPC   H5S 7395   5.892   4.236   7.303  1.5406 -0.3845 -0.5865
   80SLPC   C26 7396   5.970   4.417   7.348  0.8658  0.1698  0.1833
   80SLPC   H6R 7397   5.881   4.430   7.413 -1.6365  0.4279 -3.0031
   80SLPC   H6S 7398   6.001   4.510   7.295 -1.7561  0.5177 -0.9423
   80SLPC   C27 7399   6.081   4.355   7.436 -0.0339  0.1954 -0.2612
   80SLPC   H7R 7400   6.148   4.299   7.367  0.4171  0.3083  0.0829
   80SLPC   H7S 7401   6.035   4.280   7.504 -1.7397  1.4880  0.0796
   80SLPC   C28 7402   6.159   4.454   7.529  0.2504 -0.3510 -0.5583
   80SLPC   H8R 7403   6.181   4.534   7.455  0.5365 -2.4626 -2.8996
   80SLPC   H8S 7404   6.251   4.399   7.558  2.2100  1.9773 -1.9447
   80SLPC   C29 7405   6.091   4.508   7.660  0.2687 -0.0073  0.1864
   80SLPC   H9R 7406   6.027   4.593   7.630 -2.1941 -1.2404  1.6013
   80SLPC  C210 7407   6.100   4.473   7.789  0.2218  0.0394  0.8795
   80SLPC  H10R 7408   6.039   4.529   7.861 -1.8690  1.6045 -1.9397
   80SLPC  C211 7409   6.183   4.353   7.830  0.3286  0.7685  0.4014
   80SLPC  H11R 7410   6.282   4.390   7.864  1.3227  0.1024 -1.6078
   80SLPC  H11S 7411   6.206   4.283   7.747  0.9477  1.9582 -0.4651
   80SLPC  C212 7412   6.119   4.273   7.939 -0.0727 -0.2140  0.0320
   80SLPC  H12R 7413   6.064   4.184   7.905 -0.2624  0.0611 -0.3928
   80SLPC  C213 7414   6.095   4.318   8.065 -0.5017  0.2221  0.2460
   80SLPC  H13R 7415   6.044   4.256   8.139  0.5420 -0.2081  0.6315
   80SLPC  C214 7416   6.139   4.450   8.126 -0.4047  0.1279 -0.9062
   80SLPC  H14R 7417   6.164   4.524   8.048  1.3903  0.0995 -0.4039
   80SLPC  H14S 7418   6.227   4.436   8.192  1.1663 -2.6434 -3.3468
   80SLPC  C215 7419   6.020   4.497   8.212 -0.3549 -0.3578 -0.5910
   80SLPC  H15R 7420   5.916   4.482   8.179 -1.2526  1.1144  1.3538
   80SLPC  H15S 7421   6.032   4.607   8.204  0.8640 -0.4555 -0.4199
   80SLPC  C216 7422   6.047   4.465   8.354 -0.0897  0.0506  0.2442
   80SLPC  H16R 7423   6.152   4.492   8.381  0.4651  0.0542 -1.7545
   80SLPC  H16S 7424   6.030   4.356   8.364 -0.7930 -0.0071 -1.3408
   80SLPC  C217 7425   5.950   4.517   8.470 -0.8250  0.1059  0.5776
   80SLPC  H17R 7426   5.854   4.488   8.423 -0.5337  0.2653 -0.1449
   80SLPC  H17S 7427   5.958   4.628   8.469 -1.4122  0.1639 -1.2519
   80SLPC  C218 7428   5.988   4.471   8.607  0.1670  0.6085 -1.2697
   80SLPC  H18R 7429   5.956   4.545   8.683 -0.2148 -0.0771 -0.7496
   80SLPC  H18S 7430   6.099   4.465   8.599  0.0818 -1.9318 -1.6228
   80SLPC  H18T 7431   5.949   4.369   8.630 -0.1140  0.9526 -0.1740
   80SLPC   C33 7432   6.137   3.554   6.837 -0.2382  0.1011 -0.1891
   80SLPC   H3X 7433   6.121   3.508   6.737  0.5141 -2.1029  0.6273
   80SLPC   H3Y 7434   6.048   3.530   6.898 -0.3302 -0.6183 -0.5810
   80SLPC   C34 7435   6.254   3.493   6.917  0.1596  0.2142  0.0175
   80SLPC   H4X 7436   6.348   3.535   6.875 -0.3961  1.1022 -0.3651
   80SLPC   H4Y 7437   6.265   3.383   6.904  0.2851  0.3067 -0.6633
   80SLPC   C35 7438   6.254   3.510   7.067 -0.1543  0.2330  0.0055
   80SLPC   H5X 7439   6.231   3.617   7.087 -1.1488 -0.3373  2.1952
   80SLPC   H5Y 7440   6.351   3.486   7.117 -0.6300 -0.5749  0.5595
   80SLPC   C36 7441   6.152   3.434   7.150 -0.0648  0.9369 -0.2137
   80SLPC   H6X 7442   6.168   3.326   7.131  2.0011  1.3196 -0.9235
   80SLPC   H6Y 7443   6.047   3.457   7.122 -0.3232 -1.4371 -1.4452
   80SLPC   C37 7444   6.198   3.448   7.296 -0.5388  0.4136  1.0517
   80SLPC   H7X 7445   6.306   3.422   7.306 -0.9390 -1.1666  1.5008
   80SLPC   H7Y 7446   6.151   3.369   7.358  1.7242 -0.9778  1.0878
   80SLPC   C38 7447   6.172   3.588   7.358  0.0022  0.4310 -0.1705
   80SLPC   H8X 7448   6.061   3.591   7.369 -0.1956 -1.0362 -1.5342
   80SLPC   H8Y 7449   6.216   3.662   7.289  1.3372  0.4257  0.6376
   80SLPC   C39 7450   6.231   3.607   7.507 -0.1747  0.2149  0.2389
   80SLPC   H9X 7451   6.338   3.636   7.511 -0.2607  0.8790 -1.4794
   80SLPC   H9Y 7452   6.213   3.512   7.562  0.3527  1.3374  2.4687
   80SLPC  C310 7453   6.155   3.708   7.591 -0.2886  0.0702 -0.2892
   80SLPC  H10X 7454   6.048   3.696   7.565  0.1665  0.0745 -2.3612
   80SLPC  H10Y 7455   6.186   3.807   7.551  0.6758  0.4118  1.1913
   80SLPC  C311 7456   6.193   3.710   7.743  0.1234 -0.9739  0.1808
   80SLPC  H11X 7457   6.297   3.739   7.768 -0.5468  0.4042  1.5769
   80SLPC  H11Y 7458   6.180   3.604   7.774 -0.6253 -0.6906  0.8871
   80SLPC  C312 7459   6.109   3.797   7.835 -0.4076  0.1290  0.2751
   80SLPC  H12X 7460   6.003   3.770   7.814 -0.0544 -2.5042  1.5795
   80SLPC  H12Y 7461   6.134   3.904   7.813 -0.0007  1.0481  4.4454
   80SLPC  C313 7462   6.151   3.764   7.979 -0.0656  0.2577 -0.4791
   80SLPC  H13X 7463   6.262   3.776   7.980 -0.1560  1.2032 -0.8395
   80SLPC  H13Y 7464   6.120   3.659   7.998 -1.3761  0.4149 -1.5603
   80SLPC  C314 7465   6.093   3.851   8.080  0.4684 -0.0295 -0.2221
   80SLPC  H14X 7466   5.984   3.851   8.097  0.3093  1.9557 -0.9227
   80SLPC  H14Y 7467   6.110   3.959   8.061 -0.3844  0.2108  0.3186
   80SLPC  C315 7468   6.156   3.818   8.219 -0.0002 -0.4232  0.0436
   80SLPC  H15X 7469   6.264   3.800   8.201  0.1875  1.6455 -1.1616
   80SLPC  H15Y 7470   6.106   3.722   8.247 -0.8431 -0.1152 -0.3827
   80SLPC  C316 7471   6.145   3.917   8.333 -0.5538  0.2503  0.2138
   80SLPC  H16X 7472   6.212   4.000   8.301  1.1237 -1.6934 -1.5549
   80SLPC  H16Y 7473   6.179   3.876   8.430  0.4537  3.7925  1.5236
   80SLPC  C317 7474   5.998   3.961   8.352 -0.0850  0.0435  0.0595
   80SLPC  H17X 7475   5.944   3.864   8.361 -2.5995  1.2678 -0.6576
   80SLPC  H17Y 7476   5.966   4.001   8.253  1.8346 -0.9480 -0.9970
   80SLPC  C318 7477   5.962   4.038   8.482  0.8563 -0.1243  0.6380
   80SLPC  H18X 7478   5.959   4.147   8.463  0.1963  0.1941  2.3870
   80SLPC  H18Y 7479   6.031   4.023   8.567 -0.1446  1.7340  1.8310
   80SLPC  H18Z 7480   5.855   4.017   8.504  0.5186  2.1328  1.3608
   81SAPS     N 7481   6.456   0.486  10.901 -0.4991  0.3703 -0.1819
   81SAPS   HN1 7482   6.487   0.564  10.962 -0.4739  0.6207 -0.5116
   81SAPS   HN2 7483   6.533   0.416  10.890  0.3037  1.6151 -4.2067
   81SAPS   HN3 7484   6.436   0.520  10.805 -0.9221  1.5304  0.3058
   81SAPS   C12 7485   6.340   0.429  10.975 -0.0820 -0.4553  0.1444
   81SAPS  H12A 7486   6.295   0.353  10.912  2.0775 -0.6714 -1.2501
   81SAPS   C13 7487   6.374   0.348  11.096 -0.3715  0.2938 -0.8228
   81SAPS  O13A 7488   6.495   0.349  11.139 -0.5099  0.2490 -0.1800
   81SAPS  O13B 7489   6.291   0.269  11.154 -0.0649 -0.6633  0.2056
   81SAPS   C11 7490   6.245   0.547  11.003 -0.0183 -0.4334  0.4429
   81SAPS  H11A 7491   6.288   0.632  11.060  0.2065 -1.4444  1.8386
   81SAPS  H11B 7492   6.164   0.511  11.070 -0.4665 -0.0898  0.0953
   81SAPS     P 7493   6.061   0.557  10.806  0.0279 -0.2797 -0.3997
   81SAPS   O13 7494   6.093   0.455  10.707 -0.1950 -0.0289 -0.2386
   81SAPS   O14 7495   5.953   0.529  10.905 -0.8225  0.7947  0.3840
   81SAPS   O12 7496   6.189   0.603  10.883 -0.1734  0.3533  0.1468
   81SAPS   O11 7497   6.009   0.688  10.735 -0.2631 -1.0285  0.0108
   81SAPS    C1 7498   6.091   0.798  10.690  0.1656  0.3247 -0.0982
   81SAPS    HA 7499   6.037   0.888  10.726  1.4276  1.0149  0.1343
   81SAPS    HB 7500   6.190   0.798  10.741  0.6266 -0.3319 -0.9743
   81SAPS    C2 7501   6.100   0.790  10.538 -0.6186 -0.1668 -0.5772
   81SAPS    HS 7502   6.004   0.817  10.490  0.6655  2.9063 -1.6497
   81SAPS   O21 7503   6.158   0.658  10.493 -0.3810  0.2306  0.3544
   81SAPS   C21 7504   6.073   0.576  10.432 -0.0345  0.6940 -0.5254
   81SAPS   O22 7505   5.957   0.593  10.409 -0.0303 -0.9528  0.5995
   81SAPS   C22 7506   6.154   0.448  10.379  0.3435 -0.2521 -0.4756
   81SAPS   H2R 7507   6.257   0.480  10.351  0.4987 -0.0335  0.2934
   81SAPS   H2S 7508   6.170   0.367  10.453  1.6531  1.7872  1.6410
   81SAPS    C3 7509   6.202   0.895  10.497  0.0361 -0.3515 -0.3258
   81SAPS    HX 7510   6.301   0.883  10.547  0.8613 -1.2697 -2.0985
   81SAPS    HY 7511   6.163   0.995  10.524 -1.5590 -0.2642 -2.6996
   81SAPS   O31 7512   6.234   0.885  10.360 -0.3261  0.3342 -0.1693
   81SAPS   C31 7513   6.146   0.944  10.274 -0.7196  0.5238  0.2672
   81SAPS   O32 7514   6.051   1.012  10.306  0.2100 -0.6192 -0.2263
   81SAPS   C32 7515   6.196   0.911  10.132 -0.3919 -0.2211 -0.2239
   81SAPS   H2X 7516   6.296   0.960  10.126 -1.9459  4.0160  3.3498
   81SAPS   H2Y 7517   6.130   0.966  10.062 -0.7488  0.3642  0.5655
   81SAPS   C23 7518   6.092   0.386  10.254  0.2312 -0.6058  0.2803
   81SAPS   H3R 7519   6.086   0.464  10.175 -0.6692 -0.3606  0.5807
   81SAPS   H3S 7520   5.991   0.349  10.280 -0.7461  0.1698 -2.1481
   81SAPS   C24 7521   6.162   0.260  10.201 -0.2260 -0.6647 -0.0522
   81SAPS   H4R 7522   6.100   0.218  10.118 -0.5144 -3.5809  1.5070
   81SAPS   H4S 7523   6.174   0.193  10.288  0.9587 -0.6582 -0.1955
   81SAPS   C25 7524   6.299   0.285  10.149 -0.5381 -0.4786 -0.6841
   81SAPS   H5R 7525   6.367   0.332  10.222 -0.7262 -1.7796  0.3755
   81SAPS   C26 7526   6.348   0.285  10.029  0.0486 -0.3397  0.3265
   81SAPS   H6R 7527   6.457   0.289  10.013  0.1440 -2.8388 -0.1096
   81SAPS   C27 7528   6.271   0.251   9.901 -0.6075 -0.0296 -0.4334
   81SAPS   H7R 7529   6.164   0.226   9.919 -0.3387  0.8088  3.2077
   81SAPS   H7S 7530   6.318   0.153   9.875 -0.4328 -0.1898  0.4243
   81SAPS   C28 7531   6.281   0.343   9.788  0.2758  1.0249 -0.3072
   81SAPS   H8R 7532   6.329   0.438   9.816 -1.3290  1.3237  1.5748
   81SAPS   C29 7533   6.229   0.317   9.668 -0.1039 -0.2326  0.0350
   81SAPS   H9R 7534   6.234   0.399   9.595  0.1174  1.2963  1.7169
   81SAPS  C210 7535   6.157   0.194   9.614  0.2922 -0.2272  0.9525
   81SAPS  H10R 7536   6.072   0.231   9.552  1.3968 -1.0715 -1.1530
   81SAPS  H10S 7537   6.113   0.134   9.696 -1.0662  1.1754  1.3061
   81SAPS  C211 7538   6.235   0.102   9.533  0.3566 -0.5878  0.4448
   81SAPS  H11R 7539   6.296   0.030   9.589 -0.0148 -0.6134  0.8253
   81SAPS  C212 7540   6.247   0.094   9.395  0.1682  0.1792 -0.2152
   81SAPS  H12R 7541   6.287   0.001   9.354 -2.9398 -0.7112 -1.5385
   81SAPS  C213 7542   6.168   0.178   9.296  0.2308  0.4064  0.4155
   81SAPS  H13R 7543   6.245   0.208   9.221 -0.4449  0.6058 -0.2107
   81SAPS  H13S 7544   6.134   0.279   9.327 -2.5516  0.8582 -3.3309
   81SAPS  C214 7545   6.055   0.117   9.220  0.5147  0.3170 -0.7668
   81SAPS  H14R 7546   5.971   0.077   9.278 -0.0792 -0.7485 -2.2873
   81SAPS  C215 7547   6.044   0.099   9.087  0.2153 -0.0192 -0.2590
   81SAPS  H15R 7548   5.951   0.053   9.050  0.2363 -0.5907  0.3779
   81SAPS  C216 7549   6.142   0.127   8.973 -0.0082  0.1786  0.9134
   81SAPS  H16R 7550   6.233   0.064   8.975  0.0498  0.2278  0.2075
   81SAPS  H16S 7551   6.183   0.230   8.984  1.2736 -0.0182 -1.4702
   81SAPS  C217 7552   6.072   0.108   8.834 -0.3609 -0.1408 -0.1480
   81SAPS  H17R 7553   5.993   0.186   8.821 -0.3126 -0.0593  0.0397
   81SAPS  H17S 7554   6.023   0.009   8.822  1.1848 -1.0346  0.6211
   81SAPS  C218 7555   6.175   0.117   8.717  0.1076  0.7367 -0.7920
   81SAPS  H18R 7556   6.255   0.042   8.733  0.8319  1.0550 -2.7292
   81SAPS  H18S 7557   6.225   0.216   8.720 -0.8654  1.2218  0.1229
   81SAPS  C219 7558   6.099   0.095   8.586  1.0666 -0.0121 -0.2318
   81SAPS  H19R 7559   6.009   0.161   8.584 -1.5796 -3.3106 -3.2357
   81SAPS  H19S 7560   6.048  -0.004   8.585  1.3588 -0.1991  1.1804
   81SAPS  C220 7561   6.188   0.109   8.466  0.4625  0.1059 -0.5812
   81SAPS  H20R 7562   6.292   0.075   8.480  0.2455  0.6160  3.3560
   81SAPS  H20S 7563   6.193   0.220   8.458  1.3354  0.2839  1.7212
   81SAPS  H20T 7564   6.145   0.069   8.372 -0.2193  0.1139 -0.2829
   81SAPS   C33 7565   6.214   0.760  10.108  0.1917  0.0433  0.4422
   81SAPS   H3X 7566   6.117   0.707  10.110  0.1440  0.0705 -0.6026
   81SAPS   H3Y 7567   6.282   0.710  10.180 -0.3660  0.0331  0.9627
   81SAPS   C34 7568   6.288   0.745   9.968 -0.0433 -0.1331 -0.1079
   81SAPS   H4X 7569   6.310   0.637   9.967  0.8610  0.0385  0.2351
   81SAPS   H4Y 7570   6.382   0.804   9.963 -0.1668  0.0020 -1.4201
   81SAPS   C35 7571   6.206   0.790   9.843  0.1922 -0.2988  0.4989
   81SAPS   H5X 7572   6.166   0.892   9.863 -1.3895 -0.6732 -0.5717
   81SAPS   H5Y 7573   6.119   0.721   9.843 -1.6381  1.8919 -0.8299
   81SAPS   C36 7574   6.285   0.792   9.711 -0.3511 -0.2736  0.2142
   81SAPS   H6X 7575   6.318   0.690   9.680 -1.8445 -1.0049  0.9495
   81SAPS   H6Y 7576   6.367   0.867   9.715 -0.7991  0.2329 -0.0027
   81SAPS   C37 7577   6.209   0.856   9.593 -0.9582  0.5160 -0.1558
   81SAPS   H7X 7578   6.218   0.967   9.602  0.3547  0.4085  0.0590
   81SAPS   H7Y 7579   6.103   0.822   9.598 -0.8190 -0.1256 -1.2103
   81SAPS   C38 7580   6.259   0.804   9.457  0.1880 -0.2442  0.0456
   81SAPS   H8X 7581   6.251   0.693   9.453 -1.8306 -0.1249 -0.2134
   81SAPS   H8Y 7582   6.365   0.835   9.446 -0.1799  0.3044 -2.3687
   81SAPS   C39 7583   6.188   0.866   9.332  0.7994 -0.4171 -0.0158
   81SAPS   H9X 7584   6.184   0.977   9.342 -1.9950 -0.2451 -1.9065
   81SAPS   H9Y 7585   6.084   0.828   9.325  0.3948  0.7467 -0.6981
   81SAPS  C310 7586   6.260   0.826   9.202 -0.4153 -0.1944 -0.1977
   81SAPS  H10X 7587   6.278   0.717   9.195  0.7961  0.0666 -1.7895
   81SAPS  H10Y 7588   6.360   0.874   9.191 -0.6924  0.4948  0.1894
   81SAPS  C311 7589   6.167   0.859   9.077 -0.2144 -0.2913 -0.2075
   81SAPS  H11X 7590   6.132   0.964   9.071 -1.8595 -0.6389  1.9322
   81SAPS  H11Y 7591   6.076   0.795   9.085  0.5981 -1.8679 -2.5107
   81SAPS  C312 7592   6.239   0.818   8.952  0.5280  0.1671 -0.3133
   81SAPS  H12X 7593   6.273   0.715   8.974 -1.1767  0.0814  2.4365
   81SAPS  H12Y 7594   6.340   0.862   8.941  0.1246  1.5761  1.2844
   81SAPS  C313 7595   6.155   0.842   8.829  0.2362  1.0743  0.9072
   81SAPS  H13X 7596   6.218   0.829   8.738  0.7222 -1.6365  1.5543
   81SAPS  H13Y 7597   6.135   0.952   8.823  0.9438  1.1502 -0.9276
   81SAPS  C314 7598   6.031   0.754   8.818  0.7367 -0.0639  0.2740
   81SAPS  H14X 7599   5.961   0.775   8.901 -0.5229  0.8152 -0.9746
   81SAPS  H14Y 7600   6.066   0.650   8.834  0.0898  0.1002  3.1588
   81SAPS  C315 7601   5.957   0.776   8.686  0.9053 -0.4884  0.0894
   81SAPS  H15X 7602   6.022   0.787   8.596  0.3726  1.0058 -0.1404
   81SAPS  H15Y 7603   5.917   0.876   8.714  1.1611 -0.5071  0.5297
   81SAPS  C316 7604   5.847   0.669   8.667 -0.5466  0.5146 -0.2060
   81SAPS  H16X 7605   5.772   0.698   8.590  0.2611  1.7569 -0.5529
   81SAPS  H16Y 7606   5.792   0.649   8.761 -1.8874 -1.5281 -1.3473
   81SAPS  C317 7607   5.907   0.531   8.622 -0.1577  0.2281  0.0636
   81SAPS  H17X 7608   5.983   0.506   8.699 -0.4831  2.8269  1.3186
   81SAPS  H17Y 7609   5.963   0.551   8.529  0.1157 -1.0290 -0.0630
   81SAPS  C318 7610   5.803   0.416   8.610  0.2590 -0.7203  0.1151
   81SAPS  H18X 7611   5.745   0.419   8.705  1.3037  0.3383  0.7497
   81SAPS  H18Y 7612   5.846   0.314   8.600  1.5453 -0.0474 -1.6423
   81SAPS  H18Z 7613   5.736   0.442   8.526 -0.0699  1.4029  0.9741
   82SAPS     N 7614   4.945   6.151  11.330  0.5056 -0.5315  0.1791
   82SAPS   HN1 7615   4.924   6.203  11.417  4.7283 -0.3140  1.3221
   82SAPS   HN2 7616   4.858   6.138  11.275  0.1651  1.5839  0.1278
   82SAPS   HN3 7617   4.992   6.061  11.351 -0.0469 -1.0315 -0.6888
   82SAPS   C12 7618   5.052   6.231  11.249  1.2635 -0.2144 -1.2301
   82SAPS  H12A 7619   5.010   6.331  11.251  2.4734  0.2941 -0.5983
   82SAPS   C13 7620   5.192   6.245  11.307  0.3575 -0.5262  0.1556
   82SAPS  O13A 7621   5.218   6.183  11.412  0.0789 -0.1856  0.5266
   82SAPS  O13B 7622   5.283   6.297  11.238 -0.1250 -0.5123  0.0314
   82SAPS   C11 7623   5.055   6.182  11.106 -0.2099 -0.8910  0.5742
   82SAPS  H11A 7624   5.103   6.081  11.110 -1.5259 -1.4891  1.7808
   82SAPS  H11B 7625   5.107   6.259  11.045 -2.2209  0.8377  0.9435
   82SAPS     P 7626   4.882   6.152  10.919 -0.3788  0.2958  0.0780
   82SAPS   O13 7627   4.957   6.041  10.872 -1.0201 -0.1461  0.5398
   82SAPS   O14 7628   4.736   6.148  10.904  0.7997 -0.9078 -0.8175
   82SAPS   O12 7629   4.921   6.171  11.067 -0.5442  0.2426 -0.3951
   82SAPS   O11 7630   4.940   6.292  10.852  0.3696  0.1903  0.3129
   82SAPS    C1 7631   4.852   6.406  10.853 -0.2176 -0.0056  0.0770
   82SAPS    HA 7632   4.792   6.418  10.945  1.0657  3.3671  0.6345
   82SAPS    HB 7633   4.923   6.491  10.847 -0.9137  0.9129  3.0624
   82SAPS    C2 7634   4.765   6.409  10.724  0.6961 -0.2740 -0.0690
   82SAPS    HS 7635   4.690   6.327  10.729 -1.4009  1.6451  1.7867
   82SAPS   O21 7636   4.851   6.409  10.609  0.4242 -0.4731  0.3546
   82SAPS   C21 7637   4.885   6.294  10.563  0.3692 -0.3745 -0.0499
   82SAPS   O22 7638   4.833   6.189  10.594 -0.3864  0.0986 -0.0923
   82SAPS   C22 7639   5.000   6.305  10.466  0.4075 -0.2338  0.0333
   82SAPS   H2R 7640   5.028   6.412  10.452 -0.9053  0.0695 -0.3874
   82SAPS   H2S 7641   5.085   6.255  10.517  0.7626 -3.0187 -2.9366
   82SAPS    C3 7642   4.681   6.540  10.722  0.6279 -0.0628  0.0912
   82SAPS    HX 7643   4.756   6.621  10.731 -0.2876  1.0895 -1.9760
   82SAPS    HY 7644   4.617   6.555  10.812 -0.9149  0.0108 -0.9764
   82SAPS   O31 7645   4.611   6.564  10.596 -0.5637 -0.2048  0.8602
   82SAPS   C31 7646   4.516   6.477  10.574 -0.3175  0.0492  0.0453
   82SAPS   O32 7647   4.477   6.391  10.652  0.3168 -0.0053 -0.3537
   82SAPS   C32 7648   4.481   6.487  10.422 -0.0510 -0.1598 -0.0353
   82SAPS   H2X 7649   4.517   6.587  10.389  0.5003 -0.2989  0.1347
   82SAPS   H2Y 7650   4.372   6.496  10.401  0.1098  0.7075 -0.5537
   82SAPS   C23 7651   4.969   6.252  10.324 -0.3638 -0.2626  0.1162
   82SAPS   H3R 7652   4.899   6.322  10.274  1.2107  0.9415 -0.4845
   82SAPS   H3S 7653   4.913   6.155  10.326  1.6293 -1.4921  3.0248
   82SAPS   C24 7654   5.090   6.239  10.228  0.0097  0.2085  0.5629
   82SAPS   H4R 7655   5.156   6.163  10.276 -0.0796 -0.6072 -0.5566
   82SAPS   H4S 7656   5.153   6.330  10.239  0.5682 -0.2118  0.9191
   82SAPS   C25 7657   5.046   6.193  10.090  0.1993 -0.2175  0.0685
   82SAPS   H5R 7658   4.960   6.125  10.086 -1.4561  1.6946  1.3000
   82SAPS   C26 7659   5.111   6.235   9.975 -0.2659 -0.1048 -0.2350
   82SAPS   H6R 7660   5.073   6.211   9.875  0.3740  2.4547 -1.1871
   82SAPS   C27 7661   5.223   6.331   9.972 -0.1010  0.3174 -0.1140
   82SAPS   H7R 7662   5.305   6.284  10.032 -0.7387  0.5294  0.9548
   82SAPS   H7S 7663   5.198   6.424  10.026 -0.7405  0.9156 -1.4046
   82SAPS   C28 7664   5.280   6.392   9.847 -0.3196  0.2958  0.3622
   82SAPS   H8R 7665   5.200   6.435   9.784  0.7013  0.9837 -0.5072
   82SAPS   C29 7666   5.405   6.372   9.784  0.4053  0.2700 -0.5111
   82SAPS   H9R 7667   5.435   6.442   9.706  1.2916 -1.7599 -2.0856
   82SAPS  C210 7668   5.523   6.288   9.831  0.4921  0.0492 -0.4060
   82SAPS  H10R 7669   5.499   6.179   9.833  1.2595 -0.2078 -2.5282
   82SAPS  H10S 7670   5.535   6.326   9.934  0.6704  1.7064 -1.0145
   82SAPS  C211 7671   5.655   6.313   9.758 -0.1506 -0.0002 -0.3158
   82SAPS  H11R 7672   5.743   6.337   9.818  1.4907 -2.9769 -1.2903
   82SAPS  C212 7673   5.677   6.290   9.629  0.4203 -0.2848  0.0385
   82SAPS  H12R 7674   5.780   6.286   9.592  0.6684  0.5821  0.6100
   82SAPS  C213 7675   5.575   6.245   9.531 -0.0168 -0.0845  0.0870
   82SAPS  H13R 7676   5.482   6.215   9.584 -0.8662  1.7134 -0.2902
   82SAPS  H13S 7677   5.629   6.157   9.491  0.3939  0.5631 -0.8153
   82SAPS  C214 7678   5.548   6.351   9.423  0.8292 -0.5166  0.2220
   82SAPS  H14R 7679   5.511   6.444   9.471  2.6678 -0.5081  1.7167
   82SAPS  C215 7680   5.580   6.350   9.289  0.1126  1.2212 -0.5746
   82SAPS  H15R 7681   5.538   6.440   9.242 -2.8836 -0.3268 -1.1405
   82SAPS  C216 7682   5.654   6.228   9.223  0.1104 -0.4592 -0.1236
   82SAPS  H16R 7683   5.581   6.167   9.165 -1.1222 -0.1206  1.0279
   82SAPS  H16S 7684   5.700   6.165   9.302  2.8347  1.3935 -0.0956
   82SAPS  C217 7685   5.768   6.273   9.133 -0.1894 -0.6933  0.0428
   82SAPS  H17R 7686   5.821   6.182   9.098 -0.5704 -0.1116 -2.1953
   82SAPS  H17S 7687   5.850   6.320   9.191 -0.4095 -1.5553  1.0827
   82SAPS  C218 7688   5.724   6.355   9.019 -0.0372  0.3459  0.3453
   82SAPS  H18R 7689   5.647   6.433   9.038 -1.0839 -0.5340 -0.1650
   82SAPS  H18S 7690   5.672   6.292   8.944  2.1507  0.3256 -1.2462
   82SAPS  C219 7691   5.840   6.428   8.955  0.3798 -0.0299  0.3063
   82SAPS  H19R 7692   5.929   6.363   8.942 -0.4003 -0.7145 -2.3746
   82SAPS  H19S 7693   5.868   6.515   9.018 -0.4784  0.8148 -0.4437
   82SAPS  C220 7694   5.795   6.467   8.820 -0.3888 -0.0194  0.4025
   82SAPS  H20R 7695   5.774   6.378   8.755 -0.2579  1.4931 -1.8381
   82SAPS  H20S 7696   5.870   6.525   8.762  3.0140 -1.7044  2.7949
   82SAPS  H20T 7697   5.700   6.524   8.826 -0.1432  0.2806  1.5490
   82SAPS   C33 7698   4.548   6.373  10.343 -0.2431 -0.9322  0.1458
   82SAPS   H3X 7699   4.523   6.271  10.380 -0.1038 -1.0649 -0.1232
   82SAPS   H3Y 7700   4.654   6.387  10.375 -0.0587 -1.3017 -0.2924
   82SAPS   C34 7701   4.530   6.384  10.190 -0.2704  0.1665 -0.1169
   82SAPS   H4X 7702   4.549   6.487  10.154  0.2466  0.3306  0.5949
   82SAPS   H4Y 7703   4.423   6.360  10.169 -0.7563  2.3585 -0.3548
   82SAPS   C35 7704   4.628   6.297  10.117 -1.3854 -0.1425  0.4280
   82SAPS   H5X 7705   4.617   6.204  10.177  1.5026 -0.3804  0.7668
   82SAPS   H5Y 7706   4.735   6.319  10.138 -0.5711  0.1154 -3.2603
   82SAPS   C36 7707   4.597   6.293   9.969 -0.6263  0.0956  0.0070
   82SAPS   H6X 7708   4.630   6.387   9.920  2.3409 -0.9799 -0.2120
   82SAPS   H6Y 7709   4.486   6.280   9.963 -0.5996 -0.4861  0.6129
   82SAPS   C37 7710   4.678   6.175   9.908 -0.0580 -0.0094  0.5052
   82SAPS   H7X 7711   4.642   6.079   9.950 -3.1799 -0.6068 -3.0212
   82SAPS   H7Y 7712   4.782   6.191   9.942 -0.0715  0.3813  0.3703
   82SAPS   C38 7713   4.653   6.184   9.758  0.0799 -0.1365 -0.4164
   82SAPS   H8X 7714   4.660   6.282   9.707 -0.5042 -1.4157 -3.1252
   82SAPS   H8Y 7715   4.548   6.152   9.740 -0.5295  1.2310  0.5691
   82SAPS   C39 7716   4.748   6.080   9.697 -0.1960  0.0687  0.3577
   82SAPS   H9X 7717   4.707   5.978   9.713 -0.2353  0.1818  0.9964
   82SAPS   H9Y 7718   4.849   6.094   9.743  0.1597  1.0974 -0.6868
   82SAPS  C310 7719   4.764   6.109   9.547 -0.0468  0.3673 -0.2170
   82SAPS  H10X 7720   4.701   6.185   9.497  2.0807  0.5812 -2.7589
   82SAPS  H10Y 7721   4.727   6.013   9.505 -0.6052 -1.2860  3.6212
   82SAPS  C311 7722   4.908   6.149   9.515  0.1746 -0.1580  0.0674
   82SAPS  H11X 7723   4.977   6.076   9.560  1.7934  1.8362  0.9952
   82SAPS  H11Y 7724   4.932   6.242   9.572  1.4250 -2.4276  3.5413
   82SAPS  C312 7725   4.923   6.183   9.365 -0.0991 -1.1488 -0.2227
   82SAPS  H12X 7726   4.848   6.260   9.339  3.4038  2.2832 -1.1125
   82SAPS  H12Y 7727   4.907   6.084   9.316 -3.0621 -0.1396 -1.5406
   82SAPS  C313 7728   5.064   6.227   9.319 -0.3229 -0.5087  0.5485
   82SAPS  H13X 7729   5.128   6.152   9.370 -2.2550  0.0247  4.0867
   82SAPS  H13Y 7730   5.084   6.330   9.354 -3.4453  0.2074  0.5674
   82SAPS  C314 7731   5.084   6.225   9.167 -0.0264 -0.7596 -0.0568
   82SAPS  H14X 7732   5.038   6.318   9.130 -0.5763 -0.0871  2.1415
   82SAPS  H14Y 7733   5.037   6.137   9.118 -2.3326  0.6768 -0.5836
   82SAPS  C315 7734   5.230   6.229   9.126  0.5577 -0.3634  0.0537
   82SAPS  H15X 7735   5.282   6.155   9.191 -0.0699 -0.2068  0.7486
   82SAPS  H15Y 7736   5.263   6.333   9.151  1.3421  0.2622 -3.1330
   82SAPS  C316 7737   5.261   6.215   8.976 -0.1089 -0.2153  0.2635
   82SAPS  H16X 7738   5.210   6.299   8.925 -0.2959  0.0210  0.8344
   82SAPS  H16Y 7739   5.215   6.123   8.935  0.1804 -0.3691  0.2770
   82SAPS  C317 7740   5.412   6.223   8.939  0.0612  0.1729 -0.7769
   82SAPS  H17X 7741   5.466   6.148   9.000 -1.7818  0.6877  1.6499
   82SAPS  H17Y 7742   5.459   6.316   8.978  3.6698 -1.5603 -0.5813
   82SAPS  C318 7743   5.438   6.204   8.791 -0.4334 -0.6791  0.6804
   82SAPS  H18X 7744   5.399   6.106   8.756 -1.2159  0.0032 -0.4290
   82SAPS  H18Y 7745   5.546   6.202   8.767 -0.4934 -1.6393  0.4576
   82SAPS  H18Z 7746   5.394   6.289   8.735  1.1960  0.4890  1.0941
   83SAPS     N 7747   0.284   1.264  11.191 -0.4583 -0.1381  0.1307
   83SAPS   HN1 7748   0.182   1.249  11.190 -0.4500 -0.2229 -1.1460
   83SAPS   HN2 7749   0.329   1.193  11.252 -0.7074  0.2778  0.8209
   83SAPS   HN3 7750   0.295   1.363  11.221 -2.8097 -0.0085  0.7737
   83SAPS   C12 7751   0.327   1.242  11.047  0.2813 -0.1913  0.2961
   83SAPS  H12A 7752   0.284   1.320  10.986  1.0926 -1.4224 -1.9682
   83SAPS   C13 7753   0.483   1.246  11.035 -0.0561  1.2917  0.3301
   83SAPS  O13A 7754   0.563   1.268  11.125 -0.1601 -0.1201 -0.3842
   83SAPS  O13B 7755   0.530   1.229  10.917 -0.2383 -0.0321 -0.2217
   83SAPS   C11 7756   0.263   1.110  10.992 -0.0122  0.2014 -0.0081
   83SAPS  H11A 7757   0.317   1.021  11.031 -0.3609 -1.3661 -2.8323
   83SAPS  H11B 7758   0.282   1.115  10.883  0.6463  3.2138  0.1703
   83SAPS     P 7759   0.020   1.011  10.950  0.0067  0.2496 -0.4056
   83SAPS   O13 7760   0.002   0.894  11.041 -0.9467 -0.2661  0.8168
   83SAPS   O14 7761  -0.102   1.090  10.919  0.1012 -0.7790 -0.5878
   83SAPS   O12 7762   0.122   1.108  11.015  0.0147 -0.7432  0.4495
   83SAPS   O11 7763   0.087   0.969  10.813 -0.0502 -0.0180 -0.3630
   83SAPS    C1 7764   0.094   1.060  10.702  0.5781 -0.1764 -0.0774
   83SAPS    HA 7765   0.084   1.164  10.739  0.0387 -0.1998 -0.1483
   83SAPS    HB 7766   0.200   1.063  10.667  1.1591 -0.3763  1.5977
   83SAPS    C2 7767  -0.014   1.041  10.583  0.1088 -0.2016 -0.7896
   83SAPS    HS 7768  -0.114   1.038  10.632  1.7094 -1.8552  2.7487
   83SAPS   O21 7769   0.013   0.920  10.506 -0.1076 -0.0363 -0.1171
   83SAPS   C21 7770  -0.015   0.808  10.562  0.3531  0.7912 -0.3208
   83SAPS   O22 7771  -0.081   0.797  10.665  0.5979  0.5302 -0.0572
   83SAPS   C22 7772   0.055   0.693  10.500 -0.1070 -0.3974  0.0881
   83SAPS   H2R 7773   0.096   0.721  10.400  0.9193 -2.0246  0.0122
   83SAPS   H2S 7774   0.135   0.662  10.570  0.7972  0.3700 -0.5844
   83SAPS    C3 7775  -0.017   1.170  10.488 -1.8449  0.1553 -1.0621
   83SAPS    HX 7776   0.078   1.163  10.430 -1.3479  2.3454 -0.6123
   83SAPS    HY 7777  -0.008   1.256  10.557  0.0747 -0.9548  0.1443
   83SAPS   O31 7778  -0.139   1.165  10.407 -0.1886 -0.0132 -0.2536
   83SAPS   C31 7779  -0.150   1.270  10.321 -0.9829  0.3664  0.2195
   83SAPS   O32 7780  -0.085   1.371  10.332  0.2631 -0.0698 -0.3223
   83SAPS   C32 7781  -0.254   1.243  10.210 -0.2578 -0.1050  0.3216
   83SAPS   H2X 7782  -0.349   1.279  10.255 -0.4818  1.3937 -1.2379
   83SAPS   H2Y 7783  -0.256   1.134  10.190 -0.2081  0.0536 -0.5508
   83SAPS   C23 7784  -0.042   0.580  10.466  0.1359  0.1861 -0.3535
   83SAPS   H3R 7785  -0.120   0.559  10.543  0.7428 -0.8415  0.0053
   83SAPS   H3S 7786   0.032   0.498  10.460 -0.1391 -0.0383 -0.6972
   83SAPS   C24 7787  -0.121   0.587  10.327 -0.1998  0.4636  0.5956
   83SAPS   H4R 7788  -0.170   0.490  10.301 -0.0033  0.8144 -1.2414
   83SAPS   H4S 7789  -0.038   0.593  10.253 -1.4792 -3.2490 -1.3946
   83SAPS   C25 7790  -0.223   0.695  10.322  0.1206  0.0396  0.0107
   83SAPS   H5R 7791  -0.302   0.700  10.398  1.9463  0.3800  2.0016
   83SAPS   C26 7792  -0.230   0.799  10.236 -0.3077  0.6576  0.2712
   83SAPS   H6R 7793  -0.324   0.856  10.230  0.1796  1.3039 -3.9460
   83SAPS   C27 7794  -0.137   0.841  10.130  0.3585  0.4246 -0.0522
   83SAPS   H7R 7795  -0.190   0.877  10.040 -1.1670  0.3330  0.7841
   83SAPS   H7S 7796  -0.074   0.754  10.100 -0.7416 -0.2455 -0.4780
   83SAPS   C28 7797  -0.037   0.948  10.167 -0.7900 -0.4895  0.7097
   83SAPS   H8R 7798  -0.044   0.970  10.275 -0.1698 -2.2523  1.1503
   83SAPS   C29 7799   0.051   1.010  10.082  0.4954 -0.2392 -0.4802
   83SAPS   H9R 7800   0.115   1.088  10.126  0.4607 -1.5650  2.0826
   83SAPS  C210 7801   0.061   1.009   9.932 -0.2238 -0.4938 -0.1751
   83SAPS  H10R 7802  -0.016   0.944   9.885 -0.4561  0.6677 -1.4744
   83SAPS  H10S 7803   0.152   0.954   9.901 -0.5125 -0.6332 -0.7947
   83SAPS  C211 7804   0.052   1.139   9.855  0.2370 -0.3830 -0.4207
   83SAPS  H11R 7805   0.090   1.229   9.907  0.7023 -0.1153 -1.2082
   83SAPS  C212 7806  -0.001   1.155   9.727  0.1834  0.1828 -0.4119
   83SAPS  H12R 7807  -0.011   1.257   9.686  1.3050  1.5764  2.4857
   83SAPS  C213 7808  -0.030   1.043   9.628  0.7997  0.1807  0.1350
   83SAPS  H13R 7809  -0.091   0.972   9.687 -0.6258  2.3596  1.4019
   83SAPS  H13S 7810   0.068   0.999   9.599  0.6413  0.6288 -1.1490
   83SAPS  C214 7811  -0.117   1.099   9.518 -0.3449 -0.2009 -0.0041
   83SAPS  H14R 7812  -0.183   1.182   9.549 -0.2778 -0.9233  2.2776
   83SAPS  C215 7813  -0.111   1.071   9.389 -0.3442 -0.2490  0.1698
   83SAPS  H15R 7814  -0.180   1.119   9.318  2.1662  0.8391 -1.6848
   83SAPS  C216 7815  -0.020   0.965   9.337  0.2723  0.2975  0.6543
   83SAPS  H16R 7816  -0.045   0.866   9.382 -0.7885  0.7182  1.0329
   83SAPS  H16S 7817   0.081   0.993   9.374  0.5593 -0.5039  0.4970
   83SAPS  C217 7818   0.003   0.978   9.188  0.4827  0.2195  0.6744
   83SAPS  H17R 7819   0.095   0.922   9.159  0.4458  1.1385 -1.4163
   83SAPS  H17S 7820   0.012   1.084   9.158  2.5110 -0.2671 -0.6686
   83SAPS  C218 7821  -0.111   0.918   9.095 -0.5207  0.2964 -0.3670
   83SAPS  H18R 7822  -0.213   0.960   9.099 -1.2146 -1.2237 -1.2168
   83SAPS  H18S 7823  -0.126   0.808   9.108 -0.1537  0.1526 -1.0599
   83SAPS  C219 7824  -0.060   0.920   8.947  0.4358  0.6491  0.4399
   83SAPS  H19R 7825   0.009   0.834   8.936  0.3498  0.6830 -0.4762
   83SAPS  H19S 7826  -0.002   1.014   8.929  0.6957  0.4569  0.2629
   83SAPS  C220 7827  -0.169   0.907   8.836  0.4093  0.5261  0.0910
   83SAPS  H20R 7828  -0.197   0.803   8.808 -3.2262  1.0005  1.4070
   83SAPS  H20S 7829  -0.116   0.947   8.747  1.5239  0.5343  0.7474
   83SAPS  H20T 7830  -0.266   0.961   8.849  0.1755  0.0163  0.5041
   83SAPS   C33 7831  -0.206   1.325  10.092  0.0943  0.0329 -0.2575
   83SAPS   H3X 7832  -0.098   1.318  10.066 -0.0769 -1.3493 -0.6578
   83SAPS   H3Y 7833  -0.249   1.428  10.096  0.0817 -0.0128  2.3582
   83SAPS   C34 7834  -0.270   1.268   9.965 -0.2277 -0.3475  0.2409
   83SAPS   H4X 7835  -0.232   1.164   9.953  1.6107  0.5012 -2.3818
   83SAPS   H4Y 7836  -0.230   1.326   9.879  0.0760 -1.2539 -0.2399
   83SAPS   C35 7837  -0.424   1.263   9.967  0.6278  0.1195  1.0568
   83SAPS   H5X 7838  -0.462   1.366   9.980  2.2970  1.0888 -1.1338
   83SAPS   H5Y 7839  -0.452   1.202  10.055 -0.7163  0.1475  0.6767
   83SAPS   C36 7840  -0.473   1.196   9.833  0.0015  0.0073  0.3205
   83SAPS   H6X 7841  -0.582   1.178   9.820 -0.1046  1.3664 -0.8591
   83SAPS   H6Y 7842  -0.419   1.100   9.820  1.9116  1.1102 -0.2227
   83SAPS   C37 7843  -0.434   1.287   9.721  0.0746  0.2469 -0.3038
   83SAPS   H7X 7844  -0.323   1.286   9.708 -0.1160 -1.0113 -2.0931
   83SAPS   H7Y 7845  -0.458   1.396   9.729  0.6398  0.6265 -3.0583
   83SAPS   C38 7846  -0.483   1.232   9.584  0.0268  0.5937 -1.3652
   83SAPS   H8X 7847  -0.593   1.243   9.584  0.1829  3.0110  0.3828
   83SAPS   H8Y 7848  -0.451   1.126   9.575 -1.8723 -0.0744 -0.7790
   83SAPS   C39 7849  -0.417   1.308   9.467 -0.2513  0.7056 -0.3945
   83SAPS   H9X 7850  -0.316   1.274   9.439  0.2713  1.2824  0.7269
   83SAPS   H9Y 7851  -0.415   1.414   9.498  1.2209  1.2639 -2.2575
   83SAPS  C310 7852  -0.519   1.289   9.350 -0.2604  0.2307 -0.1643
   83SAPS  H10X 7853  -0.602   1.360   9.369 -0.0064  0.7536 -0.9481
   83SAPS  H10Y 7854  -0.551   1.183   9.358 -3.1299  1.0512  0.1242
   83SAPS  C311 7855  -0.456   1.329   9.213  0.1864  0.1321 -0.1350
   83SAPS  H11X 7856  -0.365   1.268   9.193  0.0131 -0.0486 -0.3853
   83SAPS  H11Y 7857  -0.423   1.434   9.227 -1.9756  0.8944 -0.5018
   83SAPS  C312 7858  -0.545   1.310   9.089  0.3420  0.2539 -0.1689
   83SAPS  H12X 7859  -0.623   1.388   9.076 -0.5420 -0.6041 -0.0786
   83SAPS  H12Y 7860  -0.589   1.209   9.098  2.8891 -0.9981 -0.7955
   83SAPS  C313 7861  -0.456   1.315   8.961  0.6984 -0.6124  0.0778
   83SAPS  H13X 7862  -0.380   1.234   8.970  0.5475 -0.7258  0.3176
   83SAPS  H13Y 7863  -0.396   1.408   8.969  0.7841 -0.8266  2.8918
   83SAPS  C314 7864  -0.524   1.331   8.825  0.4763  0.2772  0.3042
   83SAPS  H14X 7865  -0.458   1.281   8.752  0.3422  2.9202 -1.8052
   83SAPS  H14Y 7866  -0.540   1.438   8.798  1.9691  0.4187 -0.1142
   83SAPS  C315 7867  -0.668   1.287   8.823 -0.1076 -0.0665  0.7541
   83SAPS  H15X 7868  -0.727   1.333   8.906 -1.9254  0.5744 -0.7986
   83SAPS  H15Y 7869  -0.665   1.178   8.844  2.3782  0.1058  1.5589
   83SAPS  C316 7870  -0.734   1.325   8.684  0.3229  0.4074  0.3763
   83SAPS  H16X 7871  -0.684   1.299   8.589 -1.3520  4.7395 -1.9744
   83SAPS  H16Y 7872  -0.744   1.435   8.681  0.5655  0.4113 -0.8943
   83SAPS  C317 7873  -0.872   1.249   8.674  0.0120 -0.1984  0.4579
   83SAPS  H17X 7874  -0.953   1.311   8.718 -0.9988 -1.0423 -0.1809
   83SAPS  H17Y 7875  -0.856   1.147   8.716  2.0018 -0.2544 -0.3262
   83SAPS  C318 7876  -0.896   1.240   8.530  0.6720 -0.1781  0.2182
   83SAPS  H18X 7877  -0.895   1.336   8.475  0.1338 -0.8134 -0.9698
   83SAPS  H18Y 7878  -0.998   1.197   8.514  0.9887 -1.1833  0.8069
   83SAPS  H18Z 7879  -0.815   1.175   8.491 -0.3116  0.0118 -2.4288
   84SAPS     N 7880   0.715   1.437  10.975 -0.1057  0.0077 -0.0434
   84SAPS   HN1 7881   0.653   1.516  10.999  0.0677 -0.0333  0.5732
   84SAPS   HN2 7882   0.711   1.411  10.874 -0.6150  0.3386 -0.1103
   84SAPS   HN3 7883   0.676   1.358  11.031  0.0102  1.1029  1.6423
   84SAPS   C12 7884   0.857   1.456  11.018 -0.1138  0.3285 -0.3791
   84SAPS  H12A 7885   0.917   1.497  10.939 -0.1099 -0.5279 -0.8285
   84SAPS   C13 7886   0.880   1.547  11.142  0.4491 -1.0529  0.7392
   84SAPS  O13A 7887   0.783   1.608  11.199 -0.0831  0.4154 -0.0210
   84SAPS  O13B 7888   0.998   1.557  11.174  0.2255  0.4957  0.0007
   84SAPS   C11 7889   0.911   1.313  11.036  0.0428  0.0698 -0.3145
   84SAPS  H11A 7890   0.863   1.253  11.116 -2.8848  0.3317 -1.7446
   84SAPS  H11B 7891   1.016   1.319  11.072  0.8092  1.4485 -2.5668
   84SAPS     P 7892   0.974   1.089  10.912 -0.2880 -0.2492 -0.0006
   84SAPS   O13 7893   1.121   1.096  10.891 -0.4679 -0.0516  0.2163
   84SAPS   O14 7894   0.917   1.008  11.017  0.0879  0.5524  0.0075
   84SAPS   O12 7895   0.912   1.237  10.912 -0.8003  0.1505 -0.1080
   84SAPS   O11 7896   0.907   1.034  10.775 -0.6861 -0.1748 -0.3699
   84SAPS    C1 7897   0.808   1.107  10.706  0.1610 -0.8249 -0.2896
   84SAPS    HA 7898   0.723   1.131  10.773 -2.2010 -1.0911 -3.0234
   84SAPS    HB 7899   0.857   1.201  10.674  0.3905 -1.0119 -0.4873
   84SAPS    C2 7900   0.754   1.021  10.586  0.2677  0.3577  0.6839
   84SAPS    HS 7901   0.755   0.915  10.621 -3.2649 -0.8943 -2.3828
   84SAPS   O21 7902   0.842   1.035  10.472 -0.5437  0.1586 -0.5462
   84SAPS   C21 7903   0.838   0.937  10.382 -1.3409  0.1894 -0.1542
   84SAPS   O22 7904   0.807   0.823  10.412  0.4108  0.0376  1.0526
   84SAPS   C22 7905   0.886   0.991  10.247 -0.9830 -0.4696  0.0036
   84SAPS   H2R 7906   0.799   1.033  10.192  1.1278  2.4659 -1.4251
   84SAPS   H2S 7907   0.968   1.067  10.246 -1.3076 -0.0775  1.4317
   84SAPS    C3 7908   0.622   1.077  10.552  0.1725 -0.5283 -0.4795
   84SAPS    HX 7909   0.643   1.178  10.512  2.4773 -0.3843  0.9001
   84SAPS    HY 7910   0.552   1.082  10.639 -1.0305  0.6738 -1.4832
   84SAPS   O31 7911   0.558   1.009  10.442 -0.1522  0.3171  0.2002
   84SAPS   C31 7912   0.480   0.908  10.478  0.0860  0.9017 -0.0870
   84SAPS   O32 7913   0.473   0.859  10.590  0.3856 -0.3895  0.2924
   84SAPS   C32 7914   0.408   0.861  10.349  0.2819  0.2292 -0.3034
   84SAPS   H2X 7915   0.465   0.904  10.264 -0.0356  2.3497  0.5147
   84SAPS   H2Y 7916   0.302   0.895  10.355 -0.7357 -2.8640  3.3415
   84SAPS   C23 7917   0.932   0.871  10.158  0.6762 -1.1317  0.5357
   84SAPS   H3R 7918   0.855   0.791  10.158 -1.6400  0.9599 -0.0233
   84SAPS   H3S 7919   1.025   0.818  10.191  1.5400  0.6186  1.0217
   84SAPS   C24 7920   0.968   0.925  10.017  0.0043  0.1592 -0.1291
   84SAPS   H4R 7921   1.023   0.843   9.966 -1.3414 -1.2923  0.6963
   84SAPS   H4S 7922   1.057   0.992  10.022 -0.1914  0.4335 -0.2696
   84SAPS   C25 7923   0.857   0.979   9.923 -0.2866  0.3468  0.0340
   84SAPS   H5R 7924   0.811   1.069   9.966 -0.0406 -0.3007  1.7285
   84SAPS   C26 7925   0.814   0.923   9.807 -0.2812  0.1354  0.1826
   84SAPS   H6R 7926   0.728   0.969   9.756 -0.8027 -0.2148  0.7247
   84SAPS   C27 7927   0.871   0.791   9.751  0.2446  0.2939  0.2509
   84SAPS   H7R 7928   0.944   0.733   9.810  0.5510 -0.6068 -0.9829
   84SAPS   H7S 7929   0.928   0.809   9.657  0.0242 -1.8882 -0.3515
   84SAPS   C28 7930   0.762   0.696   9.710  1.1392  0.4445 -0.2569
   84SAPS   H8R 7931   0.698   0.651   9.787 -2.0160  0.8744 -2.4573
   84SAPS   C29 7932   0.714   0.686   9.588  0.5165 -0.9674  0.8764
   84SAPS   H9R 7933   0.633   0.615   9.565  0.3740 -0.8768  1.0853
   84SAPS  C210 7934   0.755   0.778   9.467  0.3994 -0.4289  0.4460
   84SAPS  H10R 7935   0.816   0.866   9.494 -1.0974  1.3258 -1.5275
   84SAPS  H10S 7936   0.661   0.822   9.426  1.6756  1.1012 -0.9551
   84SAPS  C211 7937   0.831   0.693   9.370 -0.1710  0.6179  0.0361
   84SAPS  H11R 7938   0.916   0.645   9.419 -0.1342  1.5247  0.8832
   84SAPS  C212 7939   0.799   0.652   9.245 -0.1595  0.1053 -0.0178
   84SAPS  H12R 7940   0.875   0.593   9.190  0.4062 -0.4643  1.3332
   84SAPS  C213 7941   0.684   0.699   9.161 -0.7797  1.0676  0.7750
   84SAPS  H13R 7942   0.663   0.808   9.165 -1.9390  0.8252  3.3336
   84SAPS  H13S 7943   0.593   0.660   9.211 -1.7616  0.8526 -1.0889
   84SAPS  C214 7944   0.679   0.644   9.021  0.5560 -0.0962 -0.0478
   84SAPS  H14R 7945   0.649   0.539   9.014 -2.4058  0.6665 -0.0977
   84SAPS  C215 7946   0.721   0.712   8.910  0.2299  0.7545 -0.0606
   84SAPS  H15R 7947   0.704   0.658   8.817 -1.4632 -1.2628  1.3403
   84SAPS  C216 7948   0.780   0.853   8.897  0.0351  0.4677 -0.5302
   84SAPS  H16R 7949   0.738   0.924   8.972 -0.2678  0.0153 -0.2626
   84SAPS  H16S 7950   0.751   0.890   8.796 -0.3976 -1.1643 -1.0481
   84SAPS  C217 7951   0.927   0.859   8.900  0.0282 -0.1205  0.3684
   84SAPS  H17R 7952   0.958   0.814   8.803 -0.5548 -1.4060  0.7511
   84SAPS  H17S 7953   0.972   0.794   8.979 -0.7080  0.2096  1.0679
   84SAPS  C218 7954   1.000   0.995   8.913  0.5565 -0.0279  0.1491
   84SAPS  H18R 7955   0.984   1.057   8.822  0.1608  1.0290  0.9227
   84SAPS  H18S 7956   1.111   0.981   8.910  0.6867  0.8926  0.4068
   84SAPS  C219 7957   0.967   1.080   9.037  0.1712 -0.6154 -0.3322
   84SAPS  H19R 7958   0.959   1.007   9.121 -1.1515  1.1407  1.1569
   84SAPS  H19S 7959   0.863   1.114   9.020  0.8063  1.0137 -1.1770
   84SAPS  C220 7960   1.059   1.198   9.068  0.2143  0.0085  0.0638
   84SAPS  H20R 7961   0.997   1.288   9.089 -0.4995 -0.5653  0.4623
   84SAPS  H20S 7962   1.136   1.208   8.988  1.8516 -0.5864  1.4881
   84SAPS  H20T 7963   1.118   1.188   9.162 -0.0147  2.1835  0.4947
   84SAPS   C33 7964   0.411   0.705  10.342  0.0912  0.0512  1.0369
   84SAPS   H3X 7965   0.368   0.669  10.438 -1.9057  0.1069  0.2002
   84SAPS   H3Y 7966   0.514   0.664  10.353 -0.7552 -1.8352  2.6230
   84SAPS   C34 7967   0.337   0.651  10.212  0.3422 -0.7715 -0.5209
   84SAPS   H4X 7968   0.229   0.641  10.235  0.2304 -0.8980 -1.1005
   84SAPS   H4Y 7969   0.365   0.544  10.203  0.4455 -0.6103 -2.4983
   84SAPS   C35 7970   0.361   0.740  10.087  0.1543 -0.0082 -0.4410
   84SAPS   H5X 7971   0.471   0.742  10.077  0.2310 -0.1724  0.3188
   84SAPS   H5Y 7972   0.322   0.842  10.105  2.3185  0.9571 -0.9246
   84SAPS   C36 7973   0.296   0.680   9.961 -0.4265  0.0334  1.1998
   84SAPS   H6X 7974   0.186   0.693   9.967 -0.3583  1.2131  0.2707
   84SAPS   H6Y 7975   0.315   0.570   9.964  2.3579  0.3887 -0.1103
   84SAPS   C37 7976   0.352   0.735   9.831 -0.3422  0.0402  0.4829
   84SAPS   H7X 7977   0.453   0.692   9.812 -0.6062 -0.5812  0.4487
   84SAPS   H7Y 7978   0.365   0.845   9.832 -0.2458  0.0874 -1.4837
   84SAPS   C38 7979   0.262   0.693   9.711  0.3529 -0.0591 -0.3692
   84SAPS   H8X 7980   0.176   0.764   9.706 -0.2143 -0.7970 -1.7458
   84SAPS   H8Y 7981   0.225   0.590   9.731  1.3357 -1.0326 -3.1405
   84SAPS   C39 7982   0.332   0.697   9.578 -0.4707 -0.5183  0.4743
   84SAPS   H9X 7983   0.417   0.626   9.580  1.1054  1.2164  3.5194
   84SAPS   H9Y 7984   0.375   0.797   9.556  1.4786 -1.1479  1.1963
   84SAPS  C310 7985   0.230   0.647   9.469 -0.6276  0.0537 -0.0633
   84SAPS  H10X 7986   0.138   0.708   9.485 -0.2849  0.3049  1.0156
   84SAPS  H10Y 7987   0.201   0.541   9.486 -1.6937  0.1660 -1.0416
   84SAPS  C311 7988   0.281   0.665   9.323  0.0561 -0.4120 -1.1240
   84SAPS  H11X 7989   0.388   0.637   9.311  0.5760  1.5565 -1.3687
   84SAPS  H11Y 7990   0.287   0.776   9.317  0.4283 -0.4682 -1.8477
   84SAPS  C312 7991   0.191   0.624   9.205  0.5201  0.3930  0.3275
   84SAPS  H12X 7992   0.096   0.681   9.204  0.5956  0.5765 -2.0832
   84SAPS  H12Y 7993   0.163   0.520   9.232  1.4123  0.1785  0.4725
   84SAPS  C313 7994   0.255   0.633   9.064  0.6196 -0.2834 -0.4174
   84SAPS  H13X 7995   0.350   0.575   9.074 -0.1747 -1.3840  1.2561
   84SAPS  H13Y 7996   0.270   0.742   9.050 -2.3168 -0.0978 -3.0513
   84SAPS  C314 7997   0.161   0.577   8.963  0.1211 -0.6481  0.5136
   84SAPS  H14X 7998   0.064   0.630   8.967  1.1970  1.8179 -2.6389
   84SAPS  H14Y 7999   0.151   0.468   8.981  1.1409 -0.5930  1.5404
   84SAPS  C315 8000   0.200   0.614   8.813 -0.1491 -0.1071  0.3358
   84SAPS  H15X 8001   0.234   0.720   8.805  1.7085 -0.7137 -0.5917
   84SAPS  H15Y 8002   0.107   0.613   8.753 -0.0341 -1.4983  0.1590
   84SAPS  C316 8003   0.299   0.519   8.749 -0.3475  0.5762  0.2192
   84SAPS  H16X 8004   0.255   0.419   8.733  1.0387 -0.1953  1.0288
   84SAPS  H16Y 8005   0.390   0.505   8.812  1.4167  0.2481 -2.2551
   84SAPS  C317 8006   0.347   0.579   8.615  0.6020 -0.2891 -0.2002
   84SAPS  H17X 8007   0.381   0.684   8.622 -1.7920  0.4905  0.6076
   84SAPS  H17Y 8008   0.260   0.581   8.547  2.0473  1.0941 -2.1195
   84SAPS  C318 8009   0.453   0.500   8.543  0.5100 -0.5385  0.0600
   84SAPS  H18X 8010   0.483   0.553   8.450  3.1682  0.7554  1.5357
   84SAPS  H18Y 8011   0.410   0.405   8.505  2.2783 -0.1591 -3.3493
   84SAPS  H18Z 8012   0.539   0.472   8.608 -0.1305 -1.5909  0.4708
   85SAPS     N 8013   4.848   2.781  10.942 -0.3410  0.3686  0.2470
   85SAPS   HN1 8014   4.805   2.820  10.855 -1.0798 -4.3865 -1.8062
   85SAPS   HN2 8015   4.775   2.766  11.014 -0.9247 -0.2736 -0.4670
   85SAPS   HN3 8016   4.904   2.855  10.989  0.1911  1.0283 -1.3212
   85SAPS   C12 8017   4.922   2.654  10.922 -0.3205  0.1010 -0.1503
   85SAPS  H12A 8018   5.017   2.685  10.882  0.3233  0.1964  1.3717
   85SAPS   C13 8019   4.949   2.579  11.058  0.4108 -0.3447 -0.1450
   85SAPS  O13A 8020   4.884   2.592  11.163  0.1149 -0.4407  0.0854
   85SAPS  O13B 8021   5.033   2.487  11.040 -0.5438 -0.3405 -0.1839
   85SAPS   C11 8022   4.847   2.567  10.812 -0.3879  0.2738 -0.0451
   85SAPS  H11A 8023   4.911   2.477  10.799 -2.8186 -1.8879  1.9123
   85SAPS  H11B 8024   4.838   2.624  10.717  1.1161  3.9926  1.8420
   85SAPS     P 8025   4.659   2.393  10.809  0.3819 -0.8563  0.1861
   85SAPS   O13 8026   4.713   2.296  10.907 -0.6400 -0.2941  0.2486
   85SAPS   O14 8027   4.512   2.393  10.795  0.3354  1.0405 -0.5433
   85SAPS   O12 8028   4.713   2.535  10.854 -0.4479  0.0609  0.7268
   85SAPS   O11 8029   4.722   2.362  10.666  0.1374 -0.3182 -0.4634
   85SAPS    C1 8030   4.650   2.405  10.553  0.4535  0.0352  0.3386
   85SAPS    HA 8031   4.554   2.348  10.556  1.6772 -2.0833  1.4424
   85SAPS    HB 8032   4.631   2.514  10.544 -0.0806 -0.0676  0.1620
   85SAPS    C2 8033   4.714   2.358  10.419  0.1485  0.1696 -0.0494
   85SAPS    HS 8034   4.661   2.391  10.326 -1.0195 -0.9123  0.1983
   85SAPS   O21 8035   4.766   2.224  10.412  0.4204 -0.4173 -0.8123
   85SAPS   C21 8036   4.683   2.145  10.346 -0.2833 -0.2617  0.0744
   85SAPS   O22 8037   4.582   2.177  10.289 -0.3484 -0.7052 -0.3534
   85SAPS   C22 8038   4.745   2.006  10.325 -0.9987  0.2828 -0.6191
   85SAPS   H2R 8039   4.837   2.015  10.386 -0.6404  1.1854 -1.2602
   85SAPS   H2S 8040   4.686   1.937  10.388  0.8851 -1.4723 -0.6679
   85SAPS    C3 8041   4.840   2.446  10.411  0.2218  0.5718  0.0129
   85SAPS    HX 8042   4.912   2.424  10.492  0.4860 -2.0121 -0.8313
   85SAPS    HY 8043   4.803   2.551  10.418  0.8194  0.6766  2.4633
   85SAPS   O31 8044   4.922   2.422  10.291  0.8089 -0.3222  0.4728
   85SAPS   C31 8045   4.901   2.510  10.193  0.4936 -0.2272 -0.8761
   85SAPS   O32 8046   4.809   2.592  10.188  0.7026  0.1911 -0.7110
   85SAPS   C32 8047   5.003   2.485  10.078  0.9089  0.3276 -0.4675
   85SAPS   H2X 8048   4.983   2.389  10.027 -0.2715  0.1709  0.2452
   85SAPS   H2Y 8049   5.104   2.467  10.120  0.9079 -1.7420 -1.2304
   85SAPS   C23 8050   4.769   1.958  10.181 -0.3877  0.2181  0.1950
   85SAPS   H3R 8051   4.674   1.945  10.125 -0.3315 -2.2489  0.5503
   85SAPS   H3S 8052   4.806   1.854  10.192  0.1530  0.4484  0.5907
   85SAPS   C24 8053   4.871   2.042  10.110  0.1741  0.4929  0.5835
   85SAPS   H4R 8054   4.828   2.144  10.105 -0.8012  0.1680  1.7873
   85SAPS   H4S 8055   4.882   1.999  10.008  0.0849  0.7195  0.4798
   85SAPS   C25 8056   5.007   2.035  10.175  0.7405 -0.3940  1.0032
   85SAPS   H5R 8057   5.031   2.116  10.246  1.3025  2.1819 -1.9019
   85SAPS   C26 8058   5.083   1.927  10.171 -0.4665 -0.2379 -0.0146
   85SAPS   H6R 8059   5.173   1.938  10.233 -0.2118 -2.5823  0.1188
   85SAPS   C27 8060   5.070   1.793  10.094 -0.4407 -0.1301 -0.0853
   85SAPS   H7R 8061   5.164   1.773  10.038 -0.0328  0.6112  0.3247
   85SAPS   H7S 8062   4.989   1.813  10.020  0.8271 -2.8336 -2.4030
   85SAPS   C28 8063   5.020   1.668  10.161  0.4536  0.6202 -0.3430
   85SAPS   H8R 8064   4.947   1.688  10.240  1.9515 -1.7535  1.8014
   85SAPS   C29 8065   5.064   1.542  10.137 -0.1989  0.3707  0.0696
   85SAPS   H9R 8066   5.010   1.463  10.192 -1.6917  1.6473  0.5143
   85SAPS  C210 8067   5.170   1.490  10.039 -0.3137  0.3521  0.0277
   85SAPS  H10R 8068   5.170   1.379  10.036  0.1011  0.3006  1.3192
   85SAPS  H10S 8069   5.267   1.529  10.076 -0.8586  2.3961 -0.5588
   85SAPS  C211 8070   5.160   1.548   9.898  0.0433  0.1871  0.3479
   85SAPS  H11R 8071   5.063   1.590   9.868 -1.0478 -2.2257  0.3010
   85SAPS  C212 8072   5.260   1.541   9.807  0.6322 -0.0737 -0.5058
   85SAPS  H12R 8073   5.244   1.575   9.704 -1.3948 -1.8702 -0.8603
   85SAPS  C213 8074   5.396   1.482   9.837  0.0431  0.4121 -0.0690
   85SAPS  H13R 8075   5.406   1.457   9.945 -0.8954  0.8527  0.1282
   85SAPS  H13S 8076   5.470   1.565   9.827 -0.3689  0.8676  0.5695
   85SAPS  C214 8077   5.433   1.361   9.762 -0.1391 -0.1988 -0.0425
   85SAPS  H14R 8078   5.405   1.266   9.810  3.0089 -1.5979 -0.6799
   85SAPS  C215 8079   5.510   1.344   9.649 -0.9659 -0.0184  0.3918
   85SAPS  H15R 8080   5.538   1.243   9.615  0.2835  0.1303  0.9386
   85SAPS  C216 8081   5.570   1.458   9.571 -0.2630 -0.6179 -0.6929
   85SAPS  H16R 8082   5.681   1.455   9.572 -0.2215  0.3922  0.8551
   85SAPS  H16S 8083   5.542   1.561   9.600  1.9502  0.8889 -3.4559
   85SAPS  C217 8084   5.533   1.454   9.425  0.1790  0.1715  0.5879
   85SAPS  H17R 8085   5.539   1.346   9.400  1.0935  0.0158  1.4158
   85SAPS  H17S 8086   5.617   1.499   9.368 -0.3181  0.6439  0.2106
   85SAPS  C218 8087   5.385   1.493   9.394  0.2793 -0.9313 -0.3139
   85SAPS  H18R 8088   5.312   1.464   9.473 -0.9242 -1.2641 -1.5274
   85SAPS  H18S 8089   5.342   1.460   9.298 -2.7506  1.1759  0.1585
   85SAPS  C219 8090   5.361   1.646   9.386  0.0370  0.2507 -1.1371
   85SAPS  H19R 8091   5.436   1.694   9.452 -2.5108  0.7183  1.6469
   85SAPS  H19S 8092   5.265   1.681   9.430 -0.8780 -2.6473 -0.5361
   85SAPS  C220 8093   5.370   1.692   9.243  0.5871 -0.3498 -0.2248
   85SAPS  H20R 8094   5.306   1.625   9.181 -3.8593  1.5806  1.8228
   85SAPS  H20S 8095   5.475   1.680   9.208  0.0287  2.1257 -3.1920
   85SAPS  H20T 8096   5.338   1.799   9.234 -0.2958 -0.5587  0.3099
   85SAPS   C33 8097   4.998   2.597   9.965 -1.0030  0.7542 -0.3209
   85SAPS   H3X 8098   5.041   2.697   9.985  0.1369  0.1987  0.1009
   85SAPS   H3Y 8099   4.890   2.615   9.946 -1.3237 -0.5225  0.2007
   85SAPS   C34 8100   5.074   2.540   9.840  0.0709 -0.1122  0.2806
   85SAPS   H4X 8101   5.012   2.460   9.796  0.9834 -0.9170  0.4276
   85SAPS   H4Y 8102   5.164   2.499   9.890 -1.2701 -0.8909  2.1369
   85SAPS   C35 8103   5.100   2.649   9.734 -0.2188 -0.2750  0.1135
   85SAPS   H5X 8104   5.148   2.744   9.765 -2.1211  0.9633 -0.5768
   85SAPS   H5Y 8105   4.997   2.684   9.717  0.0913  0.4925 -0.2209
   85SAPS   C36 8106   5.181   2.592   9.611  0.4282 -0.3702 -0.3900
   85SAPS   H6X 8107   5.142   2.491   9.587 -2.2089  0.1907  1.1827
   85SAPS   H6Y 8108   5.288   2.578   9.640  0.2071 -0.8403  0.2327
   85SAPS   C37 8109   5.155   2.679   9.484 -0.7053  0.4133 -0.1511
   85SAPS   H7X 8110   5.184   2.784   9.504  0.6230 -0.0981  0.7025
   85SAPS   H7Y 8111   5.045   2.676   9.464 -1.0057  0.6318  1.3046
   85SAPS   C38 8112   5.232   2.627   9.364  0.5252 -0.3800  0.1165
   85SAPS   H8X 8113   5.198   2.522   9.352 -0.2424 -0.3089  1.5878
   85SAPS   H8Y 8114   5.339   2.637   9.392  0.4921 -0.9084  0.4460
   85SAPS   C39 8115   5.187   2.701   9.248 -0.0993 -0.1110  0.4330
   85SAPS   H9X 8116   5.213   2.807   9.268 -1.0414  0.4164 -0.9523
   85SAPS   H9Y 8117   5.076   2.696   9.238  0.1033 -2.6766 -1.7942
   85SAPS  C310 8118   5.264   2.668   9.126  0.1342 -0.8143  0.3816
   85SAPS  H10X 8119   5.236   2.568   9.086  0.4816 -1.4463  1.6575
   85SAPS  H10Y 8120   5.369   2.650   9.158 -0.3607  0.1714  2.7912
   85SAPS  C311 8121   5.252   2.769   9.011 -0.0922  0.3083 -0.3884
   85SAPS  H11X 8122   5.304   2.864   9.036  0.3565  0.3628 -1.4796
   85SAPS  H11Y 8123   5.147   2.803   9.002 -0.3821 -0.3016  0.5694
   85SAPS  C312 8124   5.301   2.718   8.874  0.3894  0.4879 -0.3441
   85SAPS  H12X 8125   5.231   2.635   8.850 -0.5634  1.8365 -2.5129
   85SAPS  H12Y 8126   5.407   2.690   8.857 -0.1053 -0.8647 -1.4422
   85SAPS  C313 8127   5.279   2.833   8.764 -0.0692 -0.3372 -0.4176
   85SAPS  H13X 8128   5.322   2.930   8.797  0.3299  0.2034 -2.3583
   85SAPS  H13Y 8129   5.169   2.849   8.763 -0.1116 -0.5591  0.3539
   85SAPS  C314 8130   5.329   2.798   8.625  0.5354  0.0857 -0.1389
   85SAPS  H14X 8131   5.269   2.712   8.588 -0.1394 -0.0090  1.1415
   85SAPS  H14Y 8132   5.435   2.765   8.619 -0.1056 -1.8758 -2.4289
   85SAPS  C315 8133   5.308   2.914   8.525 -0.5294 -0.1141  0.2767
   85SAPS  H15X 8134   5.358   3.006   8.562  0.2689  0.7351 -2.7048
   85SAPS  H15Y 8135   5.200   2.940   8.518 -0.2650  0.7423 -0.8504
   85SAPS  C316 8136   5.355   2.873   8.388 -0.2504  0.8257 -0.5120
   85SAPS  H16X 8137   5.299   2.790   8.339 -0.9238  1.2113 -0.4009
   85SAPS  H16Y 8138   5.459   2.835   8.397  0.1420  2.0302  0.1003
   85SAPS  C317 8139   5.369   2.994   8.298  0.2872 -0.3437 -0.0305
   85SAPS  H17X 8140   5.442   2.980   8.216  0.5071  0.4361  0.0237
   85SAPS  H17Y 8141   5.416   3.070   8.364  4.7074 -1.9793 -0.9100
   85SAPS  C318 8142   5.235   3.049   8.239  0.0744 -0.4898 -0.0601
   85SAPS  H18X 8143   5.149   3.054   8.309 -0.2778  2.0616 -0.5633
   85SAPS  H18Y 8144   5.218   2.982   8.152  2.3498  0.9513 -1.7240
   85SAPS  H18Z 8145   5.256   3.152   8.205 -0.6850  0.3848  1.9575
   86SAPS     N 8146   0.559   2.032  10.562 -0.3498 -0.0782  0.0543
   86SAPS   HN1 8147   0.615   1.944  10.562  2.4338  1.4941  2.7937
   86SAPS   HN2 8148   0.478   2.021  10.626 -2.2312  2.3336 -1.7392
   86SAPS   HN3 8149   0.520   2.061  10.470 -1.8978  1.1936  1.0567
   86SAPS   C12 8150   0.657   2.130  10.621  0.6566  0.6243 -0.0807
   86SAPS  H12A 8151   0.603   2.222  10.639  2.9989  2.5787 -2.1601
   86SAPS   C13 8152   0.685   2.096  10.769  0.1831 -0.6764  0.9212
   86SAPS  O13A 8153   0.624   2.006  10.825 -0.1960 -0.1713 -0.0116
   86SAPS  O13B 8154   0.752   2.182  10.836  0.0235 -0.6575  0.0695
   86SAPS   C11 8155   0.777   2.169  10.526  0.2624 -0.4620 -0.4369
   86SAPS  H11A 8156   0.851   2.225  10.586  0.4589  1.0566 -2.0085
   86SAPS  H11B 8157   0.737   2.238  10.448  4.2963  1.4812 -1.0571
   86SAPS     P 8158   0.910   2.086  10.329 -0.0362 -0.0961  0.1342
   86SAPS   O13 8159   0.902   2.234  10.300 -0.0262  0.1066 -0.5141
   86SAPS   O14 8160   1.046   2.025  10.321 -0.5502 -0.7446 -0.3486
   86SAPS   O12 8161   0.839   2.055  10.470  0.8976  0.3691 -0.5518
   86SAPS   O11 8162   0.822   2.005  10.222 -0.8764 -0.2761  0.5264
   86SAPS    C1 8163   0.828   1.860  10.211  0.3584 -0.3855  0.6658
   86SAPS    HA 8164   0.894   1.821  10.291  0.0101  0.1425  1.2175
   86SAPS    HB 8165   0.733   1.818  10.250  0.5308 -0.4706  0.9972
   86SAPS    C2 8166   0.853   1.812  10.063 -0.3677 -0.5265 -0.5389
   86SAPS    HS 8167   0.859   1.701  10.072 -0.4832 -0.4745  0.2292
   86SAPS   O21 8168   0.968   1.865   9.997  0.1834 -0.5683 -0.2165
   86SAPS   C21 8169   1.081   1.845  10.064  0.6706 -0.2980 -0.8628
   86SAPS   O22 8170   1.104   1.759  10.147  0.2948  0.2465 -1.0186
   86SAPS   C22 8171   1.194   1.931  10.007 -0.0663 -0.0040  0.3676
   86SAPS   H2R 8172   1.178   1.941   9.897  2.2527  0.3949  0.0310
   86SAPS   H2S 8173   1.187   2.033  10.049  2.0415  0.7491 -0.9780
   86SAPS    C3 8174   0.720   1.840   9.976 -0.8265  0.0911 -0.3108
   86SAPS    HX 8175   0.721   1.950   9.963  2.5845 -0.1192 -3.4872
   86SAPS    HY 8176   0.637   1.808  10.042  0.8447 -2.1788  0.8249
   86SAPS   O31 8177   0.726   1.779   9.848 -0.0283  0.0231  0.3239
   86SAPS   C31 8178   0.695   1.653   9.842  0.1377  0.4487 -0.4661
   86SAPS   O32 8179   0.678   1.579   9.939  0.2387 -0.0919  0.0192
   86SAPS   C32 8180   0.677   1.614   9.699  0.5233  0.0627 -0.0452
   86SAPS   H2X 8181   0.741   1.679   9.635  1.5346 -0.5280  0.3312
   86SAPS   H2Y 8182   0.573   1.645   9.677  0.9225  1.0719 -0.5885
   86SAPS   C23 8183   1.332   1.861  10.028 -0.1376 -0.0394 -0.4887
   86SAPS   H3R 8184   1.330   1.760   9.983  1.1547  0.2180 -1.1752
   86SAPS   H3S 8185   1.346   1.872  10.138 -3.0339 -3.0704  0.3338
   86SAPS   C24 8186   1.445   1.932   9.959  0.0510 -0.6442 -1.3961
   86SAPS   H4R 8187   1.538   1.880   9.989  0.2173  1.1838  1.7251
   86SAPS   H4S 8188   1.453   2.035  10.000 -0.3605 -1.3407  0.5210
   86SAPS   C25 8189   1.429   1.936   9.810  0.6745  0.0907 -0.4162
   86SAPS   H5R 8190   1.341   1.995   9.782 -0.2559 -1.6512 -1.3956
   86SAPS   C26 8191   1.507   1.877   9.713  0.4917 -0.2967  0.0339
   86SAPS   H6R 8192   1.452   1.882   9.618  0.1338 -3.8343 -0.0622
   86SAPS   C27 8193   1.637   1.805   9.727  0.2390 -0.6359  0.4541
   86SAPS   H7R 8194   1.631   1.748   9.822 -1.5007 -0.1034  0.6995
   86SAPS   H7S 8195   1.711   1.888   9.736  0.9292 -1.2147  0.1902
   86SAPS   C28 8196   1.659   1.714   9.609 -0.5993 -0.2427  0.1474
   86SAPS   H8R 8197   1.597   1.624   9.611  1.9746 -2.2098 -1.3825
   86SAPS   C29 8198   1.738   1.743   9.500  0.7700  0.1039 -0.4411
   86SAPS   H9R 8199   1.750   1.664   9.425  1.6039  0.0607 -0.2741
   86SAPS  C210 8200   1.824   1.864   9.466 -0.0564  0.2732  0.1461
   86SAPS  H10R 8201   1.917   1.833   9.413 -0.0895 -0.0351  0.2715
   86SAPS  H10S 8202   1.852   1.917   9.559  2.4064  0.1851 -0.4665
   86SAPS  C211 8203   1.741   1.957   9.379 -1.0424  0.2645 -0.4936
   86SAPS  H11R 8204   1.634   1.968   9.402 -0.9840  1.7503 -0.8226
   86SAPS  C212 8205   1.794   2.036   9.283  0.2279 -0.0402 -0.2652
   86SAPS  H12R 8206   1.722   2.095   9.225  0.7813 -0.8377 -1.8201
   86SAPS  C213 8207   1.938   2.047   9.242  0.5287 -0.4602 -0.4278
   86SAPS  H13R 8208   1.958   1.961   9.174 -0.1323  0.6802 -2.1557
   86SAPS  H13S 8209   2.002   2.032   9.331  0.6492 -1.0888 -0.6164
   86SAPS  C214 8210   1.959   2.178   9.174  0.1370  0.2344  0.1799
   86SAPS  H14R 8211   1.931   2.270   9.227 -2.2838 -0.6136  0.4791
   86SAPS  C215 8212   2.012   2.212   9.057 -0.8164 -0.0264 -0.3592
   86SAPS  H15R 8213   2.034   2.314   9.024 -0.4283  0.1903  0.5423
   86SAPS  C216 8214   2.049   2.116   8.943  0.1504  0.2372  0.6504
   86SAPS  H16R 8215   2.049   2.012   8.983  2.2122 -0.0458  0.0165
   86SAPS  H16S 8216   2.152   2.133   8.906  0.7928 -0.2111  2.1617
   86SAPS  C217 8217   1.930   2.135   8.847 -0.3614 -0.1105  0.1031
   86SAPS  H17R 8218   1.917   2.239   8.812 -2.2437 -1.5366 -4.0983
   86SAPS  H17S 8219   1.844   2.099   8.909 -1.3259  0.4762 -0.8705
   86SAPS  C218 8220   1.960   2.054   8.722 -0.1742 -0.2656 -0.3295
   86SAPS  H18R 8221   2.000   1.954   8.751  3.4900  0.9384 -0.7176
   86SAPS  H18S 8222   2.053   2.103   8.687  0.3008  0.7722  2.1852
   86SAPS  C219 8223   1.851   2.048   8.607  0.0231 -0.4699 -0.1857
   86SAPS  H19R 8224   1.840   2.149   8.562  1.5529  0.9917  2.4631
   86SAPS  H19S 8225   1.754   2.019   8.651  0.5446  1.1487  2.2425
   86SAPS  C220 8226   1.879   1.950   8.491  0.3284  0.2235 -0.6917
   86SAPS  H20R 8227   1.968   1.992   8.439  0.7134  1.0396  0.5589
   86SAPS  H20S 8228   1.793   1.937   8.422 -0.1096 -0.7539  0.0231
   86SAPS  H20T 8229   1.900   1.851   8.536  1.2340  0.3432 -0.8245
   86SAPS   C33 8230   0.705   1.468   9.663  0.0485  0.5779  0.1003
   86SAPS   H3X 8231   0.608   1.418   9.683 -0.7886  0.7172 -3.0550
   86SAPS   H3Y 8232   0.775   1.416   9.732  0.8757 -1.3958 -2.1148
   86SAPS   C34 8233   0.746   1.445   9.516  0.1214 -0.0549  0.0457
   86SAPS   H4X 8234   0.799   1.348   9.503  1.2150 -0.0024  3.2302
   86SAPS   H4Y 8235   0.819   1.523   9.487 -2.2449  2.7560  1.1102
   86SAPS   C35 8236   0.639   1.467   9.418 -0.5223  0.2356 -0.5068
   86SAPS   H5X 8237   0.599   1.569   9.437  0.1671  0.5436 -0.6988
   86SAPS   H5Y 8238   0.552   1.400   9.439 -1.9877  1.5617 -2.0577
   86SAPS   C36 8239   0.689   1.453   9.277  0.4395  0.1685  0.2571
   86SAPS   H6X 8240   0.727   1.349   9.275  0.4650  0.1802 -0.0408
   86SAPS   H6Y 8241   0.776   1.512   9.243 -0.2910  1.6334  0.8361
   86SAPS   C37 8242   0.583   1.472   9.173  0.2624  0.2834  0.3002
   86SAPS   H7X 8243   0.537   1.572   9.184  0.4175  0.4359 -0.3980
   86SAPS   H7Y 8244   0.498   1.404   9.193  0.1028  0.5122  0.4022
   86SAPS   C38 8245   0.626   1.447   9.032  0.3653 -0.5656  0.4835
   86SAPS   H8X 8246   0.644   1.338   9.025  2.6667 -0.2104  0.0529
   86SAPS   H8Y 8247   0.718   1.493   8.992  0.4681 -2.8622 -2.2043
   86SAPS   C39 8248   0.512   1.464   8.927  0.8149  0.3163  0.4430
   86SAPS   H9X 8249   0.484   1.572   8.934 -0.1256  0.1879 -0.8702
   86SAPS   H9Y 8250   0.413   1.420   8.947  0.4924  0.9994  0.3781
   86SAPS  C310 8251   0.545   1.416   8.783 -0.8505  0.2632 -0.4367
   86SAPS  H10X 8252   0.449   1.413   8.728 -0.8546  0.3477 -0.4343
   86SAPS  H10Y 8253   0.594   1.317   8.795 -2.0348 -0.1765  0.9659
   86SAPS  C311 8254   0.662   1.487   8.718 -0.2010  0.3804 -0.3086
   86SAPS  H11X 8255   0.748   1.471   8.786  0.9774 -2.5554 -2.3119
   86SAPS  H11Y 8256   0.647   1.597   8.704  1.6375  0.5948 -0.8865
   86SAPS  C312 8257   0.689   1.430   8.581 -0.2663 -0.5677 -0.5845
   86SAPS  H12X 8258   0.599   1.425   8.516 -0.6571  0.0458 -0.0935
   86SAPS  H12Y 8259   0.722   1.324   8.595 -0.3061 -0.9594 -2.9028
   86SAPS  C313 8260   0.801   1.506   8.512  0.0820 -0.6014  0.0489
   86SAPS  H13X 8261   0.777   1.613   8.533  2.1205 -0.2947  1.0790
   86SAPS  H13Y 8262   0.797   1.497   8.402  1.4193 -0.0695 -0.0664
   86SAPS  C314 8263   0.944   1.458   8.556  0.0696 -0.7484 -0.0872
   86SAPS  H14X 8264   0.945   1.430   8.663  1.1996 -1.1774 -0.1979
   86SAPS  H14Y 8265   1.017   1.540   8.541 -1.7648  1.4832  2.2998
   86SAPS  C315 8266   0.987   1.334   8.478  0.4047  0.3109 -0.0352
   86SAPS  H15X 8267   0.997   1.363   8.371 -1.6394 -0.9763 -0.6226
   86SAPS  H15Y 8268   0.916   1.249   8.483  0.2708  0.4071 -0.2858
   86SAPS  C316 8269   1.120   1.277   8.536  0.5592  0.1904 -0.1490
   86SAPS  H16X 8270   1.101   1.242   8.639 -1.2401  1.2851 -0.0753
   86SAPS  H16Y 8271   1.203   1.350   8.550  1.6770 -0.8812 -0.8740
   86SAPS  C317 8272   1.176   1.155   8.456  0.3299 -0.2946  0.6291
   86SAPS  H17X 8273   1.279   1.131   8.489  0.6255 -2.6198 -1.6458
   86SAPS  H17Y 8274   1.183   1.181   8.348 -1.0338 -3.1471 -0.2621
   86SAPS  C318 8275   1.097   1.016   8.454 -0.0819 -0.2199  0.2323
   86SAPS  H18X 8276   1.141   0.956   8.372 -0.0250  1.9067 -1.3901
   86SAPS  H18Y 8277   0.994   1.051   8.433  1.1248  3.0425 -0.8195
   86SAPS  H18Z 8278   1.102   0.961   8.551  0.7933 -1.3004 -0.3986
   87SAPS     N 8279   6.464   2.813  10.840  0.4119 -0.2113 -0.0896
   87SAPS   HN1 8280   6.495   2.871  10.760 -0.5683  0.4538 -0.0061
   87SAPS   HN2 8281   6.448   2.876  10.921 -1.9306 -1.8090  0.7819
   87SAPS   HN3 8282   6.549   2.755  10.856  1.0198  0.3952 -1.0040
   87SAPS   C12 8283   6.327   2.765  10.799 -0.4204  0.6787  0.3167
   87SAPS  H12A 8284   6.326   2.708  10.707  0.8816 -2.8382  2.2684
   87SAPS   C13 8285   6.254   2.666  10.898  0.0234 -0.1243 -0.3067
   87SAPS  O13A 8286   6.306   2.629  11.006  0.1405  0.3130  0.6506
   87SAPS  O13B 8287   6.161   2.602  10.844 -0.2223  0.1197 -0.6949
   87SAPS   C11 8288   6.236   2.893  10.799  1.1289  0.3199  0.1063
   87SAPS  H11A 8289   6.231   2.940  10.899  0.6285 -0.1340  0.2935
   87SAPS  H11B 8290   6.136   2.853  10.772  1.9200 -2.0820  0.5187
   87SAPS     P 8291   6.175   3.119  10.682 -0.0316  0.3918  0.1347
   87SAPS   O13 8292   6.060   3.056  10.611 -0.0371  0.4044 -0.1123
   87SAPS   O14 8293   6.144   3.194  10.810  0.4609  0.6381 -0.2209
   87SAPS   O12 8294   6.278   3.001  10.711 -0.2227 -0.3586 -0.3638
   87SAPS   O11 8295   6.257   3.205  10.585 -0.4939 -0.5319  0.5245
   87SAPS    C1 8296   6.245   3.350  10.585 -0.0879  0.0894 -0.0859
   87SAPS    HA 8297   6.173   3.394  10.656 -0.7252  1.6058 -1.6088
   87SAPS    HB 8298   6.346   3.388  10.613 -0.2799  0.2486  0.3879
   87SAPS    C2 8299   6.193   3.403  10.448  0.2011  0.8327  0.0182
   87SAPS    HS 8300   6.098   3.352  10.424  1.5661 -0.9253 -2.0815
   87SAPS   O21 8301   6.290   3.358  10.350  0.6415  0.0100  0.3823
   87SAPS   C21 8302   6.248   3.330  10.224 -0.1539 -0.0017 -0.0920
   87SAPS   O22 8303   6.134   3.328  10.183 -0.5654 -1.1282 -0.7547
   87SAPS   C22 8304   6.366   3.289  10.130  0.4840  0.1522  0.2030
   87SAPS   H2R 8305   6.456   3.263  10.190  0.5957  3.2667  1.5799
   87SAPS   H2S 8306   6.330   3.193  10.087  0.2513  0.3594 -0.0688
   87SAPS    C3 8307   6.167   3.559  10.441 -0.4500  0.5952 -0.0457
   87SAPS    HX 8308   6.250   3.603  10.501 -0.9921 -0.2071  1.3358
   87SAPS    HY 8309   6.083   3.596  10.503 -0.1474 -0.1942  0.8613
   87SAPS   O31 8310   6.161   3.615  10.302 -0.2467  0.2727 -0.4476
   87SAPS   C31 8311   6.038   3.614  10.245 -1.2940  0.8833  0.3641
   87SAPS   O32 8312   5.933   3.580  10.284 -0.5783 -0.4633 -0.3333
   87SAPS   C32 8313   6.073   3.627  10.097 -1.1898  0.3489  0.3317
   87SAPS   H2X 8314   6.057   3.530  10.044  2.1293 -0.0792 -0.1013
   87SAPS   H2Y 8315   6.180   3.653  10.089 -0.9715 -0.7199 -0.5458
   87SAPS   C23 8316   6.398   3.386  10.022 -0.5819  0.2194  0.9400
   87SAPS   H3R 8317   6.500   3.372   9.980 -0.8037 -0.8655  0.7184
   87SAPS   H3S 8318   6.390   3.491  10.057 -3.8819  0.7303 -0.8271
   87SAPS   C24 8319   6.321   3.365   9.889  0.5329  0.4660  0.2324
   87SAPS   H4R 8320   6.214   3.355   9.915  0.2477  3.3520  0.4960
   87SAPS   H4S 8321   6.358   3.266   9.853  0.5138  1.6345 -3.3875
   87SAPS   C25 8322   6.333   3.477   9.787  0.1723  0.4067  0.0704
   87SAPS   H5R 8323   6.321   3.575   9.837  0.0541  0.5292 -0.1962
   87SAPS   C26 8324   6.354   3.465   9.655 -0.8873 -0.4013  0.1986
   87SAPS   H6R 8325   6.344   3.553   9.590  0.4296 -1.2418 -1.2140
   87SAPS   C27 8326   6.364   3.340   9.581 -0.3637  0.3882  0.1583
   87SAPS   H7R 8327   6.310   3.351   9.484  0.0774 -1.0894 -0.2898
   87SAPS   H7S 8328   6.316   3.249   9.624 -0.9224  0.2272 -0.7595
   87SAPS   C28 8329   6.499   3.298   9.537 -0.8321 -0.1046 -0.1798
   87SAPS   H8R 8330   6.543   3.219   9.600  1.3349 -1.5156 -3.2070
   87SAPS   C29 8331   6.568   3.327   9.421 -0.5921  0.1569 -0.5388
   87SAPS   H9R 8332   6.660   3.270   9.404  0.1182  0.2071  2.6055
   87SAPS  C210 8333   6.520   3.427   9.318 -0.1050 -0.3547  0.2986
   87SAPS  H10R 8334   6.593   3.510   9.309 -0.6365  0.2054  0.9960
   87SAPS  H10S 8335   6.431   3.474   9.366 -1.6210 -0.8324 -1.8616
   87SAPS  C211 8336   6.473   3.362   9.191  0.6545  0.0660 -0.3958
   87SAPS  H11R 8337   6.367   3.332   9.195  0.2701  1.2897 -0.9646
   87SAPS  C212 8338   6.539   3.350   9.074  0.3010 -0.6750 -0.3893
   87SAPS  H12R 8339   6.500   3.287   8.992  0.8403 -0.8875 -0.4851
   87SAPS  C213 8340   6.681   3.392   9.046 -0.0275 -0.3492 -1.2649
   87SAPS  H13R 8341   6.732   3.299   9.012 -0.1915 -0.3646 -1.4755
   87SAPS  H13S 8342   6.731   3.437   9.134  0.3453  0.0887 -1.6999
   87SAPS  C214 8343   6.687   3.502   8.935 -0.8692  0.3912 -0.4591
   87SAPS  H14R 8344   6.592   3.539   8.895 -1.7365  0.7819  1.8078
   87SAPS  C215 8345   6.788   3.548   8.860 -0.1473  0.2665  0.1650
   87SAPS  H15R 8346   6.760   3.615   8.778 -3.0648  0.3265  1.0801
   87SAPS  C216 8347   6.931   3.496   8.873 -0.0964 -0.1029 -0.3685
   87SAPS  H16R 8348   6.958   3.513   8.979  3.2231  0.8970 -1.2711
   87SAPS  H16S 8349   7.000   3.564   8.819  0.7762  0.4428  1.3498
   87SAPS  C217 8350   6.939   3.347   8.815 -0.1554 -0.2029 -0.2181
   87SAPS  H17R 8351   6.859   3.325   8.740  1.0589 -1.2797 -1.2598
   87SAPS  H17S 8352   6.921   3.280   8.902 -0.1280  1.2718  0.9578
   87SAPS  C218 8353   7.074   3.301   8.762  0.0008  0.4861 -0.8140
   87SAPS  H18R 8354   7.145   3.311   8.847  1.5704 -0.1990 -1.9781
   87SAPS  H18S 8355   7.128   3.356   8.681  0.0068  0.3098 -0.9309
   87SAPS  C219 8356   7.063   3.158   8.723  0.0173  0.3247  0.3537
   87SAPS  H19R 8357   7.154   3.128   8.666  0.5062 -1.5466  2.0239
   87SAPS  H19S 8358   6.976   3.144   8.654 -0.0585 -1.5751  0.7798
   87SAPS  C220 8359   7.048   3.047   8.830  0.0948  0.2053 -0.2968
   87SAPS  H20R 8360   6.965   3.070   8.901  0.9980  3.9334 -0.2021
   87SAPS  H20S 8361   7.141   3.049   8.890 -0.1549  0.2585  0.0962
   87SAPS  H20T 8362   7.039   2.943   8.794 -1.4551 -0.2462  1.2393
   87SAPS   C33 8363   5.994   3.734  10.025  0.4306 -0.8042  0.3330
   87SAPS   H3X 8364   5.992   3.831  10.078 -0.6262 -1.0143  0.7090
   87SAPS   H3Y 8365   5.888   3.701  10.021  0.2903 -0.9179  3.3469
   87SAPS   C34 8366   6.049   3.760   9.884 -0.3475 -0.4617 -0.2137
   87SAPS   H4X 8367   6.085   3.665   9.838  1.5762  0.3567 -0.5182
   87SAPS   H4Y 8368   6.142   3.819   9.899  0.2169 -1.5906  0.8976
   87SAPS   C35 8369   5.945   3.831   9.793 -0.3076 -0.1522 -0.6476
   87SAPS   H5X 8370   5.899   3.918   9.844 -1.1574 -0.0496 -1.5767
   87SAPS   H5Y 8371   5.854   3.771   9.773  0.8858 -2.1770 -0.2733
   87SAPS   C36 8372   6.017   3.880   9.667  0.1257 -0.6682  0.1595
   87SAPS   H6X 8373   6.071   3.797   9.616  0.9467 -1.5941  2.3647
   87SAPS   H6Y 8374   6.086   3.963   9.694  0.8442 -1.4755  0.9220
   87SAPS   C37 8375   5.914   3.952   9.579 -0.1725  0.0009  0.6449
   87SAPS   H7X 8376   5.879   4.052   9.611 -0.3264  0.3741 -0.6262
   87SAPS   H7Y 8377   5.823   3.888   9.570 -0.0190 -0.0709 -0.5918
   87SAPS   C38 8378   5.970   3.981   9.441 -0.2747 -0.5549  0.1538
   87SAPS   H8X 8379   5.975   3.884   9.388 -0.4420 -0.2843 -0.3670
   87SAPS   H8Y 8380   6.072   4.026   9.443  0.3376 -1.8011 -1.3307
   87SAPS   C39 8381   5.887   4.093   9.362 -1.1795 -0.3509 -0.1926
   87SAPS   H9X 8382   5.944   4.133   9.276  0.6389 -0.3658  0.9398
   87SAPS   H9Y 8383   5.863   4.176   9.433 -3.0489 -0.1470 -1.0279
   87SAPS  C310 8384   5.756   4.040   9.319 -0.2694  0.5364  0.7909
   87SAPS  H10X 8385   5.699   3.985   9.398 -1.4160  0.2365 -0.2120
   87SAPS  H10Y 8386   5.763   3.961   9.242 -2.5912 -0.3479  1.3858
   87SAPS  C311 8387   5.662   4.156   9.279  0.0295 -0.5685 -0.0777
   87SAPS  H11X 8388   5.644   4.218   9.370  0.6936 -0.8118  0.2317
   87SAPS  H11Y 8389   5.566   4.114   9.242 -0.9684 -0.5593  2.3126
   87SAPS  C312 8390   5.717   4.264   9.174 -0.3332  0.2609 -1.0289
   87SAPS  H12X 8391   5.815   4.301   9.210 -0.9688  3.0320 -1.8834
   87SAPS  H12Y 8392   5.651   4.354   9.170 -2.0463 -0.6586  2.5667
   87SAPS  C313 8393   5.720   4.206   9.030 -0.8771 -0.1478  0.3046
   87SAPS  H13X 8394   5.625   4.153   9.009 -0.1444 -0.8390 -1.5464
   87SAPS  H13Y 8395   5.809   4.139   9.029 -1.0487 -0.4177 -2.0989
   87SAPS  C314 8396   5.713   4.325   8.927 -0.7915  0.2477  0.5183
   87SAPS  H14X 8397   5.799   4.391   8.952 -1.4431  0.6907  1.6625
   87SAPS  H14Y 8398   5.631   4.397   8.946 -1.2514 -0.3489  0.7916
   87SAPS  C315 8399   5.731   4.297   8.779  0.4790 -0.4830  0.1303
   87SAPS  H15X 8400   5.826   4.243   8.759  0.5199 -0.0810 -0.8353
   87SAPS  H15Y 8401   5.749   4.397   8.732 -0.0747 -1.2252 -1.7334
   87SAPS  C316 8402   5.620   4.227   8.709  0.0321  1.1077  0.0603
   87SAPS  H16X 8403   5.593   4.140   8.772 -1.3572  0.9382 -0.7259
   87SAPS  H16Y 8404   5.644   4.194   8.605 -0.5860  2.0840 -0.4042
   87SAPS  C317 8405   5.489   4.305   8.709  0.3512 -0.4254 -0.0355
   87SAPS  H17X 8406   5.489   4.399   8.650  3.0252 -0.4911 -0.2578
   87SAPS  H17Y 8407   5.457   4.318   8.815  1.2205 -0.8834  0.2904
   87SAPS  C318 8408   5.386   4.220   8.645 -0.8168 -0.5620 -0.5462
   87SAPS  H18X 8409   5.419   4.180   8.547  0.1162 -1.0093 -0.0548
   87SAPS  H18Y 8410   5.291   4.278   8.636 -0.6107 -0.4264 -1.9787
   87SAPS  H18Z 8411   5.354   4.132   8.706 -1.0458 -0.7468 -0.9312
   88SAPS     N 8412   2.974   1.199  10.380  0.0965 -0.2801 -0.3220
   88SAPS   HN1 8413   2.907   1.182  10.303  0.5392  1.0162 -1.0215
   88SAPS   HN2 8414   2.985   1.298  10.408  0.9342 -1.3720  3.9032
   88SAPS   HN3 8415   3.060   1.149  10.350  0.5758  0.2850  0.0803
   88SAPS   C12 8416   2.916   1.125  10.497 -0.4163 -0.4919  0.1292
   88SAPS  H12A 8417   2.999   1.097  10.560  0.9049  2.6716 -0.0236
   88SAPS   C13 8418   2.804   1.211  10.579  0.2500 -0.0948 -0.0793
   88SAPS  O13A 8419   2.750   1.309  10.524 -0.3950 -0.2552 -0.3051
   88SAPS  O13B 8420   2.756   1.163  10.683 -0.0378 -0.6935  1.1796
   88SAPS   C11 8421   2.854   0.996  10.437 -0.1893  0.3228  0.0962
   88SAPS  H11A 8422   2.786   1.019  10.353 -0.2892  1.1082  0.3796
   88SAPS  H11B 8423   2.789   0.948  10.512 -2.9754 -2.0945 -3.5342
   88SAPS     P 8424   2.903   0.753  10.359  0.1861 -0.5746 -0.3812
   88SAPS   O13 8425   2.899   0.678  10.483  0.1725  0.5608  0.2459
   88SAPS   O14 8426   2.779   0.762  10.280  0.5824 -0.4131 -0.2088
   88SAPS   O12 8427   2.950   0.897  10.395  0.2604 -0.4928 -0.5261
   88SAPS   O11 8428   3.020   0.711  10.272  0.1912  0.1868  0.8562
   88SAPS    C1 8429   3.142   0.783  10.271  0.7026 -0.2305 -0.1013
   88SAPS    HA 8430   3.138   0.879  10.215  1.9254  0.1314  0.3914
   88SAPS    HB 8431   3.170   0.807  10.376 -2.0954 -0.5117  0.7897
   88SAPS    C2 8432   3.251   0.696  10.200  0.1724  1.0944  0.7318
   88SAPS    HS 8433   3.351   0.744  10.196  0.4853  0.5818  1.9110
   88SAPS   O21 8434   3.211   0.676  10.065 -0.4103 -0.1826  0.1037
   88SAPS   C21 8435   3.210   0.778   9.983 -0.7722 -0.1508 -0.8239
   88SAPS   O22 8436   3.234   0.897  10.005 -0.0137 -0.4670 -0.4538
   88SAPS   C22 8437   3.178   0.728   9.844  0.1714  0.2365 -0.1454
   88SAPS   H2R 8438   3.106   0.644   9.850 -0.8276  1.0973  0.0825
   88SAPS   H2S 8439   3.121   0.798   9.780  0.2766  0.2516 -0.2233
   88SAPS    C3 8440   3.278   0.559  10.269  0.5669  0.3706 -0.0600
   88SAPS    HX 8441   3.183   0.505  10.288 -0.2568  2.0816  1.0026
   88SAPS    HY 8442   3.323   0.594  10.365 -0.0295 -0.4663  0.5342
   88SAPS   O31 8443   3.375   0.475  10.199 -1.2159 -0.2651 -0.0350
   88SAPS   C31 8444   3.320   0.395  10.108 -0.1864 -0.2220  0.1484
   88SAPS   O32 8445   3.203   0.374  10.103 -0.2097 -0.2588 -0.6577
   88SAPS   C32 8446   3.432   0.332  10.016  0.4264 -0.3546 -0.2099
   88SAPS   H2X 8447   3.490   0.247  10.058 -0.5116 -1.9560 -1.9847
   88SAPS   H2Y 8448   3.501   0.417   9.997  2.0003 -1.3700  0.6809
   88SAPS   C23 8449   3.303   0.659   9.780  0.1887  0.7789 -0.0053
   88SAPS   H3R 8450   3.271   0.574   9.716  1.5375  1.2364 -1.3315
   88SAPS   H3S 8451   3.371   0.604   9.849 -1.4515  1.0708  1.9488
   88SAPS   C24 8452   3.374   0.766   9.699  1.4553  0.0482 -0.0919
   88SAPS   H4R 8453   3.415   0.841   9.769  0.5333  2.4185 -1.9213
   88SAPS   H4S 8454   3.299   0.831   9.649  0.3475 -0.3369  1.0040
   88SAPS   C25 8455   3.476   0.690   9.613  0.4613 -0.6545 -0.4813
   88SAPS   H5R 8456   3.561   0.660   9.676  1.1533  2.9444  0.5227
   88SAPS   C26 8457   3.462   0.658   9.478 -0.2819  0.2746 -0.4669
   88SAPS   H6R 8458   3.548   0.607   9.433 -1.7083 -2.8724  0.1192
   88SAPS   C27 8459   3.337   0.690   9.392 -0.7110 -0.3550 -0.9501
   88SAPS   H7R 8460   3.258   0.727   9.461  0.4907 -1.5712  1.1721
   88SAPS   H7S 8461   3.285   0.609   9.337 -0.7679  0.7227 -2.5586
   88SAPS   C28 8462   3.374   0.795   9.293 -0.2657  0.2677  0.4034
   88SAPS   H8R 8463   3.369   0.901   9.321 -0.0015  0.2472  0.5393
   88SAPS   C29 8464   3.417   0.762   9.166  0.3359 -0.6696 -0.7309
   88SAPS   H9R 8465   3.442   0.842   9.095  0.6370  0.8937  1.0351
   88SAPS  C210 8466   3.430   0.619   9.118  0.6644 -0.6559  0.1318
   88SAPS  H10R 8467   3.430   0.546   9.202  0.5287 -0.4168  0.3429
   88SAPS  H10S 8468   3.527   0.610   9.066  0.4494  0.9650 -0.6107
   88SAPS  C211 8469   3.325   0.581   9.022 -0.6308 -0.2890 -0.3629
   88SAPS  H11R 8470   3.270   0.495   9.062  0.3684 -0.3409  0.9379
   88SAPS  C212 8471   3.305   0.636   8.902  0.0322 -0.7420 -0.4441
   88SAPS  H12R 8472   3.230   0.590   8.836  0.9306 -0.4818 -1.6712
   88SAPS  C213 8473   3.390   0.749   8.839 -0.4117  0.0187  1.0391
   88SAPS  H13R 8474   3.450   0.711   8.754 -4.8466 -2.0318 -1.5717
   88SAPS  H13S 8475   3.465   0.790   8.910 -0.3705 -1.0753  1.6724
   88SAPS  C214 8476   3.297   0.855   8.780  0.0563  0.0227  0.5618
   88SAPS  H14R 8477   3.224   0.899   8.850 -0.8831 -1.1288  0.3352
   88SAPS  C215 8478   3.301   0.906   8.658  0.1330  0.0729 -0.3847
   88SAPS  H15R 8479   3.222   0.975   8.625 -1.1935 -1.4945 -0.6199
   88SAPS  C216 8480   3.407   0.875   8.550 -0.5906 -0.2882 -0.7511
   88SAPS  H16R 8481   3.495   0.821   8.590 -0.6835 -0.5439 -0.8891
   88SAPS  H16S 8482   3.440   0.977   8.522 -2.5573  0.6679  0.2131
   88SAPS  C217 8483   3.369   0.796   8.426  0.3657 -0.3044  0.5364
   88SAPS  H17R 8484   3.349   0.694   8.465  0.1318 -0.6942 -0.5457
   88SAPS  H17S 8485   3.454   0.791   8.354  1.3406 -0.3234  1.6527
   88SAPS  C218 8486   3.242   0.853   8.357 -0.7798 -0.5505 -0.6463
   88SAPS  H18R 8487   3.262   0.958   8.327  2.2520  0.2666  3.4299
   88SAPS  H18S 8488   3.164   0.851   8.437 -0.3917 -0.3965 -0.2620
   88SAPS  C219 8489   3.187   0.768   8.240  0.3481 -0.5619  0.7426
   88SAPS  H19R 8490   3.138   0.677   8.281 -1.1153 -1.3986 -2.5586
   88SAPS  H19S 8491   3.263   0.742   8.162  0.4466  2.7550 -0.4385
   88SAPS  C220 8492   3.083   0.849   8.154 -0.2818 -0.5499 -0.6441
   88SAPS  H20R 8493   2.993   0.880   8.212 -0.8682 -2.2473 -0.5824
   88SAPS  H20S 8494   3.046   0.783   8.073 -0.7089 -1.3929  0.2196
   88SAPS  H20T 8495   3.134   0.939   8.113  1.0545 -0.7138  0.5932
   88SAPS   C33 8496   3.374   0.280   9.884  0.5382 -0.0485 -0.4661
   88SAPS   H3X 8497   3.306   0.360   9.846 -1.0088  0.2132  2.5369
   88SAPS   H3Y 8498   3.308   0.194   9.906 -0.9052  0.9841 -0.6634
   88SAPS   C34 8499   3.477   0.251   9.775 -0.3847  0.2691  1.0727
   88SAPS   H4X 8500   3.544   0.178   9.824 -2.5454 -1.7525  1.2062
   88SAPS   H4Y 8501   3.532   0.345   9.753 -0.4311  0.4559  1.7393
   88SAPS   C35 8502   3.423   0.212   9.640 -0.3229 -0.0447  0.0809
   88SAPS   H5X 8503   3.338   0.278   9.614 -1.2779 -1.0759  0.5138
   88SAPS   H5Y 8504   3.390   0.106   9.633  0.8583 -0.3804 -0.6910
   88SAPS   C36 8505   3.526   0.221   9.526 -0.8347  0.3302 -0.0358
   88SAPS   H6X 8506   3.606   0.149   9.550 -1.9292 -0.9985 -0.2261
   88SAPS   H6Y 8507   3.572   0.321   9.511 -3.2011  1.2013 -2.3698
   88SAPS   C37 8508   3.465   0.183   9.394 -0.0083 -0.4824  0.2730
   88SAPS   H7X 8509   3.385   0.259   9.382 -2.1441 -2.6076  0.2552
   88SAPS   H7Y 8510   3.431   0.077   9.403  0.4488 -0.6188  0.4114
   88SAPS   C38 8511   3.561   0.195   9.276 -0.1230 -0.4840  0.1758
   88SAPS   H8X 8512   3.647   0.124   9.279 -1.6165 -2.4288 -1.2564
   88SAPS   H8Y 8513   3.609   0.294   9.294  0.6593 -0.7974 -0.1095
   88SAPS   C39 8514   3.495   0.184   9.138  0.7635 -0.4575 -0.5130
   88SAPS   H9X 8515   3.393   0.229   9.136  0.7008 -0.4830  1.1875
   88SAPS   H9Y 8516   3.471   0.078   9.115  0.3113 -0.4105 -0.2637
   88SAPS  C310 8517   3.591   0.219   9.028  0.3050  0.2779  0.1690
   88SAPS  H10X 8518   3.675   0.148   9.041  0.5058  0.9958  3.4934
   88SAPS  H10Y 8519   3.625   0.324   9.035  0.3095  0.3827 -1.1949
   88SAPS  C311 8520   3.516   0.212   8.892 -0.5152 -0.0336 -0.2543
   88SAPS  H11X 8521   3.408   0.208   8.916 -0.5241  1.3387 -0.0148
   88SAPS  H11Y 8522   3.542   0.117   8.840  1.1442  0.7148 -0.8751
   88SAPS  C312 8523   3.546   0.320   8.793  0.5127  0.2842  0.7700
   88SAPS  H12X 8524   3.645   0.302   8.746 -0.5165 -0.1092 -1.3521
   88SAPS  H12Y 8525   3.544   0.418   8.846  2.3434 -0.5447  2.5125
   88SAPS  C313 8526   3.444   0.321   8.676 -0.0626 -0.5554 -0.1606
   88SAPS  H13X 8527   3.355   0.371   8.718  1.9843  0.9169  2.8245
   88SAPS  H13Y 8528   3.421   0.217   8.645 -2.7453 -0.3166  0.7677
   88SAPS  C314 8529   3.495   0.400   8.560 -0.3899  0.4850  0.2926
   88SAPS  H14X 8530   3.594   0.354   8.540 -0.4784  1.0825 -1.8253
   88SAPS  H14Y 8531   3.514   0.506   8.587  0.6894 -0.3386  3.0564
   88SAPS  C315 8532   3.430   0.365   8.432 -0.0364  0.2989  0.2483
   88SAPS  H15X 8533   3.323   0.392   8.437 -0.2235 -0.6482  3.1271
   88SAPS  H15Y 8534   3.426   0.255   8.424 -1.0555  0.3831 -0.5373
   88SAPS  C316 8535   3.508   0.413   8.307  0.5406 -0.3486 -0.2071
   88SAPS  H16X 8536   3.605   0.359   8.309  1.2485  0.8973 -0.1159
   88SAPS  H16Y 8537   3.513   0.523   8.303 -1.4281 -0.2658 -1.3368
   88SAPS  C317 8538   3.442   0.370   8.174  0.5510  0.1982 -0.2813
   88SAPS  H17X 8539   3.337   0.403   8.162  0.3785 -0.1175  0.3427
   88SAPS  H17Y 8540   3.446   0.260   8.187  2.2202  0.4656  2.4518
   88SAPS  C318 8541   3.532   0.407   8.053  0.3013  0.3318  0.2513
   88SAPS  H18X 8542   3.496   0.374   7.953  1.4668  0.7815 -0.3520
   88SAPS  H18Y 8543   3.628   0.356   8.079 -0.2829 -0.7608  0.2999
   88SAPS  H18Z 8544   3.543   0.518   8.061 -1.7097  0.4126  3.0049
   89SAPS     N 8545   1.169   3.680  10.996 -0.9672 -0.3447  0.1264
   89SAPS   HN1 8546   1.260   3.730  10.999 -1.0777 -0.1734  0.5887
   89SAPS   HN2 8547   1.087   3.744  10.991 -1.0957 -0.4925  0.3560
   89SAPS   HN3 8548   1.165   3.617  11.079  0.6175  0.8642  1.1845
   89SAPS   C12 8549   1.166   3.596  10.875  0.2447 -0.1322 -1.4238
   89SAPS  H12A 8550   1.266   3.555  10.876  1.8172  3.1392  2.2121
   89SAPS   C13 8551   1.063   3.483  10.879  0.3796 -0.8743  0.3645
   89SAPS  O13A 8552   0.991   3.469  10.977  0.4727 -0.5770 -0.3422
   89SAPS  O13B 8553   1.078   3.393  10.793  0.0954 -0.2006 -0.5664
   89SAPS   C11 8554   1.144   3.694  10.748  0.1848  0.6336  0.4500
   89SAPS  H11A 8555   1.037   3.726  10.749 -0.6048 -1.3301 -3.5661
   89SAPS  H11B 8556   1.155   3.625  10.662 -1.4937 -0.0005  0.6957
   89SAPS     P 8557   1.240   3.920  10.659  0.5388  0.2850 -0.5621
   89SAPS   O13 8558   1.136   4.004  10.720  0.0259 -0.1722  0.1341
   89SAPS   O14 8559   1.379   3.981  10.648 -0.0004 -0.0967  0.7571
   89SAPS   O12 8560   1.252   3.791  10.751 -0.2504  0.0492  0.4812
   89SAPS   O11 8561   1.206   3.872  10.519 -0.2488 -0.6371  0.5347
   89SAPS    C1 8562   1.072   3.872  10.454  0.1041 -0.5716 -0.3107
   89SAPS    HA 8563   1.046   3.767  10.430  1.0398 -0.8542 -0.1535
   89SAPS    HB 8564   0.995   3.911  10.523  0.8178  1.8271 -0.7659
   89SAPS    C2 8565   1.058   3.958  10.320 -0.4482  0.2260  0.4578
   89SAPS    HS 8566   0.949   3.961  10.296  0.1094  0.3625 -2.3787
   89SAPS   O21 8567   1.118   3.897  10.208  0.1772 -0.2626 -0.2525
   89SAPS   C21 8568   1.086   3.923  10.081 -0.3320 -0.1206  0.5674
   89SAPS   O22 8569   0.988   3.987  10.041  0.3795  0.0512  0.0790
   89SAPS   C22 8570   1.181   3.858   9.978 -0.6657  0.2737  0.1854
   89SAPS   H2R 8571   1.281   3.855  10.027 -0.1112  0.2567 -0.9334
   89SAPS   H2S 8572   1.144   3.754   9.960  0.9222 -0.1093 -1.0299
   89SAPS    C3 8573   1.119   4.106  10.338  0.9677  0.3300 -0.4710
   89SAPS    HX 8574   1.226   4.080  10.355  0.9152  0.5147  0.1732
   89SAPS    HY 8575   1.080   4.138  10.437  0.2594 -1.7343 -0.0340
   89SAPS   O31 8576   1.105   4.197  10.229  0.2856 -0.3828 -0.0493
   89SAPS   C31 8577   0.981   4.245  10.223  0.2652  0.2424 -0.3376
   89SAPS   O32 8578   0.892   4.207  10.296  0.0968  0.0848  0.5038
   89SAPS   C32 8579   0.969   4.358  10.121  0.3446 -0.4340 -0.1223
   89SAPS   H2X 8580   1.068   4.404  10.102 -0.3674  0.2816 -2.3212
   89SAPS   H2Y 8581   0.917   4.436  10.181  0.7904 -0.2907  0.0888
   89SAPS   C23 8582   1.195   3.933   9.845  0.2973 -0.2901 -0.3004
   89SAPS   H3R 8583   1.228   4.038   9.860  1.0248 -0.6848  1.0449
   89SAPS   H3S 8584   1.098   3.947   9.792 -0.5771 -3.0646  0.4462
   89SAPS   C24 8585   1.293   3.861   9.750  0.4384  0.2546 -0.2720
   89SAPS   H4R 8586   1.243   3.767   9.719 -0.2741  0.6658 -0.3802
   89SAPS   H4S 8587   1.389   3.834   9.800  0.5627  2.1914  0.6613
   89SAPS   C25 8588   1.311   3.928   9.616  1.0010 -0.6066 -0.0001
   89SAPS   H5R 8589   1.308   4.037   9.627 -0.7228 -0.7342  1.4456
   89SAPS   C26 8590   1.322   3.874   9.498 -0.7600  0.4198  0.1973
   89SAPS   H6R 8591   1.321   3.943   9.413  0.9457  1.5988  1.0666
   89SAPS   C27 8592   1.331   3.728   9.464  0.0432 -0.6323  0.8662
   89SAPS   H7R 8593   1.230   3.687   9.443  0.9137 -1.7758 -1.3815
   89SAPS   H7S 8594   1.378   3.670   9.546  0.6647 -2.6809 -0.8407
   89SAPS   C28 8595   1.405   3.711   9.336  0.7442 -0.9148  0.2003
   89SAPS   H8R 8596   1.514   3.716   9.350  0.8135  2.7353 -0.8139
   89SAPS   C29 8597   1.354   3.696   9.212  0.5080 -0.1713  0.0385
   89SAPS   H9R 8598   1.430   3.696   9.132 -1.0332 -0.3699 -1.4856
   89SAPS  C210 8599   1.211   3.697   9.174  0.1326 -0.1584  0.3236
   89SAPS  H10R 8600   1.153   3.649   9.256  1.6672 -0.6799  1.1341
   89SAPS  H10S 8601   1.198   3.644   9.076  0.4056  2.5681 -1.2883
   89SAPS  C211 8602   1.154   3.837   9.148  0.0639 -0.1627  0.6235
   89SAPS  H11R 8603   1.139   3.895   9.240 -0.0673 -0.8659  1.0531
   89SAPS  C212 8604   1.105   3.876   9.026  0.1981 -0.4204  0.3931
   89SAPS  H12R 8605   1.067   3.978   9.021 -1.5171 -1.0424  0.1140
   89SAPS  C213 8606   1.129   3.814   8.894  0.3459  0.7194  0.1260
   89SAPS  H13R 8607   1.081   3.714   8.888  1.8751 -0.1167  1.1019
   89SAPS  H13S 8608   1.238   3.795   8.878  0.5266  3.2348 -2.3976
   89SAPS  C214 8609   1.074   3.883   8.777  0.3571  0.1278  0.4659
   89SAPS  H14R 8610   0.975   3.846   8.745 -0.5868  1.6480  1.4657
   89SAPS  C215 8611   1.132   3.981   8.704 -0.4767 -0.2717  0.5728
   89SAPS  H15R 8612   1.084   4.033   8.620  2.1553  0.7457 -0.4061
   89SAPS  C216 8613   1.265   4.045   8.725  0.0851  0.4007 -0.4717
   89SAPS  H16R 8614   1.338   3.989   8.787  2.0207  2.8474 -0.3629
   89SAPS  H16S 8615   1.257   4.141   8.781 -0.0184 -0.4021  0.9506
   89SAPS  C217 8616   1.344   4.052   8.593 -0.0661 -0.4952  0.2499
   89SAPS  H17R 8617   1.350   3.949   8.553 -0.2316 -2.0521  3.8799
   89SAPS  H17S 8618   1.449   4.084   8.609 -0.5806  0.8858  1.0664
   89SAPS  C218 8619   1.290   4.145   8.488  0.0914 -0.8285  0.2198
   89SAPS  H18R 8620   1.354   4.236   8.486 -2.2666  0.9602  1.0713
   89SAPS  H18S 8621   1.186   4.174   8.515  0.3913  2.3451 -1.4835
   89SAPS  C219 8622   1.279   4.081   8.342  0.1355  0.0506 -0.5437
   89SAPS  H19R 8623   1.231   3.984   8.364  0.7790 -0.4705 -1.3867
   89SAPS  H19S 8624   1.382   4.052   8.310  0.0353  0.2386 -1.0458
   89SAPS  C220 8625   1.209   4.166   8.244 -0.2580 -0.1255  0.7364
   89SAPS  H20R 8626   1.263   4.263   8.237 -3.0978  1.4476 -1.4866
   89SAPS  H20S 8627   1.104   4.177   8.278 -0.7315  2.2336 -1.2085
   89SAPS  H20T 8628   1.214   4.120   8.143  2.1939  0.6496  0.4529
   89SAPS   C33 8629   0.885   4.333   9.987 -0.6113 -0.7411  0.2102
   89SAPS   H3X 8630   0.795   4.399   9.985  0.2496  0.6370  2.6453
   89SAPS   H3Y 8631   0.853   4.227   9.986  0.6904 -1.1599  0.2809
   89SAPS   C34 8632   0.961   4.354   9.855  0.0534  0.1255 -0.1798
   89SAPS   H4X 8633   1.067   4.322   9.864 -0.8147 -2.7629  0.7852
   89SAPS   H4Y 8634   0.966   4.464   9.839  1.6697  0.2165  0.7336
   89SAPS   C35 8635   0.892   4.280   9.733 -0.4060 -0.3474  0.2121
   89SAPS   H5X 8636   0.793   4.323   9.707 -0.5664  0.4359  1.9716
   89SAPS   H5Y 8637   0.900   4.172   9.758  0.9930 -0.8556 -2.1502
   89SAPS   C36 8638   0.989   4.287   9.613  0.0677 -0.1717 -0.1449
   89SAPS   H6X 8639   1.085   4.241   9.646  0.1693 -1.3791 -1.9760
   89SAPS   H6Y 8640   1.015   4.393   9.592  1.1484 -0.5688 -0.8740
   89SAPS   C37 8641   0.952   4.209   9.495 -0.6863  0.0748  0.2350
   89SAPS   H7X 8642   0.875   4.268   9.440  0.5175  1.3216 -0.1785
   89SAPS   H7Y 8643   0.925   4.106   9.525  0.7641 -1.2161 -2.4795
   89SAPS   C38 8644   1.069   4.204   9.398 -0.0702  0.0080  0.0295
   89SAPS   H8X 8645   1.139   4.123   9.430  0.4781  0.1984 -0.6517
   89SAPS   H8Y 8646   1.123   4.301   9.403 -0.5129  0.4825 -2.7142
   89SAPS   C39 8647   1.029   4.172   9.252 -0.4289  0.5701 -0.5454
   89SAPS   H9X 8648   0.970   4.078   9.262  3.8682 -2.3386  0.2137
   89SAPS   H9Y 8649   1.123   4.131   9.209  0.7810  0.0346  2.3442
   89SAPS  C310 8650   0.981   4.289   9.165  1.3999  0.4573  0.0882
   89SAPS  H10X 8651   1.046   4.379   9.171 -1.3093  2.5651  0.0819
   89SAPS  H10Y 8652   0.880   4.327   9.193  1.5886  1.1629 -0.1670
   89SAPS  C311 8653   0.967   4.241   9.017  0.5055 -0.0956 -0.4752
   89SAPS  H11X 8654   0.877   4.176   9.012 -0.1117  0.6257  0.7755
   89SAPS  H11Y 8655   1.059   4.185   8.990  0.2038 -0.7959 -0.0819
   89SAPS  C312 8656   0.947   4.358   8.925  0.4672 -0.2571  0.7242
   89SAPS  H12X 8657   1.030   4.427   8.951 -0.2467  1.1224 -0.5380
   89SAPS  H12Y 8658   0.852   4.409   8.951 -0.1079 -0.5347 -0.7626
   89SAPS  C313 8659   0.953   4.319   8.779 -0.3455  0.5877 -0.2872
   89SAPS  H13X 8660   0.876   4.242   8.757  0.3947 -0.0214 -0.8192
   89SAPS  H13Y 8661   1.058   4.286   8.761  0.2748  1.8949  0.7857
   89SAPS  C314 8662   0.921   4.436   8.685  0.2296 -0.2033  0.3866
   89SAPS  H14X 8663   0.934   4.533   8.737  1.7433 -0.4328  0.4765
   89SAPS  H14Y 8664   0.811   4.448   8.675  0.4233  0.9438 -0.5900
   89SAPS  C315 8665   0.988   4.417   8.548 -0.1785  0.5590  0.4343
   89SAPS  H15X 8666   0.943   4.328   8.498 -2.0650  2.4774 -1.5149
   89SAPS  H15Y 8667   1.097   4.403   8.560 -0.0756  2.2205  1.6933
   89SAPS  C316 8668   0.968   4.539   8.451  0.2673  0.1538  0.5866
   89SAPS  H16X 8669   1.031   4.618   8.496 -1.8193  2.0830  0.3272
   89SAPS  H16Y 8670   0.862   4.574   8.450  0.0548 -0.3380 -2.3285
   89SAPS  C317 8671   1.005   4.512   8.305 -0.2744  0.1464  0.9769
   89SAPS  H17X 8672   1.109   4.473   8.305 -0.5946 -0.8746 -1.1241
   89SAPS  H17Y 8673   0.999   4.605   8.245 -1.4926 -0.5287 -0.0067
   89SAPS  C318 8674   0.904   4.420   8.247  0.1626 -0.3866 -0.4247
   89SAPS  H18X 8675   0.802   4.461   8.262 -0.5661 -1.6902 -1.5966
   89SAPS  H18Y 8676   0.911   4.319   8.291 -0.4703  0.1771  1.0306
   89SAPS  H18Z 8677   0.914   4.405   8.137  2.2468 -0.1921 -0.3183
   90SAPS     N 8678   4.112   3.781  10.801 -0.1729  0.3682  0.3008
   90SAPS   HN1 8679   4.184   3.842  10.844 -0.4139  0.8644  0.0093
   90SAPS   HN2 8680   4.136   3.777  10.700  0.3866  1.1368  0.3972
   90SAPS   HN3 8681   4.014   3.815  10.805 -1.5252 -3.0955  0.6643
   90SAPS   C12 8682   4.108   3.638  10.851 -0.2535 -0.3807  0.9536
   90SAPS  H12A 8683   4.199   3.611  10.902  0.0649 -0.7042  0.2290
   90SAPS   C13 8684   3.997   3.629  10.954  0.2817 -0.3422 -1.2729
   90SAPS  O13A 8685   3.932   3.730  10.999 -0.5930 -0.1825  0.1218
   90SAPS  O13B 8686   3.977   3.516  11.000  0.0638 -0.3490 -0.3122
   90SAPS   C11 8687   4.093   3.548  10.728 -0.2959 -0.7031  0.0381
   90SAPS  H11A 8688   3.999   3.576  10.677 -1.5624  0.6683  2.8890
   90SAPS  H11B 8689   4.078   3.440  10.751  0.1916 -0.7831 -0.0021
   90SAPS     P 8690   4.326   3.476  10.635  0.2618 -0.0326  0.1648
   90SAPS   O13 8691   4.425   3.527  10.541  0.0140  0.0484  0.1462
   90SAPS   O14 8692   4.361   3.468  10.777  0.0649 -0.0904  0.5628
   90SAPS   O12 8693   4.200   3.563  10.625  0.5370  0.2838 -0.4451
   90SAPS   O11 8694   4.275   3.336  10.580 -0.6207  0.2619 -0.4912
   90SAPS    C1 8695   4.187   3.325  10.465 -0.2551 -0.9383  0.0135
   90SAPS    HA 8696   4.149   3.221  10.469 -0.7887 -0.7992 -1.0820
   90SAPS    HB 8697   4.105   3.398  10.480 -1.0115 -2.1019  2.0812
   90SAPS    C2 8698   4.251   3.336  10.326 -0.4309 -0.0710 -0.3480
   90SAPS    HS 8699   4.278   3.442  10.305  2.2783 -0.3098  1.3895
   90SAPS   O21 8700   4.155   3.281  10.229  0.4942  0.2900  0.0456
   90SAPS   C21 8701   4.061   3.371  10.203 -0.5405  0.2226  0.4036
   90SAPS   O22 8702   4.050   3.480  10.265 -0.3093  0.1437  0.0860
   90SAPS   C22 8703   3.968   3.327  10.095 -0.8426  0.3856  0.4802
   90SAPS   H2R 8704   4.020   3.256  10.027 -0.4136  0.2766  0.9175
   90SAPS   H2S 8705   3.892   3.271  10.154 -1.1434  0.1049 -0.1592
   90SAPS    C3 8706   4.381   3.244  10.331 -0.0510  0.3350  0.3431
   90SAPS    HX 8707   4.358   3.159  10.399 -1.0448 -0.6640 -1.1647
   90SAPS    HY 8708   4.463   3.306  10.371 -2.3236  2.3718  2.1913
   90SAPS   O31 8709   4.409   3.184  10.198 -0.1085  0.4412 -0.0291
   90SAPS   C31 8710   4.447   3.262  10.102  0.2743 -0.4243 -0.2623
   90SAPS   O32 8711   4.495   3.373  10.118 -0.1525  0.3605 -0.1299
   90SAPS   C32 8712   4.415   3.192   9.960  0.2270  0.0090 -0.0035
   90SAPS   H2X 8713   4.305   3.177   9.965  0.3385 -0.2947  2.5235
   90SAPS   H2Y 8714   4.462   3.092   9.959 -1.2995 -0.7708 -1.8736
   90SAPS   C23 8715   3.904   3.451  10.030  0.1404  0.5107 -1.0861
   90SAPS   H3R 8716   3.976   3.517   9.977  0.7914  0.3964 -0.3466
   90SAPS   H3S 8717   3.869   3.518  10.111 -0.6559 -0.8455 -0.2598
   90SAPS   C24 8718   3.784   3.426   9.939 -0.4385  0.1255 -0.0709
   90SAPS   H4R 8719   3.762   3.517   9.880  1.5638  0.0999 -0.9216
   90SAPS   H4S 8720   3.698   3.410  10.008 -0.2270  3.6172  1.1970
   90SAPS   C25 8721   3.793   3.310   9.842  0.1134  0.7735 -0.8098
   90SAPS   H5R 8722   3.742   3.216   9.871  1.4783  0.1978 -0.1749
   90SAPS   C26 8723   3.852   3.305   9.724  0.2442  0.4462  0.4561
   90SAPS   H6R 8724   3.848   3.208   9.672  1.2626  1.3884 -1.4727
   90SAPS   C27 8725   3.920   3.417   9.654 -0.5995 -0.4870  0.2191
   90SAPS   H7R 8726   4.027   3.387   9.655 -0.5664 -0.4146 -0.5593
   90SAPS   H7S 8727   3.919   3.507   9.720 -1.5611  0.0928 -0.5507
   90SAPS   C28 8728   3.868   3.445   9.517  0.4715 -0.9020 -0.6156
   90SAPS   H8R 8729   3.786   3.517   9.505 -0.6175 -1.8589  0.8404
   90SAPS   C29 8730   3.913   3.387   9.407 -0.4010  0.3729  0.0665
   90SAPS   H9R 8731   3.874   3.403   9.305  0.7654 -1.2763 -0.6901
   90SAPS  C210 8732   4.030   3.291   9.404 -0.4825  0.2768 -0.1633
   90SAPS  H10R 8733   4.000   3.200   9.347 -1.4298 -0.1261  0.9446
   90SAPS  H10S 8734   4.054   3.256   9.507 -1.1139  1.2232  0.3120
   90SAPS  C211 8735   4.141   3.374   9.336  0.2751 -0.1666  1.0597
   90SAPS  H11R 8736   4.196   3.439   9.406  0.0180  2.0122 -0.6344
   90SAPS  C212 8737   4.162   3.395   9.204  0.0830  0.9670 -0.6846
   90SAPS  H12R 8738   4.246   3.461   9.178  1.6972 -0.7968 -0.1496
   90SAPS  C213 8739   4.095   3.327   9.086 -0.8524  0.6418  0.1519
   90SAPS  H13R 8740   4.084   3.400   9.003 -1.3107  0.1909 -0.1875
   90SAPS  H13S 8741   3.990   3.307   9.116 -0.6169  0.6605  1.0030
   90SAPS  C214 8742   4.153   3.192   9.047  0.6965 -0.3770  0.2003
   90SAPS  H14R 8743   4.145   3.120   9.129 -2.7856  2.0289  2.2463
   90SAPS  C215 8744   4.195   3.155   8.921 -0.3948 -0.2376  0.1564
   90SAPS  H15R 8745   4.232   3.052   8.907 -2.7688 -1.1491  0.1632
   90SAPS  C216 8746   4.183   3.248   8.796 -0.1096 -0.4953 -0.3183
   90SAPS  H16R 8747   4.270   3.318   8.793  2.3562 -3.2478  1.3866
   90SAPS  H16S 8748   4.091   3.311   8.796  0.5642  0.5144 -0.5493
   90SAPS  C217 8749   4.184   3.172   8.665  0.0478 -0.3041  0.0264
   90SAPS  H17R 8750   4.085   3.125   8.644  0.4082 -0.0655 -2.5058
   90SAPS  H17S 8751   4.256   3.087   8.670  0.1769 -0.3493 -1.9718
   90SAPS  C218 8752   4.219   3.249   8.539 -0.5261  0.2496 -0.1146
   90SAPS  H18R 8753   4.283   3.180   8.479 -1.7232  0.6978 -1.9921
   90SAPS  H18S 8754   4.270   3.342   8.571  0.2849  0.1859 -1.1416
   90SAPS  C219 8755   4.097   3.289   8.459  1.0566 -0.1985  0.0896
   90SAPS  H19R 8756   4.131   3.367   8.389  1.9994 -0.0637  0.6853
   90SAPS  H19S 8757   4.016   3.331   8.523  1.7174  0.1812  0.6938
   90SAPS  C220 8758   4.031   3.187   8.372 -0.0713  0.5763  0.6640
   90SAPS  H20R 8759   4.105   3.141   8.302 -0.6316  0.8600 -0.1237
   90SAPS  H20S 8760   3.941   3.217   8.315  1.0763  0.9280 -1.0509
   90SAPS  H20T 8761   3.994   3.105   8.436  0.1080 -0.8534 -0.9743
   90SAPS   C33 8762   4.443   3.276   9.830 -0.2945 -0.5009 -0.2387
   90SAPS   H3X 8763   4.433   3.385   9.849 -0.2095 -0.2901 -1.3521
   90SAPS   H3Y 8764   4.379   3.243   9.745 -0.4917 -0.3775 -0.1403
   90SAPS   C34 8765   4.585   3.237   9.784  0.3280  0.0528  0.3933
   90SAPS   H4X 8766   4.591   3.129   9.759  1.8098 -0.0676  1.2091
   90SAPS   H4Y 8767   4.667   3.248   9.858 -0.2666  1.4533  0.8823
   90SAPS   C35 8768   4.626   3.314   9.655 -0.2365  0.2488  0.1105
   90SAPS   H5X 8769   4.737   3.310   9.649 -0.0795  0.8055  1.8980
   90SAPS   H5Y 8770   4.601   3.422   9.657  2.9114  1.0822  0.5638
   90SAPS   C36 8771   4.572   3.243   9.527  0.0544  0.2589  0.0912
   90SAPS   H6X 8772   4.463   3.225   9.526  0.0669  0.1952 -0.2181
   90SAPS   H6Y 8773   4.612   3.139   9.521  0.4185  0.3620  0.6189
   90SAPS   C37 8774   4.603   3.318   9.400  0.1163  0.7275  1.0581
   90SAPS   H7X 8775   4.714   3.318   9.392  0.0573 -1.5325 -1.7540
   90SAPS   H7Y 8776   4.559   3.419   9.408  0.0525  0.7000  1.0573
   90SAPS   C38 8777   4.557   3.235   9.280 -0.5504  0.4027 -0.0078
   90SAPS   H8X 8778   4.454   3.199   9.300 -0.3313  1.1594  2.8502
   90SAPS   H8Y 8779   4.619   3.144   9.266 -0.2331  0.7139 -0.7222
   90SAPS   C39 8780   4.553   3.308   9.153 -0.4793  0.0240  0.1077
   90SAPS   H9X 8781   4.639   3.378   9.158 -0.8857  0.6231 -0.8346
   90SAPS   H9Y 8782   4.461   3.370   9.147 -1.3095 -1.2894 -2.4693
   90SAPS  C310 8783   4.581   3.225   9.028  0.0752  0.5084 -0.8195
   90SAPS  H10X 8784   4.502   3.149   9.015 -0.4163  1.3857 -3.4911
   90SAPS  H10Y 8785   4.678   3.172   9.045 -0.9573 -0.6085  2.5519
   90SAPS  C311 8786   4.571   3.315   8.909 -0.3265  0.2600  0.1350
   90SAPS  H11X 8787   4.624   3.409   8.937 -3.5388  2.1079  0.4479
   90SAPS  H11Y 8788   4.461   3.328   8.906 -0.5052  1.4723  4.4163
   90SAPS  C312 8789   4.624   3.258   8.782  0.1552  0.7209 -0.8223
   90SAPS  H12X 8790   4.592   3.152   8.774 -3.1041  1.6094 -0.6972
   90SAPS  H12Y 8791   4.735   3.249   8.794  0.2272  3.7187  2.3959
   90SAPS  C313 8792   4.596   3.332   8.656  0.9642 -0.0576 -0.1719
   90SAPS  H13X 8793   4.642   3.431   8.675 -0.3936  0.3119  1.4493
   90SAPS  H13Y 8794   4.491   3.355   8.630  0.8166 -0.5057  0.0133
   90SAPS  C314 8795   4.662   3.265   8.532  0.4229  0.6009  0.7156
   90SAPS  H14X 8796   4.611   3.167   8.521  3.0685 -0.7999  0.0656
   90SAPS  H14Y 8797   4.769   3.260   8.560  1.2701  0.3087 -2.2072
   90SAPS  C315 8798   4.657   3.351   8.405 -0.6895  0.2728 -0.5533
   90SAPS  H15X 8799   4.740   3.321   8.338  0.2042  2.5969 -0.5663
   90SAPS  H15Y 8800   4.677   3.459   8.421  0.0336  0.3721 -1.9790
   90SAPS  C316 8801   4.538   3.334   8.310 -0.3457 -0.1504  0.5453
   90SAPS  H16X 8802   4.474   3.243   8.314 -0.4219 -0.2484 -1.5906
   90SAPS  H16Y 8803   4.580   3.331   8.207 -1.1093  0.5339  0.1999
   90SAPS  C317 8804   4.451   3.456   8.304 -0.4574  0.3507  0.1478
   90SAPS  H17X 8805   4.507   3.551   8.292 -0.9793  0.4925 -1.4923
   90SAPS  H17Y 8806   4.395   3.454   8.399 -0.6886 -2.1498  0.0344
   90SAPS  C318 8807   4.352   3.458   8.191  0.7236 -1.0267  0.5462
   90SAPS  H18X 8808   4.271   3.531   8.211 -0.3723 -1.7423 -1.0236
   90SAPS  H18Y 8809   4.301   3.361   8.172 -1.4826  0.4583 -1.7791
   90SAPS  H18Z 8810   4.393   3.488   8.092 -4.8114 -0.9068 -2.1337
   91SAPS     N 8811   4.816   0.680   5.815  0.3027  0.3888  0.0158
   91SAPS   HN1 8812   4.812   0.689   5.712  0.0916 -0.7967 -0.0959
   91SAPS   HN2 8813   4.714   0.676   5.830 -0.2692 -0.5910 -3.3263
   91SAPS   HN3 8814   4.851   0.770   5.853  0.3684  0.2491  0.2936
   91SAPS   C12 8815   4.889   0.559   5.862  0.4868  0.0695 -0.1574
   91SAPS  H12A 8816   4.836   0.472   5.826 -0.9918  0.3576  1.1973
   91SAPS   C13 8817   5.026   0.535   5.807 -0.8506 -0.4262  0.4840
   91SAPS  O13A 8818   5.080   0.630   5.742  0.1339  0.3217  0.3087
   91SAPS  O13B 8819   5.093   0.432   5.831  0.0506 -0.3778 -0.1763
   91SAPS   C11 8820   4.888   0.553   6.019 -0.9674 -0.2136 -0.2244
   91SAPS  H11A 8821   4.936   0.651   6.036 -0.0661 -0.5978 -0.5148
   91SAPS  H11B 8822   4.960   0.476   6.053  0.5554  0.7875 -1.0904
   91SAPS     P 8823   4.723   0.530   6.219  0.3688 -0.2733 -0.1418
   91SAPS   O13 8824   4.665   0.657   6.264  0.5964 -0.1485  0.0159
   91SAPS   O14 8825   4.664   0.401   6.262 -0.0566 -0.1930  0.4396
   91SAPS   O12 8826   4.749   0.543   6.059  0.3734 -0.0530 -0.6380
   91SAPS   O11 8827   4.867   0.538   6.272 -0.5704  0.3680  0.4580
   91SAPS    C1 8828   4.943   0.419   6.318 -0.2911  0.4978  0.5932
   91SAPS    HA 8829   4.939   0.333   6.248  0.1332  1.9281 -1.2730
   91SAPS    HB 8830   5.052   0.442   6.313  0.3174 -2.2532 -0.0336
   91SAPS    C2 8831   4.904   0.387   6.464 -0.4457 -0.2983 -0.5278
   91SAPS    HS 8832   4.794   0.379   6.476 -0.5533  0.2953 -1.0982
   91SAPS   O21 8833   4.956   0.486   6.558 -0.1290 -0.0546  0.1381
   91SAPS   C21 8834   4.874   0.595   6.568 -0.7400 -0.4420  0.3752
   91SAPS   O22 8835   4.753   0.597   6.544  0.8382 -0.3599 -0.1557
   91SAPS   C22 8836   4.957   0.711   6.622  0.3286  0.3191  0.5564
   91SAPS   H2R 8837   5.049   0.712   6.559  0.7469 -1.0807  1.1099
   91SAPS   H2S 8838   4.897   0.804   6.614  0.2818  0.4299  1.9245
   91SAPS    C3 8839   4.962   0.251   6.505  0.8142  0.4047 -0.2356
   91SAPS    HX 8840   5.072   0.242   6.491  0.5977 -0.8421 -1.3194
   91SAPS    HY 8841   4.916   0.174   6.440  3.2331  0.2430 -1.8915
   91SAPS   O31 8842   4.939   0.224   6.649  0.0817  0.2347 -0.4043
   91SAPS   C31 8843   4.902   0.100   6.686 -0.5145  0.1401 -0.4367
   91SAPS   O32 8844   4.895   0.000   6.617  0.1278  0.4472 -0.0109
   91SAPS   C32 8845   4.872   0.099   6.839  0.2733  0.2167 -0.6504
   91SAPS   H2X 8846   4.763   0.112   6.856 -0.2500 -0.1139 -3.2792
   91SAPS   H2Y 8847   4.932   0.184   6.879  0.3873  0.6134 -1.6502
   91SAPS   C23 8848   4.997   0.694   6.765  0.0882  0.0689  0.0444
   91SAPS   H3R 8849   5.065   0.608   6.780  1.1704  1.3175  3.2922
   91SAPS   H3S 8850   4.910   0.669   6.829 -0.1242  1.0651  0.1648
   91SAPS   C24 8851   5.058   0.825   6.825 -0.2765 -0.0246 -0.4037
   91SAPS   H4R 8852   5.156   0.843   6.776 -0.1148 -0.5775 -0.2920
   91SAPS   H4S 8853   5.084   0.808   6.932  1.0790 -1.7813 -0.9574
   91SAPS   C25 8854   4.983   0.946   6.803 -0.0278 -0.4629  0.1465
   91SAPS   H5R 8855   4.990   0.986   6.701  0.1318 -0.6648  0.0767
   91SAPS   C26 8856   4.918   1.024   6.894  0.3015  0.1733  0.5191
   91SAPS   H6R 8857   4.872   1.119   6.865  0.3800 -0.6691 -2.7147
   91SAPS   C27 8858   4.925   1.002   7.041  0.1573 -0.2824 -0.3349
   91SAPS   H7R 8859   4.929   0.893   7.063  1.6075  0.3389  3.1449
   91SAPS   H7S 8860   4.842   1.052   7.095  0.0263  0.6134 -1.3204
   91SAPS   C28 8861   5.053   1.057   7.099  0.2246 -0.4277 -1.2511
   91SAPS   H8R 8862   5.137   1.080   7.033  0.4206  2.5243 -0.1297
   91SAPS   C29 8863   5.060   1.109   7.224  0.5824 -0.1075 -0.2885
   91SAPS   H9R 8864   5.154   1.158   7.255  0.6161 -0.9885  1.0734
   91SAPS  C210 8865   4.954   1.091   7.330 -0.2709 -0.6841 -0.2331
   91SAPS  H10R 8866   4.848   1.082   7.297  0.0415 -1.4188 -1.1029
   91SAPS  H10S 8867   4.927   1.188   7.377  0.1259 -0.2365 -0.8968
   91SAPS  C211 8868   4.988   0.984   7.428 -0.2889 -0.2481  0.1514
   91SAPS  H11R 8869   4.988   0.879   7.396 -0.3218 -0.7096  1.5970
   91SAPS  C212 8870   5.036   1.002   7.553  0.8045 -0.2221 -0.3151
   91SAPS  H12R 8871   5.049   0.920   7.625 -2.2745  0.3904  1.1179
   91SAPS  C213 8872   5.057   1.136   7.619  0.7668 -0.2884  0.6535
   91SAPS  H13R 8873   5.078   1.213   7.542  0.2510  0.4338  1.2173
   91SAPS  H13S 8874   5.141   1.136   7.692  2.2511 -0.4251 -0.9785
   91SAPS  C214 8875   4.932   1.190   7.690  0.4055 -0.8555  0.1381
   91SAPS  H14R 8876   4.836   1.147   7.659 -1.1191  3.6129 -2.1595
   91SAPS  C215 8877   4.934   1.274   7.796 -0.3421  0.7762  0.5131
   91SAPS  H15R 8878   4.838   1.301   7.840 -0.7266  1.2469 -0.5695
   91SAPS  C216 8879   5.054   1.326   7.876  0.1546 -0.4067 -0.0921
   91SAPS  H16R 8880   5.044   1.436   7.884 -1.2075 -0.4087 -1.3319
   91SAPS  H16S 8881   5.160   1.307   7.847 -0.0290 -0.7945 -0.5127
   91SAPS  C217 8882   5.039   1.267   8.019  0.2123  0.2252  0.0106
   91SAPS  H17R 8883   5.084   1.166   8.015 -0.3634 -0.0018 -1.7874
   91SAPS  H17S 8884   4.931   1.262   8.046 -0.3608  1.5047 -1.8265
   91SAPS  C218 8885   5.093   1.360   8.127 -0.3119  0.3316  0.6170
   91SAPS  H18R 8886   5.048   1.460   8.109 -2.7550 -0.6918  0.6353
   91SAPS  H18S 8887   5.202   1.376   8.119 -0.2213 -0.2137  0.6706
   91SAPS  C219 8888   5.046   1.325   8.264  0.3077 -0.4180 -0.1849
   91SAPS  H19R 8889   4.937   1.307   8.256  0.5120 -1.3602 -1.1522
   91SAPS  H19S 8890   5.069   1.406   8.336 -0.1991 -1.2842  0.9820
   91SAPS  C220 8891   5.111   1.196   8.315  0.0991 -0.5920  0.2951
   91SAPS  H20R 8892   5.203   1.171   8.257  0.1350 -0.3252  0.2342
   91SAPS  H20S 8893   5.044   1.110   8.293 -0.3031 -0.3557  0.5707
   91SAPS  H20T 8894   5.137   1.175   8.421  5.1024 -3.1454 -1.1306
   91SAPS   C33 8895   4.927  -0.035   6.902 -0.2455  0.4021  0.2321
   91SAPS   H3X 8896   5.033  -0.055   6.873 -0.1367  0.3660  0.6540
   91SAPS   H3Y 8897   4.866  -0.119   6.862 -1.9718  1.7900 -0.1545
   91SAPS   C34 8898   4.937  -0.041   7.056 -1.0136  0.6810  0.6077
   91SAPS   H4X 8899   4.843  -0.010   7.107 -0.6643 -0.4103  1.9586
   91SAPS   H4Y 8900   5.019   0.028   7.084 -1.5087  1.0016  1.3093
   91SAPS   C35 8901   4.974  -0.178   7.112 -0.1748 -0.3057  1.3068
   91SAPS   H5X 8902   5.072  -0.218   7.077 -0.3770  0.5822 -0.3776
   91SAPS   H5Y 8903   4.893  -0.252   7.095 -1.0365  0.5382  1.7158
   91SAPS   C36 8904   4.994  -0.158   7.263  0.2977  0.2941 -0.4738
   91SAPS   H6X 8905   4.894  -0.133   7.303 -0.8347 -2.7969 -1.0786
   91SAPS   H6Y 8906   5.069  -0.078   7.281 -0.2045  0.6225  0.2013
   91SAPS   C37 8907   5.052  -0.282   7.339 -0.2520  0.3761 -0.0154
   91SAPS   H7X 8908   5.129  -0.337   7.280 -0.0354  1.0516 -0.3766
   91SAPS   H7Y 8909   4.972  -0.355   7.360  2.6001 -3.1378 -0.4033
   91SAPS   C38 8910   5.104  -0.238   7.475  0.5087  0.1208 -0.2229
   91SAPS   H8X 8911   5.021  -0.183   7.524  0.2092 -0.3900 -0.1382
   91SAPS   H8Y 8912   5.196  -0.178   7.466  2.0261 -2.2161 -1.3509
   91SAPS   C39 8913   5.134  -0.365   7.567 -0.3586  0.3239 -0.1005
   91SAPS   H9X 8914   5.202  -0.443   7.527 -2.9245 -1.6557 -0.8732
   91SAPS   H9Y 8915   5.039  -0.421   7.576  1.0173 -2.1758 -0.3029
   91SAPS  C310 8916   5.175  -0.316   7.707  0.1324  0.2855  0.6769
   91SAPS  H10X 8917   5.095  -0.250   7.747 -0.4093 -0.7650  1.3970
   91SAPS  H10Y 8918   5.267  -0.255   7.694  1.0604 -1.4227 -1.2116
   91SAPS  C311 8919   5.203  -0.427   7.799  0.1747 -0.0161  0.1928
   91SAPS  H11X 8920   5.298  -0.466   7.757  0.0493  1.2133 -1.3348
   91SAPS  H11Y 8921   5.120  -0.500   7.805 -0.4425  0.6604  0.1344
   91SAPS  C312 8922   5.231  -0.370   7.938 -0.3812 -0.0645 -0.3233
   91SAPS  H12X 8923   5.290  -0.276   7.930 -0.7772  0.5282  2.4196
   91SAPS  H12Y 8924   5.295  -0.445   7.991 -0.1682 -0.8173 -1.6081
   91SAPS  C313 8925   5.104  -0.349   8.019  0.7119  0.6140 -0.4878
   91SAPS  H13X 8926   5.043  -0.440   8.034 -1.9595  2.0327 -1.9675
   91SAPS  H13Y 8927   5.032  -0.281   7.969  0.6958  3.7374  3.2595
   91SAPS  C314 8928   5.143  -0.287   8.153 -0.4651  0.3416  0.6322
   91SAPS  H14X 8929   5.053  -0.239   8.198 -0.5565  1.2459 -0.4819
   91SAPS  H14Y 8930   5.222  -0.210   8.141 -1.7225  1.6492  0.4312
   91SAPS  C315 8931   5.191  -0.397   8.248 -0.4817  0.4835 -0.0554
   91SAPS  H15X 8932   5.290  -0.434   8.213  0.4980 -0.5442  3.3451
   91SAPS  H15Y 8933   5.117  -0.478   8.233 -0.0386  0.1541 -0.4998
   91SAPS  C316 8934   5.189  -0.347   8.394  0.4409  0.1530  0.0568
   91SAPS  H16X 8935   5.094  -0.298   8.424  0.4955  2.0491 -2.5374
   91SAPS  H16Y 8936   5.258  -0.261   8.408  0.4974  0.0616  0.3609
   91SAPS  C317 8937   5.206  -0.454   8.505  0.3193 -0.7259 -0.6289
   91SAPS  H17X 8938   5.219  -0.398   8.600 -1.7145 -1.5382  0.1946
   91SAPS  H17Y 8939   5.293  -0.522   8.494  0.6013 -0.4746  0.0322
   91SAPS  C318 8940   5.082  -0.536   8.518  0.4846  0.6594 -0.1556
   91SAPS  H18X 8941   5.053  -0.548   8.625 -0.2461  2.6673 -0.1019
   91SAPS  H18Y 8942   5.106  -0.630   8.464  1.5178 -0.2723  1.8096
   91SAPS  H18Z 8943   4.996  -0.483   8.472 -0.4253 -1.4185 -1.0059
   92SAPS     N 8944   3.436   6.110   5.735 -0.2193 -0.2880 -0.0719
   92SAPS   HN1 8945   3.386   6.195   5.701 -0.0978  0.8033  2.2610
   92SAPS   HN2 8946   3.523   6.093   5.682  1.3677  1.3688  1.8444
   92SAPS   HN3 8947   3.375   6.027   5.722 -1.1565  0.6222 -1.8195
   92SAPS   C12 8948   3.477   6.150   5.873  0.4209  0.1499  0.0610
   92SAPS  H12A 8949   3.554   6.081   5.904  0.0915  0.3895  1.4795
   92SAPS   C13 8950   3.535   6.295   5.886  0.3228  0.1505 -0.0983
   92SAPS  O13A 8951   3.508   6.369   5.787  0.3257  0.4353 -0.1536
   92SAPS  O13B 8952   3.605   6.325   5.983  0.0571  0.5189 -0.0341
   92SAPS   C11 8953   3.349   6.145   5.963 -0.6117  0.2424 -0.1294
   92SAPS  H11A 8954   3.286   6.233   5.939 -0.6128 -0.2571 -2.1205
   92SAPS  H11B 8955   3.386   6.164   6.066  1.6483  1.1405 -1.0401
   92SAPS     P 8956   3.331   5.893   6.031 -0.2526  0.3818  0.0307
   92SAPS   O13 8957   3.278   5.772   5.967 -0.6715  0.0670 -0.0480
   92SAPS   O14 8958   3.477   5.901   6.042  0.2647  0.9907  0.7255
   92SAPS   O12 8959   3.272   6.028   5.958 -0.5275  0.7136 -0.0066
   92SAPS   O11 8960   3.289   5.901   6.179  0.6458 -0.2020 -0.3474
   92SAPS    C1 8961   3.268   5.794   6.275 -0.0832  0.0501 -0.0106
   92SAPS    HA 8962   3.316   5.698   6.249 -0.3801 -0.0996 -0.0087
   92SAPS    HB 8963   3.324   5.821   6.367  1.5922 -3.3111  0.1088
   92SAPS    C2 8964   3.118   5.772   6.300  0.3849 -0.3389  0.0356
   92SAPS    HS 8965   3.079   5.762   6.196 -1.6677 -1.3266  0.8595
   92SAPS   O21 8966   3.071   5.876   6.382  0.4854  0.4334  0.0578
   92SAPS   C21 8967   2.942   5.923   6.364  0.6314 -0.2887 -0.3996
   92SAPS   O22 8968   2.873   5.906   6.263  0.5277  0.5129  0.0197
   92SAPS   C22 8969   2.882   5.997   6.491 -0.6078 -0.4498 -0.0771
   92SAPS   H2R 8970   2.790   6.052   6.463 -0.8069 -1.8413 -2.3859
   92SAPS   H2S 8971   2.852   5.912   6.555 -0.4135 -0.3687  0.1247
   92SAPS    C3 8972   3.077   5.637   6.366  0.3952  0.3293  0.7338
   92SAPS    HX 8973   3.149   5.609   6.446 -1.1488 -1.7137  1.5126
   92SAPS    HY 8974   3.082   5.554   6.293 -1.9589 -0.5201  1.4188
   92SAPS   O31 8975   2.944   5.634   6.420  0.7302  0.4446 -0.1489
   92SAPS   C31 8976   2.846   5.575   6.343 -0.3322  0.1282  0.3477
   92SAPS   O32 8977   2.857   5.565   6.223 -0.1721 -0.1062  0.1861
   92SAPS   C32 8978   2.721   5.541   6.430  0.3473 -0.4176  0.6510
   92SAPS   H2X 8979   2.733   5.544   6.540 -0.6356 -0.5211  0.7705
   92SAPS   H2Y 8980   2.699   5.436   6.402  1.7843 -0.1250 -1.9000
   92SAPS   C23 8981   2.985   6.076   6.573 -0.4913 -0.3039  0.2587
   92SAPS   H3R 8982   3.015   6.162   6.509 -0.5253  0.6051  1.4375
   92SAPS   H3S 8983   3.074   6.012   6.589  0.6762  1.4778  1.2354
   92SAPS   C24 8984   2.942   6.136   6.707  0.1905 -1.0999 -0.6325
   92SAPS   H4R 8985   2.836   6.170   6.700 -0.1479 -1.2288  2.5100
   92SAPS   H4S 8986   2.999   6.226   6.738 -1.3216  0.0746 -1.0964
   92SAPS   C25 8987   2.944   6.030   6.808 -0.4064  0.0610 -0.0570
   92SAPS   H5R 8988   2.903   5.931   6.782  1.0926 -0.9738  1.3335
   92SAPS   C26 8989   2.990   6.044   6.937 -0.3415 -0.4603  0.3655
   92SAPS   H6R 8990   2.991   5.955   7.002 -0.5007 -0.4883  0.3322
   92SAPS   C27 8991   3.040   6.163   7.007 -0.1107 -0.4857  0.5173
   92SAPS   H7R 8992   2.957   6.211   7.063 -0.5561 -0.9599  0.2693
   92SAPS   H7S 8993   3.080   6.240   6.937 -2.6141  0.1976 -0.2442
   92SAPS   C28 8994   3.147   6.135   7.109  0.1739 -0.8245 -0.4861
   92SAPS   H8R 8995   3.249   6.117   7.069  0.3258 -2.1757  0.4472
   92SAPS   C29 8996   3.136   6.125   7.245 -0.5501  0.3728 -0.4374
   92SAPS   H9R 8997   3.225   6.080   7.292 -2.3034 -3.0908 -0.1334
   92SAPS  C210 8998   3.016   6.138   7.334 -0.2945 -0.2693 -1.1621
   92SAPS  H10R 8999   3.003   6.044   7.393 -0.7979  0.1799 -0.5306
   92SAPS  H10S 9000   2.926   6.142   7.269 -0.7285  1.2079 -0.5208
   92SAPS  C211 9001   3.025   6.260   7.423  0.3497 -0.2339 -0.0857
   92SAPS  H11R 9002   3.040   6.356   7.371 -2.3322  0.9864  1.2164
   92SAPS  C212 9003   3.006   6.262   7.555  0.2368 -0.3902 -0.0309
   92SAPS  H12R 9004   3.019   6.356   7.612  1.0728 -1.1757  1.1063
   92SAPS  C213 9005   2.995   6.141   7.642 -0.0305 -0.4291 -0.2827
   92SAPS  H13R 9006   2.906   6.079   7.616 -0.9005 -0.3753  2.3533
   92SAPS  H13S 9007   2.969   6.187   7.739  2.3027 -0.1377  0.2562
   92SAPS  C214 9008   3.127   6.071   7.653 -0.1171  0.0688  0.0253
   92SAPS  H14R 9009   3.211   6.142   7.650  0.6031 -0.7159  0.9922
   92SAPS  C215 9010   3.147   5.941   7.665  0.2310  0.3033 -0.1008
   92SAPS  H15R 9011   3.248   5.902   7.685  0.1021 -1.6667 -2.7388
   92SAPS  C216 9012   3.035   5.834   7.680 -0.4182 -0.7923 -0.7179
   92SAPS  H16R 9013   3.068   5.742   7.627 -1.1400 -1.9158  0.7169
   92SAPS  H16S 9014   2.944   5.871   7.626 -1.3768 -1.3178  0.4874
   92SAPS  C217 9015   3.001   5.779   7.813 -0.5499  0.4250 -0.6235
   92SAPS  H17R 9016   3.089   5.728   7.858  0.1790  1.1283 -1.2378
   92SAPS  H17S 9017   2.927   5.699   7.790 -0.8457  0.3947  0.3527
   92SAPS  C218 9018   2.944   5.876   7.917 -0.2734  0.1752 -0.6682
   92SAPS  H18R 9019   2.874   5.938   7.856  0.3244 -1.1022 -2.7423
   92SAPS  H18S 9020   3.021   5.939   7.967  0.3253 -2.9978  2.8551
   92SAPS  C219 9021   2.873   5.804   8.039 -0.3529  0.1134 -0.7438
   92SAPS  H19R 9022   2.941   5.737   8.096 -1.1781 -0.3060 -0.2358
   92SAPS  H19S 9023   2.801   5.731   7.997  1.4957 -2.0214 -0.3982
   92SAPS  C220 9024   2.815   5.903   8.141 -0.0537 -0.1941 -0.6227
   92SAPS  H20R 9025   2.730   5.955   8.091 -1.4741 -0.1822  1.6697
   92SAPS  H20S 9026   2.889   5.981   8.168  0.2397 -0.1371 -1.5482
   92SAPS  H20T 9027   2.778   5.845   8.228  0.4157  2.7333  1.7085
   92SAPS   C33 9028   2.604   5.641   6.398 -0.3201 -0.0298  0.9635
   92SAPS   H3X 9029   2.560   5.628   6.297 -0.5107 -0.0006  1.0437
   92SAPS   H3Y 9030   2.636   5.747   6.408 -1.5988  0.3129  1.5188
   92SAPS   C34 9031   2.484   5.630   6.493 -0.2141 -0.1920  0.0345
   92SAPS   H4X 9032   2.447   5.526   6.507 -0.0358 -0.1756  0.6553
   92SAPS   H4Y 9033   2.406   5.688   6.439  0.3034  1.5245  1.0427
   92SAPS   C35 9034   2.525   5.709   6.624  0.5199  0.0345 -0.6030
   92SAPS   H5X 9035   2.581   5.804   6.608 -0.5912  0.6995 -0.6571
   92SAPS   H5Y 9036   2.599   5.640   6.669  0.9086  1.2627  0.7124
   92SAPS   C36 9037   2.416   5.725   6.729  0.1700 -0.2309 -0.4573
   92SAPS   H6X 9038   2.325   5.676   6.689 -1.4838 -0.6924  3.3796
   92SAPS   H6Y 9039   2.385   5.830   6.749 -1.6189 -0.2527 -2.7374
   92SAPS   C37 9040   2.449   5.654   6.861  0.1822 -0.1836  0.1403
   92SAPS   H7X 9041   2.558   5.645   6.882  0.2578 -2.4332 -0.9459
   92SAPS   H7Y 9042   2.400   5.555   6.850 -3.8830  1.6208  0.1555
   92SAPS   C38 9043   2.361   5.709   6.976  0.0643  0.3539  0.0338
   92SAPS   H8X 9044   2.254   5.705   6.946  0.0302 -3.5988  0.1474
   92SAPS   H8Y 9045   2.386   5.816   6.992 -2.9726  1.4681 -1.9165
   92SAPS   C39 9046   2.365   5.627   7.109  0.1743  0.5302  0.5875
   92SAPS   H9X 9047   2.474   5.616   7.130  0.3808 -0.0138 -0.6658
   92SAPS   H9Y 9048   2.324   5.525   7.094 -1.6767  1.6217 -3.1547
   92SAPS  C310 9049   2.303   5.683   7.235  0.6834 -0.4440 -0.4067
   92SAPS  H10X 9050   2.208   5.730   7.202 -0.0068 -0.6646  1.1832
   92SAPS  H10Y 9051   2.364   5.762   7.283 -1.9238  0.3039  1.9092
   92SAPS  C311 9052   2.277   5.580   7.352  0.1309 -0.1549 -0.2105
   92SAPS  H11X 9053   2.367   5.531   7.395 -1.0703 -1.0686  1.3726
   92SAPS  H11Y 9054   2.217   5.496   7.311 -0.9257  1.2701 -1.6957
   92SAPS  C312 9055   2.210   5.646   7.474  0.4934  0.7106 -0.2585
   92SAPS  H12X 9056   2.104   5.673   7.452 -0.3535 -2.4988 -0.6811
   92SAPS  H12Y 9057   2.261   5.744   7.483 -1.4149  2.1880 -3.6039
   92SAPS  C313 9058   2.215   5.560   7.596 -0.0986  0.2066  0.0506
   92SAPS  H13X 9059   2.321   5.560   7.631 -0.4632  2.6023  1.3718
   92SAPS  H13Y 9060   2.185   5.456   7.569 -3.7795  0.7517  1.5014
   92SAPS  C314 9061   2.126   5.621   7.715  0.1060  0.0529 -0.0422
   92SAPS  H14X 9062   2.018   5.623   7.691  0.0191 -2.8078 -0.2071
   92SAPS  H14Y 9063   2.165   5.722   7.738  0.0930  0.0060  0.1938
   92SAPS  C315 9064   2.142   5.528   7.842 -0.1796 -0.1146  0.0902
   92SAPS  H15X 9065   2.245   5.542   7.882 -0.1590 -2.7412  1.1068
   92SAPS  H15Y 9066   2.127   5.424   7.808 -2.1946  0.0095  0.4672
   92SAPS  C316 9067   2.044   5.560   7.963 -0.1500 -0.2015 -0.8972
   92SAPS  H16X 9068   1.939   5.527   7.949 -0.1459 -1.2252  1.2103
   92SAPS  H16Y 9069   2.055   5.670   7.976  0.5820 -0.3107 -0.5295
   92SAPS  C317 9070   2.097   5.499   8.094  0.0154 -0.3148 -0.4386
   92SAPS  H17X 9071   2.196   5.537   8.125  0.2063  0.6777 -2.1335
   92SAPS  H17Y 9072   2.121   5.396   8.059  0.3939 -0.3406 -0.1090
   92SAPS  C318 9073   2.001   5.512   8.215  0.0501  0.3830 -0.3332
   92SAPS  H18X 9074   2.031   5.446   8.299 -3.4271  1.3392  1.8350
   92SAPS  H18Y 9075   1.904   5.464   8.189 -0.5239  0.3119  1.7947
   92SAPS  H18Z 9076   1.983   5.615   8.252 -2.4013 -0.8007  2.1487
   93SAPS     N 9077   3.933   6.416   5.854  0.4361 -0.0040  0.3344
   93SAPS   HN1 9078   3.933   6.415   5.750 -1.9467  1.9797  0.2352
   93SAPS   HN2 9079   3.922   6.317   5.885  2.4871 -0.2755  0.3517
   93SAPS   HN3 9080   3.862   6.485   5.885  0.5819 -0.0440  0.7563
   93SAPS   C12 9081   4.058   6.466   5.894 -0.7756 -0.1401 -0.0892
   93SAPS  H12A 9082   4.127   6.393   5.853 -1.4013 -0.8906  0.1638
   93SAPS   C13 9083   4.118   6.596   5.839 -0.0642 -0.0393  0.9046
   93SAPS  O13A 9084   4.042   6.675   5.777  0.5955  0.2490 -0.0691
   93SAPS  O13B 9085   4.242   6.612   5.851 -0.2394 -0.1763  0.0142
   93SAPS   C11 9086   4.069   6.478   6.051  0.3823 -0.3588  0.4211
   93SAPS  H11A 9087   4.018   6.572   6.079 -2.0014 -1.3935 -0.1946
   93SAPS  H11B 9088   4.173   6.484   6.088  0.0757 -1.4390  1.5241
   93SAPS     P 9089   3.949   6.385   6.272  0.1815  0.2636  0.0748
   93SAPS   O13 9090   3.942   6.526   6.302  0.7739 -0.1924 -0.2485
   93SAPS   O14 9091   3.825   6.305   6.286 -0.6425  1.0202  0.0863
   93SAPS   O12 9092   4.006   6.367   6.123  0.4237  0.0384 -0.3606
   93SAPS   O11 9093   4.069   6.321   6.361  0.0313  0.2278  0.0839
   93SAPS    C1 9094   4.037   6.196   6.423 -0.3058  0.0356 -0.8795
   93SAPS    HA 9095   3.979   6.131   6.354 -2.6501  0.0358  0.9427
   93SAPS    HB 9096   4.128   6.142   6.455 -1.7170 -1.9406  0.0773
   93SAPS    C2 9097   3.943   6.216   6.550 -1.3289 -0.0088  0.2207
   93SAPS    HS 9098   3.849   6.263   6.514 -1.4311 -1.0038 -0.8648
   93SAPS   O21 9099   4.013   6.300   6.647 -0.2361 -0.4564  0.0013
   93SAPS   C21 9100   3.937   6.381   6.724  0.2702 -0.0039 -0.2888
   93SAPS   O22 9101   3.815   6.388   6.728 -0.0255 -0.1852  0.1962
   93SAPS   C22 9102   4.025   6.457   6.820 -0.0405  0.1375  0.2436
   93SAPS   H2R 9103   4.115   6.398   6.845 -1.0939 -0.7525  2.1174
   93SAPS   H2S 9104   4.066   6.541   6.760  0.7833 -2.6580 -3.4362
   93SAPS    C3 9105   3.910   6.075   6.608 -0.7578  0.1407 -1.1633
   93SAPS    HX 9106   4.003   6.023   6.640 -2.1258 -1.3138  0.7221
   93SAPS    HY 9107   3.868   6.012   6.527  0.9586 -0.8067 -1.3608
   93SAPS   O31 9108   3.829   6.077   6.726 -0.4628  0.0428 -0.0815
   93SAPS   C31 9109   3.706   6.114   6.705 -0.7072  0.2986  0.5654
   93SAPS   O32 9110   3.652   6.140   6.599  0.5522 -0.0131 -0.1800
   93SAPS   C32 9111   3.642   6.142   6.840  0.5691  0.4468 -0.0626
   93SAPS   H2X 9112   3.532   6.148   6.823  0.1744 -1.6112  1.4349
   93SAPS   H2Y 9113   3.671   6.241   6.882 -1.3753  0.6109  1.0203
   93SAPS   C23 9114   3.961   6.537   6.937  0.3205  0.3586 -0.4183
   93SAPS   H3R 9115   3.873   6.590   6.896 -0.4770 -0.4840  0.1719
   93SAPS   H3S 9116   4.026   6.618   6.978 -0.4963  0.5278  0.6003
   93SAPS   C24 9117   3.898   6.452   7.058 -0.4913  0.2230  0.3432
   93SAPS   H4R 9118   3.835   6.371   7.013  0.3719 -0.7309  0.8074
   93SAPS   H4S 9119   3.832   6.517   7.118  1.2597  1.6451  0.8051
   93SAPS   C25 9120   4.004   6.397   7.142  0.0428 -0.2448 -0.2461
   93SAPS   H5R 9121   4.077   6.342   7.081 -0.2350 -0.7319 -0.1443
   93SAPS   C26 9122   4.018   6.401   7.274 -0.3923 -0.3582 -0.5848
   93SAPS   H6R 9123   4.110   6.364   7.322 -0.3822  1.2900  0.7565
   93SAPS   C27 9124   3.938   6.473   7.377 -0.2173 -0.9983  0.0325
   93SAPS   H7R 9125   3.852   6.526   7.330 -1.5371 -3.5600 -0.5870
   93SAPS   H7S 9126   3.998   6.539   7.443  0.3794 -1.6584  0.1637
   93SAPS   C28 9127   3.884   6.371   7.470  0.0009  0.2187 -0.3990
   93SAPS   H8R 9128   3.784   6.331   7.448 -0.7367  1.4878  0.5378
   93SAPS   C29 9129   3.941   6.323   7.581 -0.0596 -0.1535  0.0573
   93SAPS   H9R 9130   3.897   6.234   7.628  0.6944 -0.2605  0.5978
   93SAPS  C210 9131   4.077   6.362   7.645 -0.6256 -0.4584  0.5797
   93SAPS  H10R 9132   4.154   6.379   7.567  1.8974 -1.3020  2.7314
   93SAPS  H10S 9133   4.126   6.286   7.709  2.9325  2.3373  1.5495
   93SAPS  C211 9134   4.078   6.491   7.710 -1.0617  0.5455 -0.4025
   93SAPS  H11R 9135   3.980   6.541   7.704 -1.6911 -0.6660 -0.5194
   93SAPS  C212 9136   4.165   6.533   7.806  0.0883 -0.4469 -0.3309
   93SAPS  H12R 9137   4.157   6.631   7.854  1.7155 -0.0003 -0.9039
   93SAPS  C213 9138   4.300   6.469   7.839 -0.0959 -0.2377 -0.0495
   93SAPS  H13R 9139   4.376   6.548   7.857 -0.1907 -0.3891  1.0626
   93SAPS  H13S 9140   4.328   6.409   7.749  0.0477  1.7950 -1.4131
   93SAPS  C214 9141   4.290   6.383   7.960  0.0844 -0.3333 -0.3203
   93SAPS  H14R 9142   4.242   6.287   7.937  2.0025 -0.6592 -3.7210
   93SAPS  C215 9143   4.333   6.419   8.084 -1.1431 -0.3609  0.2713
   93SAPS  H15R 9144   4.327   6.342   8.163  1.4063  0.5640  1.4835
   93SAPS  C216 9145   4.405   6.540   8.127  0.5378 -0.3024  0.4146
   93SAPS  H16R 9146   4.406   6.622   8.051 -0.1277 -0.4729  0.2126
   93SAPS  H16S 9147   4.512   6.516   8.144  1.5300  2.7835 -0.6867
   93SAPS  C217 9148   4.339   6.598   8.247  0.0386 -0.1742 -0.4177
   93SAPS  H17R 9149   4.343   6.518   8.325 -1.3554 -0.0242 -0.1701
   93SAPS  H17S 9150   4.232   6.617   8.225 -0.0150  0.8861  0.6537
   93SAPS  C218 9151   4.401   6.727   8.311 -0.1243 -0.0750  0.5847
   93SAPS  H18R 9152   4.366   6.810   8.246 -0.4702 -1.5947 -1.2774
   93SAPS  H18S 9153   4.512   6.720   8.309 -0.1135 -0.2805  1.4506
   93SAPS  C219 9154   4.349   6.756   8.444 -0.1613 -0.0173  0.5915
   93SAPS  H19R 9155   4.388   6.688   8.523  1.7362 -0.8150 -0.9737
   93SAPS  H19S 9156   4.242   6.726   8.454 -0.5615  1.6225  1.6459
   93SAPS  C220 9157   4.364   6.898   8.496 -0.3523  0.4754 -0.0313
   93SAPS  H20R 9158   4.473   6.919   8.497 -0.2445 -0.0633  0.3562
   93SAPS  H20S 9159   4.317   6.897   8.597  1.8831  1.4927  1.0886
   93SAPS  H20T 9160   4.320   6.978   8.432 -0.0341 -0.4742 -1.4732
   93SAPS   C33 9161   3.657   6.039   6.956 -0.0083 -0.1148  0.3638
   93SAPS   H3X 9162   3.766   6.035   6.977  0.3425  1.1242 -1.0583
   93SAPS   H3Y 9163   3.643   5.936   6.919  2.0918 -0.2033 -0.3047
   93SAPS   C34 9164   3.584   6.071   7.090 -0.3088 -0.2867 -0.2389
   93SAPS   H4X 9165   3.477   6.041   7.081 -0.3376  0.2277 -1.9197
   93SAPS   H4Y 9166   3.592   6.181   7.103  0.5410 -0.2765 -0.7444
   93SAPS   C35 9167   3.637   6.001   7.215 -0.4472  0.3832 -0.0939
   93SAPS   H5X 9168   3.748   5.998   7.212 -0.4166  1.2928 -0.0978
   93SAPS   H5Y 9169   3.599   5.897   7.214  1.6901 -0.4991 -2.9024
   93SAPS   C36 9170   3.585   6.065   7.343 -0.3093 -0.2410 -0.2877
   93SAPS   H6X 9171   3.475   6.062   7.354 -0.4703  1.0480 -1.3099
   93SAPS   H6Y 9172   3.608   6.173   7.338  1.6883 -0.6058  0.1902
   93SAPS   C37 9173   3.656   6.020   7.473 -0.2685 -0.6746  0.6805
   93SAPS   H7X 9174   3.752   6.077   7.480 -0.5781 -0.3118  2.3738
   93SAPS   H7Y 9175   3.681   5.912   7.465 -1.0366 -0.7595 -1.2302
   93SAPS   C38 9176   3.585   6.055   7.603 -0.0856 -0.5505  0.0205
   93SAPS   H8X 9177   3.489   5.999   7.602 -0.6931 -0.0677  5.0983
   93SAPS   H8Y 9178   3.565   6.164   7.604 -2.3753 -0.9098 -0.7935
   93SAPS   C39 9179   3.659   6.004   7.733 -0.8711 -0.1096  0.3031
   93SAPS   H9X 9180   3.764   6.042   7.732 -0.5936 -0.7805 -2.0173
   93SAPS   H9Y 9181   3.670   5.894   7.724  0.2078  0.0657 -0.9020
   93SAPS  C310 9182   3.586   6.056   7.857 -0.6404 -0.7130 -0.3695
   93SAPS  H10X 9183   3.483   6.014   7.868  0.0529 -2.2109  0.8249
   93SAPS  H10Y 9184   3.582   6.167   7.861  2.0819 -0.5864  0.7845
   93SAPS  C311 9185   3.657   6.030   7.984  0.6020 -0.4884  0.0586
   93SAPS  H11X 9186   3.764   6.059   7.971 -0.1517  1.2229 -3.1777
   93SAPS  H11Y 9187   3.657   5.920   8.003  2.1163 -0.7366 -1.1222
   93SAPS  C312 9188   3.589   6.107   8.099  0.4101 -0.2189 -0.1632
   93SAPS  H12X 9189   3.478   6.115   8.093  0.3317 -1.3062 -0.5043
   93SAPS  H12Y 9190   3.624   6.211   8.086  0.5228 -0.1782  0.4372
   93SAPS  C313 9191   3.610   6.043   8.239 -0.4028  0.0747 -0.1304
   93SAPS  H13X 9192   3.536   5.960   8.228 -1.2855  0.8726 -0.3237
   93SAPS  H13Y 9193   3.565   6.105   8.319  0.2528 -2.9333  2.8006
   93SAPS  C314 9194   3.749   5.996   8.269 -0.2390 -0.3318  0.0965
   93SAPS  H14X 9195   3.801   5.960   8.177  0.0406 -0.4973  0.3169
   93SAPS  H14Y 9196   3.736   5.909   8.337 -0.3716  0.7388  1.4585
   93SAPS  C315 9197   3.832   6.091   8.356 -0.2895  0.3123 -0.0064
   93SAPS  H15X 9198   3.897   6.034   8.425  1.7140  2.5622  0.0900
   93SAPS  H15Y 9199   3.763   6.149   8.422  1.8864  0.7243  2.0366
   93SAPS  C316 9200   3.921   6.173   8.262 -0.5092  0.2299  0.5064
   93SAPS  H16X 9201   3.916   6.135   8.157 -0.4078 -1.0800  0.9589
   93SAPS  H16Y 9202   4.026   6.175   8.298 -0.4103  0.4997  0.2105
   93SAPS  C317 9203   3.872   6.315   8.257 -1.0355 -0.2029  0.4409
   93SAPS  H17X 9204   3.887   6.378   8.348  1.9487 -0.5180  0.2794
   93SAPS  H17Y 9205   3.763   6.319   8.235 -0.7356  1.8128 -0.9866
   93SAPS  C318 9206   3.944   6.397   8.165 -0.0567  0.0310  0.0931
   93SAPS  H18X 9207   3.956   6.350   8.066  1.3373  1.4140 -0.4253
   93SAPS  H18Y 9208   4.047   6.427   8.195  0.7709  1.2330 -3.4764
   93SAPS  H18Z 9209   3.898   6.497   8.152  0.0147  0.4856  2.6674
   94SAPS     N 9210   4.094   0.500   6.208 -0.7257 -0.1211  0.3443
   94SAPS   HN1 9211   4.055   0.506   6.112 -0.2804  0.8800  0.2163
   94SAPS   HN2 9212   4.028   0.455   6.275  1.5201 -0.7253  2.3254
   94SAPS   HN3 9213   4.103   0.597   6.243 -1.6025  0.3176 -0.5965
   94SAPS   C12 9214   4.223   0.422   6.199  0.3867 -0.2729  0.6009
   94SAPS  H12A 9215   4.259   0.388   6.295  2.0758  2.4423  1.0570
   94SAPS   C13 9216   4.226   0.290   6.121 -0.6295 -0.5830  0.0836
   94SAPS  O13A 9217   4.135   0.261   6.042 -0.3800 -0.6511  0.6704
   94SAPS  O13B 9218   4.339   0.225   6.124 -0.1021 -0.5234  0.3582
   94SAPS   C11 9219   4.330   0.513   6.139  0.7751  0.1667 -0.9232
   94SAPS  H11A 9220   4.291   0.568   6.051  3.8985  1.6275 -1.5170
   94SAPS  H11B 9221   4.424   0.460   6.113  1.2999 -0.6411  2.2509
   94SAPS     P 9222   4.333   0.757   6.225  0.1418  0.2509 -0.2074
   94SAPS   O13 9223   4.403   0.826   6.334 -0.2364 -0.2319  0.0086
   94SAPS   O14 9224   4.356   0.810   6.085 -0.0280  0.4372 -0.0708
   94SAPS   O12 9225   4.371   0.611   6.230 -0.4781  0.1429  0.4387
   94SAPS   O11 9226   4.171   0.746   6.243 -0.5779 -0.1061 -0.4778
   94SAPS    C1 9227   4.100   0.875   6.249 -0.1053 -0.1952 -0.5155
   94SAPS    HA 9228   4.112   0.934   6.155  1.8116 -0.5716 -0.5346
   94SAPS    HB 9229   3.994   0.842   6.245 -0.9607  1.8647  2.2652
   94SAPS    C2 9230   4.120   0.959   6.383 -0.2614 -0.0144 -0.6362
   94SAPS    HS 9231   4.219   1.010   6.385 -1.0056  1.5067  1.7287
   94SAPS   O21 9232   4.122   0.862   6.496  0.2170 -0.8006  0.0598
   94SAPS   C21 9233   4.170   0.904   6.606  0.1683 -0.5711  0.3277
   94SAPS   O22 9234   4.222   1.014   6.629 -0.2479  0.5838 -0.1762
   94SAPS   C22 9235   4.149   0.787   6.707 -0.0345 -0.4974  0.4010
   94SAPS   H2R 9236   4.078   0.717   6.658 -1.8130  1.8452 -0.5438
   94SAPS   H2S 9237   4.250   0.740   6.714 -0.1849 -0.6071  2.2348
   94SAPS    C3 9238   4.016   1.069   6.389  0.2638 -0.1809  0.5093
   94SAPS    HX 9239   4.033   1.136   6.302 -1.0587  0.9777  1.0890
   94SAPS    HY 9240   4.055   1.127   6.476  1.3441 -1.7734  1.1301
   94SAPS   O31 9241   3.874   1.026   6.399 -0.1147  0.2461  0.3679
   94SAPS   C31 9242   3.796   1.111   6.450  0.2806 -0.1669  0.2858
   94SAPS   O32 9243   3.820   1.231   6.457  0.2868 -0.0784  0.0148
   94SAPS   C32 9244   3.660   1.050   6.479  1.1697 -0.2885  0.0958
   94SAPS   H2X 9245   3.663   0.939   6.484 -0.6114 -0.3964 -0.4576
   94SAPS   H2Y 9246   3.595   1.067   6.390  1.5609 -0.1809 -0.1694
   94SAPS   C23 9247   4.113   0.834   6.846  0.3758 -0.2128 -0.4730
   94SAPS   H3R 9248   4.188   0.901   6.895  0.7817 -1.8437  1.2563
   94SAPS   H3S 9249   4.115   0.749   6.917  2.3166  0.0975 -0.0913
   94SAPS   C24 9250   3.977   0.888   6.859  1.4539 -0.2940 -0.5155
   94SAPS   H4R 9251   3.958   0.973   6.789 -0.5849  2.5657  3.1136
   94SAPS   H4S 9252   3.980   0.936   6.959 -0.6067  2.1261 -1.4714
   94SAPS   C25 9253   3.861   0.786   6.855 -0.7509  0.4595  0.4631
   94SAPS   H5R 9254   3.815   0.783   6.755 -0.4935  3.3161  0.1860
   94SAPS   C26 9255   3.820   0.709   6.957 -0.0997 -0.0136 -0.4751
   94SAPS   H6R 9256   3.733   0.645   6.938  0.4070 -1.3848  1.4300
   94SAPS   C27 9257   3.881   0.707   7.098  0.7043  0.3866  0.2130
   94SAPS   H7R 9258   3.819   0.775   7.159 -2.8782 -2.6038  0.2938
   94SAPS   H7S 9259   3.984   0.747   7.096  0.9952 -0.3240 -1.6807
   94SAPS   C28 9260   3.879   0.569   7.154  0.0223 -0.4708  0.7426
   94SAPS   H8R 9261   3.980   0.529   7.173 -0.0559 -1.7237 -1.1987
   94SAPS   C29 9262   3.783   0.488   7.212  0.4502 -0.3321  0.0477
   94SAPS   H9R 9263   3.818   0.386   7.234 -2.1548 -1.3388 -0.0467
   94SAPS  C210 9264   3.635   0.509   7.227  0.1668 -0.4826 -0.1199
   94SAPS  H10R 9265   3.586   0.480   7.132 -1.1328 -0.7380  0.6080
   94SAPS  H10S 9266   3.623   0.616   7.258 -1.3144 -1.3766  2.7914
   94SAPS  C211 9267   3.580   0.423   7.330  0.1483 -0.5193 -0.1311
   94SAPS  H11R 9268   3.572   0.317   7.302 -0.4029 -0.7993  1.0246
   94SAPS  C212 9269   3.516   0.458   7.444 -0.2208  0.2805  0.2253
   94SAPS  H12R 9270   3.479   0.383   7.515  1.2312 -0.8909 -0.1926
   94SAPS  C213 9271   3.494   0.594   7.502 -0.8347 -0.2961  0.4775
   94SAPS  H13R 9272   3.416   0.652   7.448 -0.4917 -0.2463  0.0303
   94SAPS  H13S 9273   3.586   0.654   7.485  0.4539 -2.1666  0.5589
   94SAPS  C214 9274   3.471   0.607   7.650 -0.3041  0.0378 -0.4188
   94SAPS  H14R 9275   3.557   0.575   7.711  0.1508  2.3537  0.2660
   94SAPS  C215 9276   3.364   0.651   7.717  0.2928  0.3601 -0.6327
   94SAPS  H15R 9277   3.363   0.651   7.827  0.6059  0.4838 -0.6266
   94SAPS  C216 9278   3.235   0.685   7.656  0.6428  0.7742  0.0066
   94SAPS  H16R 9279   3.199   0.594   7.603  0.3597  0.7404  0.2525
   94SAPS  H16S 9280   3.241   0.777   7.594  3.0210 -0.6142 -2.0428
   94SAPS  C217 9281   3.129   0.700   7.768  0.8252 -0.3649  0.3219
   94SAPS  H17R 9282   3.178   0.770   7.840  0.6653  0.7266 -0.5969
   94SAPS  H17S 9283   3.113   0.601   7.814  1.4683  0.1612  1.7461
   94SAPS  C218 9284   2.993   0.770   7.729 -0.4556 -0.7282 -0.7022
   94SAPS  H18R 9285   2.942   0.699   7.661 -0.5891 -0.7221 -0.6086
   94SAPS  H18S 9286   3.013   0.856   7.662 -0.9330 -1.1718 -1.4169
   94SAPS  C219 9287   2.912   0.809   7.858  0.2665  0.1902  1.1866
   94SAPS  H19R 9288   2.962   0.897   7.903 -0.6365  2.0940 -1.3267
   94SAPS  H19S 9289   2.915   0.721   7.926  0.6003 -1.4918 -0.9038
   94SAPS  C220 9290   2.761   0.839   7.841  0.8610  0.3261 -0.0098
   94SAPS  H20R 9291   2.727   0.882   7.937  1.6783 -0.5062  0.6619
   94SAPS  H20S 9292   2.702   0.750   7.808 -0.2496 -0.2053  3.1281
   94SAPS  H20T 9293   2.746   0.913   7.760 -3.3374 -1.5864 -1.3051
   94SAPS   C33 9294   3.589   1.117   6.600 -0.2409 -0.3201  0.1674
   94SAPS   H3X 9295   3.480   1.100   6.603 -0.3445  0.3232  0.1175
   94SAPS   H3Y 9296   3.609   1.226   6.599 -0.0513 -0.3553 -0.0049
   94SAPS   C34 9297   3.639   1.061   6.735  0.3975  0.5494  0.2621
   94SAPS   H4X 9298   3.749   1.074   6.748  0.7270 -1.1588 -0.5783
   94SAPS   H4Y 9299   3.604   0.955   6.736  1.2707  0.0756 -3.9679
   94SAPS   C35 9300   3.571   1.151   6.843  0.6015 -0.3447 -0.1295
   94SAPS   H5X 9301   3.462   1.159   6.826  0.6120 -0.9520 -0.5362
   94SAPS   H5Y 9302   3.612   1.253   6.825 -0.7190  0.3988  0.8646
   94SAPS   C36 9303   3.578   1.089   6.987 -0.4445 -0.6611  0.2806
   94SAPS   H6X 9304   3.684   1.072   7.018 -0.6403  1.2152  2.2382
   94SAPS   H6Y 9305   3.520   0.995   6.995  0.8434 -1.4821  0.3293
   94SAPS   C37 9306   3.510   1.182   7.089 -0.8687  0.6216  0.0340
   94SAPS   H7X 9307   3.400   1.179   7.075 -0.8566 -1.5823  0.1872
   94SAPS   H7Y 9308   3.537   1.290   7.087  0.3540  0.3576  1.0807
   94SAPS   C38 9309   3.538   1.143   7.235  0.2099 -0.2833 -0.2069
   94SAPS   H8X 9310   3.542   1.227   7.307  0.2843 -0.2987 -0.1920
   94SAPS   H8Y 9311   3.640   1.099   7.245 -0.2458 -1.3866 -0.2824
   94SAPS   C39 9312   3.444   1.033   7.280 -0.3146 -0.5670  0.4387
   94SAPS   H9X 9313   3.465   0.941   7.221 -0.2239  0.5402 -1.3506
   94SAPS   H9Y 9314   3.340   1.064   7.255 -0.6325  0.4093  2.7878
   94SAPS  C310 9315   3.443   1.016   7.431  0.3150  0.2429  0.0288
   94SAPS  H10X 9316   3.397   0.918   7.456  1.9880 -1.3705 -2.6743
   94SAPS  H10Y 9317   3.371   1.088   7.474 -0.6675 -0.3681 -0.5502
   94SAPS  C311 9318   3.580   1.008   7.507 -0.2966  1.0688 -0.1262
   94SAPS  H11X 9319   3.636   1.100   7.478 -3.2514  2.5741 -1.5398
   94SAPS  H11Y 9320   3.613   0.905   7.482 -2.6412  0.1877  0.1885
   94SAPS  C312 9321   3.562   1.022   7.661  1.1865 -1.0301  0.7256
   94SAPS  H12X 9322   3.501   0.936   7.696 -1.8219  0.6869  0.0221
   94SAPS  H12Y 9323   3.492   1.105   7.681 -2.2790 -3.6855  0.5523
   94SAPS  C313 9324   3.685   1.036   7.748 -0.4128 -0.4506 -0.4014
   94SAPS  H13X 9325   3.734   1.129   7.713 -2.7378  0.4949 -1.3676
   94SAPS  H13Y 9326   3.757   0.954   7.728  0.5506 -0.0132  1.1574
   94SAPS  C314 9327   3.639   1.042   7.892 -0.3650  0.2339  0.8276
   94SAPS  H14X 9328   3.619   0.943   7.938 -1.1491  0.1968  0.4139
   94SAPS  H14Y 9329   3.545   1.101   7.897 -0.5030  0.2855 -1.3673
   94SAPS  C315 9330   3.737   1.114   7.982  0.2059 -0.1174  0.0608
   94SAPS  H15X 9331   3.781   1.206   7.936  0.9310 -0.2447  0.4826
   94SAPS  H15Y 9332   3.818   1.043   8.009 -0.3327 -0.6931  0.1524
   94SAPS  C316 9333   3.668   1.163   8.114 -0.3657 -0.6696 -0.0687
   94SAPS  H16X 9334   3.643   1.069   8.170 -1.1838  0.1500  1.0006
   94SAPS  H16Y 9335   3.568   1.209   8.100 -0.5072 -1.0760 -0.4124
   94SAPS  C317 9336   3.753   1.247   8.205 -0.0606  0.5989  0.6016
   94SAPS  H17X 9337   3.765   1.343   8.150 -2.4568  0.2602 -0.6390
   94SAPS  H17Y 9338   3.850   1.196   8.225  0.1738  0.1465 -1.4448
   94SAPS  C318 9339   3.683   1.279   8.337  1.1646  0.3423 -0.2816
   94SAPS  H18X 9340   3.579   1.240   8.327  1.0700  0.8650 -1.5431
   94SAPS  H18Y 9341   3.687   1.388   8.357 -0.3973  0.7341 -1.8921
   94SAPS  H18Z 9342   3.731   1.223   8.420  2.2883  0.2889 -0.9474
   95SAPS     N 9343   6.576   4.016   6.097 -0.0954  0.0421  0.0013
   95SAPS   HN1 9344   6.666   3.971   6.124  1.2097  2.4518 -0.1299
   95SAPS   HN2 9345   6.553   3.980   6.002 -3.3868  0.7455  0.3979
   95SAPS   HN3 9346   6.601   4.117   6.097  0.5983 -0.1279 -0.1467
   95SAPS   C12 9347   6.469   3.974   6.188  0.5183  0.3742 -0.7314
   95SAPS  H12A 9348   6.388   4.044   6.170  0.8290  0.6891 -0.9049
   95SAPS   C13 9349   6.410   3.838   6.165  0.6217 -0.2547 -0.6211
   95SAPS  O13A 9350   6.452   3.771   6.071 -0.0911 -0.2788 -0.0849
   95SAPS  O13B 9351   6.298   3.808   6.224 -0.2241  0.2097  0.0250
   95SAPS   C11 9352   6.511   3.983   6.338  0.2829 -0.3081  0.0416
   95SAPS  H11A 9353   6.590   3.908   6.356  0.2120 -0.3213  0.2991
   95SAPS  H11B 9354   6.427   3.962   6.408  0.1496  0.3559  0.0894
   95SAPS     P 9355   6.471   4.252   6.374  0.0329  0.0786  0.1596
   95SAPS   O13 9356   6.545   4.328   6.478  0.0637 -0.4857 -0.0293
   95SAPS   O14 9357   6.448   4.312   6.238 -0.0920 -0.6425 -0.5067
   95SAPS   O12 9358   6.553   4.120   6.356 -0.0870 -0.1850  0.3550
   95SAPS   O11 9359   6.334   4.191   6.430 -0.2099 -0.3765 -0.0533
   95SAPS    C1 9360   6.332   4.133   6.559 -0.1183  0.5657  0.8712
   95SAPS    HA 9361   6.247   4.061   6.565  1.2737 -1.1822  0.3764
   95SAPS    HB 9362   6.425   4.076   6.582  0.1155  1.1502  1.4199
   95SAPS    C2 9363   6.315   4.240   6.667 -0.3606  0.8285 -0.2052
   95SAPS    HS 9364   6.409   4.298   6.665  1.0974 -1.3919  0.6342
   95SAPS   O21 9365   6.300   4.167   6.795 -0.6348 -0.1060  0.0931
   95SAPS   C21 9366   6.393   4.208   6.891  0.0559  0.4469 -0.6926
   95SAPS   O22 9367   6.483   4.287   6.862  0.3333  0.3197 -0.0404
   95SAPS   C22 9368   6.372   4.148   7.025 -0.2481  0.4471 -0.2051
   95SAPS   H2R 9369   6.472   4.162   7.072 -0.8035 -0.5084  1.3421
   95SAPS   H2S 9370   6.299   4.211   7.079  0.8235  1.5870 -0.0322
   95SAPS    C3 9371   6.188   4.329   6.648 -0.4911 -0.1880  0.5716
   95SAPS    HX 9372   6.092   4.275   6.663 -0.0207 -0.7422  1.7056
   95SAPS    HY 9373   6.195   4.362   6.543 -2.7007 -1.8176 -0.1594
   95SAPS   O31 9374   6.184   4.437   6.746  0.2002  0.0083 -0.1549
   95SAPS   C31 9375   6.250   4.543   6.707 -0.0586  0.1891  0.2552
   95SAPS   O32 9376   6.310   4.554   6.600  0.5995  0.1353  0.0301
   95SAPS   C32 9377   6.242   4.648   6.822  0.4733 -0.6551  0.0796
   95SAPS   H2X 9378   6.140   4.690   6.834  0.1055 -1.8821  1.7365
   95SAPS   H2Y 9379   6.321   4.723   6.802  1.8017 -1.1564  2.8095
   95SAPS   C23 9380   6.318   3.999   7.025  0.6341 -0.7622  0.1293
   95SAPS   H3R 9381   6.379   3.934   6.959  3.5176  0.2445  1.5812
   95SAPS   H3S 9382   6.216   4.006   6.982  0.9667  2.4698 -0.4465
   95SAPS   C24 9383   6.319   3.934   7.163  0.3507 -0.3313  0.0638
   95SAPS   H4R 9384   6.425   3.929   7.195  0.5835 -0.8068 -0.7441
   95SAPS   H4S 9385   6.293   3.826   7.155 -1.6680  0.1155  0.2166
   95SAPS   C25 9386   6.226   3.989   7.263 -0.3867  0.1753  0.2428
   95SAPS   H5R 9387   6.125   3.976   7.221  0.1518  1.9841 -1.7696
   95SAPS   C26 9388   6.259   4.031   7.387  0.5385  0.1007 -0.0719
   95SAPS   H6R 9389   6.177   4.058   7.456 -0.6887  3.3113 -2.5087
   95SAPS   C27 9390   6.404   4.045   7.436  0.3798 -0.5332  0.3830
   95SAPS   H7R 9391   6.389   4.129   7.507 -3.0233  2.3113 -3.1867
   95SAPS   H7S 9392   6.469   4.095   7.361 -0.2443  0.1247  0.2629
   95SAPS   C28 9393   6.467   3.921   7.497  0.0822 -0.0556  0.0033
   95SAPS   H8R 9394   6.523   3.850   7.433  0.9100  0.6538 -0.0758
   95SAPS   C29 9395   6.492   3.910   7.629  0.1333  0.2079 -0.4306
   95SAPS   H9R 9396   6.549   3.824   7.669  1.3015  1.6151  1.0814
   95SAPS  C210 9397   6.456   4.007   7.736 -0.5523 -1.2277 -0.0706
   95SAPS  H10R 9398   6.426   3.954   7.828 -3.7789  1.4845  0.6527
   95SAPS  H10S 9399   6.361   4.063   7.721  0.8217  1.3466  0.2778
   95SAPS  C211 9400   6.573   4.102   7.765  0.0675 -0.6017 -0.8635
   95SAPS  H11R 9401   6.629   4.133   7.675  1.9675  0.4828  0.5955
   95SAPS  C212 9402   6.625   4.124   7.889 -0.0727 -0.3427  0.2969
   95SAPS  H12R 9403   6.706   4.198   7.894 -1.7808  1.7002 -0.8508
   95SAPS  C213 9404   6.575   4.071   8.023  0.0185 -0.6150 -0.2110
   95SAPS  H13R 9405   6.663   4.067   8.091  0.1203  1.3593 -0.1785
   95SAPS  H13S 9406   6.525   3.974   8.001  0.0492 -1.0623  1.5502
   95SAPS  C214 9407   6.468   4.154   8.091  0.0634  0.1326 -0.3868
   95SAPS  H14R 9408   6.377   4.166   8.029 -0.3624 -0.1435  0.1708
   95SAPS  C215 9409   6.485   4.228   8.206 -1.0774  0.3775  0.7409
   95SAPS  H15R 9410   6.395   4.269   8.256 -0.5671 -0.4663  2.4182
   95SAPS  C216 9411   6.607   4.241   8.295 -0.6415  0.4051 -0.0914
   95SAPS  H16R 9412   6.678   4.159   8.275 -0.6809  0.5518 -0.8610
   95SAPS  H16S 9413   6.564   4.236   8.397 -2.4744 -2.3778 -0.9016
   95SAPS  C217 9414   6.683   4.377   8.277 -1.1879 -0.4668  0.7485
   95SAPS  H17R 9415   6.614   4.459   8.308 -0.4484  0.3939  0.1651
   95SAPS  H17S 9416   6.691   4.393   8.167  1.3547 -0.3347  0.8989
   95SAPS  C218 9417   6.823   4.395   8.334 -1.3287  0.3798 -0.1107
   95SAPS  H18R 9418   6.816   4.384   8.444 -1.3970 -1.8510 -0.3074
   95SAPS  H18S 9419   6.855   4.497   8.304 -1.3584  0.6662  0.8016
   95SAPS  C219 9420   6.928   4.288   8.283 -0.3874 -0.3885  0.3651
   95SAPS  H19R 9421   6.889   4.185   8.301  1.9111 -1.1182  1.5224
   95SAPS  H19S 9422   7.020   4.295   8.345 -2.0710  1.2830  2.9066
   95SAPS  C220 9423   6.962   4.303   8.139 -0.5881 -0.3938  0.1530
   95SAPS  H20R 9424   7.036   4.224   8.112 -0.3710  0.1508 -0.8706
   95SAPS  H20S 9425   7.023   4.394   8.118 -0.0437 -0.8597 -0.3295
   95SAPS  H20T 9426   6.889   4.316   8.056  1.3795  0.3645 -1.5406
   95SAPS   C33 9427   6.271   4.572   6.948 -0.6482  0.0081 -0.3242
   95SAPS   H3X 9428   6.366   4.515   6.935 -0.5035  0.0859  0.3883
   95SAPS   H3Y 9429   6.192   4.497   6.973 -0.6801  0.4526  0.9295
   95SAPS   C34 9430   6.280   4.662   7.069  0.2144 -0.5313 -0.1905
   95SAPS   H4X 9431   6.186   4.721   7.077  0.5326  0.3837 -2.3483
   95SAPS   H4Y 9432   6.365   4.734   7.060  0.2938 -0.6852 -0.7281
   95SAPS   C35 9433   6.307   4.586   7.204  0.2708  0.1417  0.0912
   95SAPS   H5X 9434   6.211   4.543   7.242 -0.0345  1.5064  0.9298
   95SAPS   H5Y 9435   6.335   4.659   7.283  0.1536  0.3850 -0.0897
   95SAPS   C36 9436   6.402   4.467   7.199 -0.0138  0.1224 -0.0635
   95SAPS   H6X 9437   6.491   4.502   7.143 -2.0191  1.0342 -2.9232
   95SAPS   H6Y 9438   6.345   4.391   7.140 -3.6946  1.8414  0.9776
   95SAPS   C37 9439   6.450   4.383   7.324 -0.1871 -0.2370 -0.4087
   95SAPS   H7X 9440   6.522   4.308   7.286 -1.2800 -1.1336 -0.7636
   95SAPS   H7Y 9441   6.368   4.312   7.350  0.3607 -2.1594 -3.4897
   95SAPS   C38 9442   6.510   4.461   7.436  0.6457  0.3435 -0.0485
   95SAPS   H8X 9443   6.428   4.518   7.485 -0.6691 -2.3299  1.0667
   95SAPS   H8Y 9444   6.589   4.530   7.400  0.8698  0.7394  1.1873
   95SAPS   C39 9445   6.574   4.378   7.552  0.1541  0.3384  0.6517
   95SAPS   H9X 9446   6.655   4.314   7.512  1.3357  2.6539 -0.8995
   95SAPS   H9Y 9447   6.496   4.304   7.580 -0.6637  1.6046  1.8687
   95SAPS  C310 9448   6.610   4.457   7.678 -0.4292  0.1379  0.5418
   95SAPS  H10X 9449   6.702   4.518   7.661  0.2171 -0.9414  0.0712
   95SAPS  H10Y 9450   6.647   4.384   7.753  0.4395 -1.4865 -1.3862
   95SAPS  C311 9451   6.502   4.542   7.737 -0.4493 -0.7098 -0.1634
   95SAPS  H11X 9452   6.405   4.497   7.709 -0.3925 -0.7958 -0.2203
   95SAPS  H11Y 9453   6.492   4.640   7.684 -0.6043  0.6407  2.2394
   95SAPS  C312 9454   6.503   4.549   7.889  0.0899  0.0706  0.3942
   95SAPS  H12X 9455   6.490   4.450   7.937 -1.8473  0.6975  1.2539
   95SAPS  H12Y 9456   6.415   4.606   7.926  0.7658  0.4037  1.5643
   95SAPS  C313 9457   6.632   4.617   7.953  0.3877 -0.3666  0.2533
   95SAPS  H13X 9458   6.719   4.551   7.930 -0.3671 -0.8975 -1.2133
   95SAPS  H13Y 9459   6.609   4.619   8.061  1.0803  2.2529  0.4386
   95SAPS  C314 9460   6.650   4.763   7.911  0.0386 -0.2464 -0.0967
   95SAPS  H14X 9461   6.560   4.822   7.941  0.3303 -0.5510  1.4512
   95SAPS  H14Y 9462   6.677   4.768   7.803  0.8183 -0.8871  0.0623
   95SAPS  C315 9463   6.765   4.828   7.986  0.0816 -0.0571 -0.2935
   95SAPS  H15X 9464   6.843   4.753   8.011 -0.0745  0.6916  2.7956
   95SAPS  H15Y 9465   6.727   4.869   8.082 -2.8561 -0.6503 -1.1112
   95SAPS  C316 9466   6.830   4.940   7.900  0.0318  0.0126 -0.3818
   95SAPS  H16X 9467   6.750   5.013   7.876 -0.8948 -1.2615 -1.2842
   95SAPS  H16Y 9468   6.850   4.888   7.803 -0.9972  3.4335 -2.6332
   95SAPS  C317 9469   6.971   4.991   7.954  0.0493  0.4112  0.2011
   95SAPS  H17X 9470   7.047   4.925   7.907  0.4499  0.5955  0.5824
   95SAPS  H17Y 9471   6.980   4.976   8.063  1.1094  0.8933  0.1936
   95SAPS  C318 9472   6.985   5.141   7.922 -0.0245  0.0449  0.6161
   95SAPS  H18X 9473   7.074   5.183   7.973 -0.1579  0.9597  0.1198
   95SAPS  H18Y 9474   6.890   5.198   7.938  0.1941  0.8959 -0.8436
   95SAPS  H18Z 9475   6.999   5.151   7.812 -1.3288  1.5474  0.5379
   96SAPS     N 9476   0.503   0.679   5.899  0.2283 -0.4571  0.0928
   96SAPS   HN1 9477   0.545   0.687   5.994 -0.3826 -0.8398  0.3986
   96SAPS   HN2 9478   0.446   0.593   5.903  0.7663 -0.9417 -1.6684
   96SAPS   HN3 9479   0.586   0.653   5.841 -0.5269 -0.3909 -1.0448
   96SAPS   C12 9480   0.436   0.811   5.844 -1.0817  0.2952 -0.4148
   96SAPS  H12A 9481   0.515   0.883   5.838 -0.4964 -0.3707 -0.8520
   96SAPS   C13 9482   0.390   0.799   5.697  0.7394 -0.4407  0.0387
   96SAPS  O13A 9483   0.419   0.702   5.631  0.2023  0.4441 -0.2657
   96SAPS  O13B 9484   0.338   0.900   5.643  0.5149 -0.9415 -0.4713
   96SAPS   C11 9485   0.328   0.862   5.949 -0.4297 -0.5721  0.4525
   96SAPS  H11A 9486   0.231   0.809   5.958 -1.4157  1.1197  0.0694
   96SAPS  H11B 9487   0.292   0.961   5.916 -0.6653  0.9198  4.5728
   96SAPS     P 9488   0.309   0.965   6.197  0.1313 -0.3650 -0.2652
   96SAPS   O13 9489   0.419   0.990   6.294 -0.2319  0.8409  0.3933
   96SAPS   O14 9490   0.255   1.084   6.138  0.4348 -0.1257  0.6808
   96SAPS   O12 9491   0.379   0.875   6.080  0.1096 -0.7090 -0.4463
   96SAPS   O11 9492   0.201   0.874   6.265 -0.1523 -0.1342 -0.1210
   96SAPS    C1 9493   0.198   0.727   6.255  0.2466 -0.6599 -0.0267
   96SAPS    HA 9494   0.092   0.695   6.253  0.5553 -2.2070  2.9317
   96SAPS    HB 9495   0.235   0.691   6.157 -1.1351 -0.6722 -0.5572
   96SAPS    C2 9496   0.268   0.635   6.366  0.1772  0.2566 -0.7949
   96SAPS    HS 9497   0.225   0.535   6.346 -0.3474  0.6658 -1.8042
   96SAPS   O21 9498   0.246   0.672   6.502  0.0207  0.1007 -0.4393
   96SAPS   C21 9499   0.117   0.657   6.536  0.4526  0.0712 -0.1802
   96SAPS   O22 9500   0.030   0.607   6.466 -0.3188 -0.5596 -0.2634
   96SAPS   C22 9501   0.098   0.734   6.664  0.4921  0.1363 -0.3829
   96SAPS   H2R 9502   0.192   0.761   6.716 -0.6155 -0.0998  1.8740
   96SAPS   H2S 9503   0.035   0.823   6.640 -0.4820  0.2837  2.3038
   96SAPS    C3 9504   0.420   0.620   6.339 -0.6190 -0.0317  0.2834
   96SAPS    HX 9505   0.461   0.718   6.370 -0.9195 -0.1214  0.9655
   96SAPS    HY 9506   0.448   0.610   6.231  0.1494 -0.9355  0.5500
   96SAPS   O31 9507   0.483   0.512   6.417  0.3578 -0.0564 -0.3006
   96SAPS   C31 9508   0.619   0.518   6.403 -0.0220  0.3278  0.3951
   96SAPS   O32 9509   0.672   0.596   6.330 -0.0215  0.2393  0.2033
   96SAPS   C32 9510   0.682   0.413   6.493 -0.1498 -0.4362  0.2808
   96SAPS   H2X 9511   0.632   0.314   6.479 -0.4759 -0.4860  1.6152
   96SAPS   H2Y 9512   0.668   0.440   6.600 -0.8298 -0.9906  0.3454
   96SAPS   C23 9513   0.012   0.665   6.766  0.1358  1.1890  0.1463
   96SAPS   H3R 9514  -0.077   0.626   6.712  0.3654  0.9753 -0.0756
   96SAPS   H3S 9515  -0.027   0.729   6.848 -1.1369  1.2434 -0.4794
   96SAPS   C24 9516   0.070   0.542   6.851 -0.1660 -0.4536  0.2193
   96SAPS   H4R 9517   0.097   0.466   6.775  0.8059  2.1977 -2.2541
   96SAPS   H4S 9518  -0.028   0.512   6.895 -1.2905  0.9690 -1.1854
   96SAPS   C25 9519   0.193   0.572   6.934  0.0555 -0.2233  0.3729
   96SAPS   H5R 9520   0.286   0.555   6.879  0.8321 -0.0737  1.5872
   96SAPS   C26 9521   0.209   0.587   7.067 -0.8097 -0.3191 -0.4399
   96SAPS   H6R 9522   0.307   0.616   7.108 -1.5685  0.0957  1.1537
   96SAPS   C27 9523   0.098   0.586   7.174 -0.1387 -0.9906  0.1007
   96SAPS   H7R 9524  -0.001   0.573   7.124 -0.2386 -0.5028  0.1586
   96SAPS   H7S 9525   0.090   0.683   7.228 -0.8731  1.0135 -3.2775
   96SAPS   C28 9526   0.120   0.476   7.271  0.0470  0.2165 -0.3342
   96SAPS   H8R 9527   0.111   0.376   7.227  0.9886  0.7544 -1.8435
   96SAPS   C29 9528   0.135   0.479   7.405  0.4948  0.1602  0.0008
   96SAPS   H9R 9529   0.152   0.379   7.447  3.3328 -0.6686 -2.7131
   96SAPS  C210 9530   0.141   0.610   7.482  0.1149 -0.7685 -0.2983
   96SAPS  H10R 9531   0.170   0.699   7.423  0.9418 -1.0387 -0.3128
   96SAPS  H10S 9532   0.224   0.603   7.555 -0.7280 -2.7157  0.5404
   96SAPS  C211 9533   0.005   0.638   7.545  0.6179 -0.0689 -0.4943
   96SAPS  H11R 9534  -0.058   0.708   7.489 -0.5864  0.4365  1.3939
   96SAPS  C212 9535  -0.022   0.625   7.679  0.3854 -0.4049  0.4829
   96SAPS  H12R 9536  -0.128   0.637   7.706  0.0264  0.5053 -1.2089
   96SAPS  C213 9537   0.064   0.568   7.788  0.6011  0.1031  0.6173
   96SAPS  H13R 9538  -0.015   0.556   7.865 -1.5972 -0.2319 -1.5728
   96SAPS  H13S 9539   0.137   0.643   7.827  0.7996  0.5915 -0.6323
   96SAPS  C214 9540   0.123   0.427   7.770  0.1075 -0.0810  0.1655
   96SAPS  H14R 9541   0.161   0.405   7.669  1.1614 -0.8820  0.7132
   96SAPS  C215 9542   0.123   0.333   7.856 -0.0643  0.0208 -0.8031
   96SAPS  H15R 9543   0.176   0.239   7.836 -3.6200 -2.0967 -1.1158
   96SAPS  C216 9544   0.069   0.351   7.998  0.8352 -0.4473 -0.7356
   96SAPS  H16R 9545  -0.037   0.321   8.006  0.9217 -0.2438  2.9028
   96SAPS  H16S 9546   0.085   0.458   8.024 -1.2341  0.5717 -3.2097
   96SAPS  C217 9547   0.136   0.248   8.096  0.2985 -0.1893 -0.2739
   96SAPS  H17R 9548   0.239   0.283   8.119 -0.1306  0.9131  0.0055
   96SAPS  H17S 9549   0.146   0.147   8.051 -1.0778 -0.9403  1.0256
   96SAPS  C218 9550   0.069   0.227   8.235  0.7088  0.4026  0.1549
   96SAPS  H18R 9551   0.130   0.153   8.292  1.0180  1.5297  1.3636
   96SAPS  H18S 9552  -0.033   0.193   8.208  0.8974 -0.4767  0.5125
   96SAPS  C219 9553   0.071   0.355   8.324 -0.2877  0.5805 -0.0107
   96SAPS  H19R 9554   0.002   0.434   8.289  2.0374  1.8355 -1.9962
   96SAPS  H19S 9555   0.173   0.397   8.312 -0.3068  0.2843 -1.2627
   96SAPS  C220 9556   0.046   0.314   8.470 -0.8293 -0.0091  0.2930
   96SAPS  H20R 9557   0.136   0.263   8.511  0.2997  0.4323 -1.4897
   96SAPS  H20S 9558  -0.043   0.248   8.479 -0.8018 -0.3594 -1.4904
   96SAPS  H20T 9559   0.040   0.402   8.537 -1.9461 -0.2522  0.5312
   96SAPS   C33 9560   0.833   0.387   6.465  0.3417  0.3250  0.0379
   96SAPS   H3X 9561   0.877   0.478   6.418  1.4359 -0.6698 -0.9267
   96SAPS   H3Y 9562   0.837   0.309   6.386 -0.0479  1.8730 -1.5759
   96SAPS   C34 9563   0.929   0.355   6.583  0.0567  0.6965 -1.1550
   96SAPS   H4X 9564   1.033   0.338   6.548  0.0310 -0.9431 -0.5385
   96SAPS   H4Y 9565   0.898   0.260   6.632  0.4338  2.1637  2.1832
   96SAPS   C35 9566   0.928   0.460   6.693 -0.0942 -0.3743 -0.6434
   96SAPS   H5X 9567   0.837   0.522   6.683 -0.6615 -1.2355 -0.9577
   96SAPS   H5Y 9568   1.005   0.538   6.678 -0.4716  0.0418 -0.4189
   96SAPS   C36 9569   0.941   0.413   6.839 -0.2298  0.2297 -0.1520
   96SAPS   H6X 9570   0.931   0.505   6.901  1.7169 -0.4219  1.2329
   96SAPS   H6Y 9571   1.039   0.373   6.874 -1.6024 -1.4524  2.1065
   96SAPS   C37 9572   0.840   0.310   6.891  0.2463  0.3175  0.1012
   96SAPS   H7X 9573   0.871   0.209   6.856 -0.7973 -0.4197  1.2256
   96SAPS   H7Y 9574   0.737   0.319   6.850 -0.7467 -0.4823  2.2805
   96SAPS   C38 9575   0.830   0.298   7.041  0.0851 -0.1081 -0.4598
   96SAPS   H8X 9576   0.768   0.206   7.053 -0.8908  0.5427 -0.4943
   96SAPS   H8Y 9577   0.773   0.383   7.083 -1.7991 -1.2739 -0.5215
   96SAPS   C39 9578   0.963   0.272   7.115 -0.2999 -0.3586  0.6219
   96SAPS   H9X 9579   1.010   0.372   7.118 -0.3827 -0.2880 -0.2706
   96SAPS   H9Y 9580   1.027   0.198   7.063 -1.6641 -0.9401 -0.2819
   96SAPS  C310 9581   0.945   0.236   7.262 -0.1014 -0.3763  0.1078
   96SAPS  H10X 9582   1.049   0.249   7.299  0.1706  0.8207 -1.0087
   96SAPS  H10Y 9583   0.917   0.131   7.283 -1.5503 -0.0115  0.0927
   96SAPS  C311 9584   0.843   0.330   7.337 -0.4399 -0.3791  0.2966
   96SAPS  H11X 9585   0.742   0.313   7.293 -0.8324  2.2130  0.0483
   96SAPS  H11Y 9586   0.864   0.438   7.317  0.2865 -0.7727 -1.2069
   96SAPS  C312 9587   0.839   0.303   7.482 -0.0030  0.8621  0.5806
   96SAPS  H12X 9588   0.820   0.194   7.495 -0.1796  1.0907  2.6318
   96SAPS  H12Y 9589   0.757   0.360   7.531  0.4742  1.1646  1.0357
   96SAPS  C313 9590   0.972   0.340   7.559  0.6815 -0.3243  0.0156
   96SAPS  H13X 9591   0.996   0.443   7.524  0.0219 -0.4164 -0.7408
   96SAPS  H13Y 9592   1.050   0.270   7.524 -0.4348 -0.0211 -3.5033
   96SAPS  C314 9593   0.955   0.341   7.713 -0.0625 -0.6590 -0.3608
   96SAPS  H14X 9594   0.869   0.409   7.735  0.7417  0.3304 -0.1802
   96SAPS  H14Y 9595   1.044   0.391   7.757  0.8472 -0.5548 -2.2497
   96SAPS  C315 9596   0.939   0.210   7.785  0.6660  0.3620 -0.1342
   96SAPS  H15X 9597   1.021   0.140   7.760  1.1442  1.1130 -0.7013
   96SAPS  H15Y 9598   0.838   0.173   7.756  0.8040 -1.0971  1.1276
   96SAPS  C316 9599   0.940   0.226   7.938  0.2234  0.3185 -0.5184
   96SAPS  H16X 9600   0.836   0.246   7.973  0.1046  1.3606 -1.3956
   96SAPS  H16Y 9601   1.002   0.314   7.966 -1.0499  0.9324  0.4788
   96SAPS  C317 9602   0.988   0.101   8.005 -0.3090  1.3291  0.2425
   96SAPS  H17X 9603   1.078   0.077   7.945 -0.3788  1.5235  0.0590
   96SAPS  H17Y 9604   0.921   0.015   7.983  1.3736  0.6270 -2.5779
   96SAPS  C318 9605   1.043   0.111   8.145 -0.3438 -0.0975  0.6029
   96SAPS  H18X 9606   1.083   0.018   8.191  1.6812  0.3001 -0.2479
   96SAPS  H18Y 9607   0.964   0.146   8.216 -0.4003 -1.6558  1.3463
   96SAPS  H18Z 9608   1.129   0.180   8.154  1.7011 -2.4493  0.2607
   97SAPS     N 9609   2.065   4.945   5.710  0.0704  0.0362  0.8128
   97SAPS   HN1 9610   2.107   4.992   5.627 -0.5535 -1.3856 -0.3465
   97SAPS   HN2 9611   2.047   5.019   5.780 -0.9175  1.3878 -0.8176
   97SAPS   HN3 9612   2.127   4.866   5.740 -1.4628 -1.5464  0.0007
   97SAPS   C12 9613   1.930   4.898   5.665 -0.4217  0.5914  0.6686
   97SAPS  H12A 9614   1.952   4.843   5.575  0.5254 -1.3301  2.0024
   97SAPS   C13 9615   1.867   4.789   5.748 -0.0286 -0.1682  0.3181
   97SAPS  O13A 9616   1.923   4.760   5.857 -0.0039  0.4789 -0.3070
   97SAPS  O13B 9617   1.761   4.732   5.712  0.2262  0.0051 -0.1829
   97SAPS   C11 9618   1.847   5.014   5.627  0.0572 -0.3429 -0.2412
   97SAPS  H11A 9619   1.822   5.076   5.716 -0.4737 -1.6087  0.5442
   97SAPS  H11B 9620   1.746   4.974   5.604 -0.0564  0.3063 -0.8895
   97SAPS     P 9621   1.831   5.222   5.474 -0.2167 -0.4119  0.3507
   97SAPS   O13 9622   1.907   5.293   5.369 -0.4692  0.9019 -0.4349
   97SAPS   O14 9623   1.688   5.191   5.454 -0.5212 -0.1564 -0.4791
   97SAPS   O12 9624   1.903   5.092   5.515 -0.1277  0.3178 -0.4460
   97SAPS   O11 9625   1.858   5.305   5.605  0.3858  0.3294 -0.3622
   97SAPS    C1 9626   1.995   5.334   5.636  0.4297 -0.0555 -0.1331
   97SAPS    HA 9627   2.053   5.239   5.636  1.3406  0.4852  0.1858
   97SAPS    HB 9628   2.045   5.377   5.547  0.5750 -0.5850 -0.3110
   97SAPS    C2 9629   2.025   5.407   5.764 -0.2006 -0.4414  0.6496
   97SAPS    HS 9630   2.131   5.398   5.798 -0.3637  0.9593  1.6225
   97SAPS   O21 9631   1.940   5.362   5.868  0.9387 -0.7185  0.1900
   97SAPS   C21 9632   1.946   5.239   5.908 -0.2761 -0.0954  0.2705
   97SAPS   O22 9633   2.031   5.158   5.884 -0.2467 -0.8702 -0.0135
   97SAPS   C22 9634   1.872   5.242   6.033 -0.2938  0.9110  0.4929
   97SAPS   H2R 9635   1.879   5.345   6.076  2.7649  1.0264 -0.0384
   97SAPS   H2S 9636   1.763   5.224   6.020  0.2459 -2.5532 -0.0933
   97SAPS    C3 9637   1.993   5.556   5.739 -0.1838  0.8370  0.1520
   97SAPS    HX 9638   1.890   5.565   5.697  0.1286  1.4778 -0.5122
   97SAPS    HY 9639   2.062   5.600   5.663 -0.0280 -0.9669 -0.8097
   97SAPS   O31 9640   2.004   5.626   5.864  0.0542  0.0889 -0.0054
   97SAPS   C31 9641   1.895   5.667   5.930  0.2465  0.6322  0.1709
   97SAPS   O32 9642   1.780   5.665   5.887 -0.0673 -0.2735  0.2670
   97SAPS   C32 9643   1.923   5.717   6.067 -0.2633 -0.2592  0.4974
   97SAPS   H2X 9644   1.927   5.828   6.062 -2.4371 -0.1656 -0.2016
   97SAPS   H2Y 9645   2.026   5.686   6.097  0.6594  2.7089  0.6915
   97SAPS   C23 9646   1.920   5.142   6.141  0.2353 -0.2344  0.4761
   97SAPS   H3R 9647   2.031   5.155   6.144 -0.0023  2.8606 -0.4158
   97SAPS   H3S 9648   1.911   5.036   6.107 -1.1548 -0.3498  1.1426
   97SAPS   C24 9649   1.864   5.165   6.280  0.9049 -0.4881  0.3584
   97SAPS   H4R 9650   1.885   5.268   6.317  1.1613  0.4624 -2.2360
   97SAPS   H4S 9651   1.923   5.104   6.352 -0.8426  0.5006  2.7578
   97SAPS   C25 9652   1.724   5.111   6.290  0.5549  0.6381 -0.3891
   97SAPS   H5R 9653   1.711   5.002   6.288 -0.6887  0.7274  1.0375
   97SAPS   C26 9654   1.620   5.188   6.291  0.3448 -0.3154 -0.0334
   97SAPS   H6R 9655   1.520   5.145   6.303  0.5278 -0.5973  0.5563
   97SAPS   C27 9656   1.617   5.345   6.281  0.0877 -0.5548  0.0907
   97SAPS   H7R 9657   1.602   5.362   6.173 -1.5295  0.4752  0.4511
   97SAPS   H7S 9658   1.718   5.390   6.296 -0.1551  1.2670 -2.9191
   97SAPS   C28 9659   1.509   5.410   6.365 -0.0446 -0.3718  0.1486
   97SAPS   H8R 9660   1.404   5.394   6.338 -0.7967  1.5227  1.7127
   97SAPS   C29 9661   1.522   5.473   6.484  0.0781 -0.7618 -0.6074
   97SAPS   H9R 9662   1.442   5.520   6.543  0.9838  0.4407 -0.3118
   97SAPS  C210 9663   1.655   5.486   6.558 -0.5711  0.6768  0.8238
   97SAPS  H10R 9664   1.657   5.582   6.614 -1.4111  1.6046 -0.6794
   97SAPS  H10S 9665   1.732   5.500   6.480  0.1802 -5.3539  0.0158
   97SAPS  C211 9666   1.694   5.357   6.629 -0.0374 -0.6713  0.3056
   97SAPS  H11R 9667   1.657   5.268   6.575 -0.8820 -0.7572  1.0064
   97SAPS  C212 9668   1.726   5.337   6.755 -0.3294  0.5086  0.4702
   97SAPS  H12R 9669   1.731   5.231   6.782 -0.8144  0.3338 -0.1176
   97SAPS  C213 9670   1.755   5.445   6.856  0.7755 -0.0806 -0.1850
   97SAPS  H13R 9671   1.721   5.417   6.958 -1.5417  0.4498 -0.7605
   97SAPS  H13S 9672   1.700   5.536   6.826  0.9869 -0.0638 -0.5271
   97SAPS  C214 9673   1.896   5.496   6.873  0.0659  0.6604 -0.7210
   97SAPS  H14R 9674   1.960   5.501   6.784  1.0160  1.0939 -0.0285
   97SAPS  C215 9675   1.945   5.538   6.996 -0.2142  0.1130  0.2166
   97SAPS  H15R 9676   2.051   5.565   6.989 -0.3348  0.3728 -0.8518
   97SAPS  C216 9677   1.875   5.558   7.128  0.5326  0.6269 -0.1268
   97SAPS  H16R 9678   1.778   5.610   7.114  1.7492  3.3344  0.8887
   97SAPS  H16S 9679   1.936   5.634   7.182 -0.2209  0.2942  1.2569
   97SAPS  C217 9680   1.862   5.431   7.218 -0.5026 -0.6682  0.7457
   97SAPS  H17R 9681   1.965   5.392   7.236  0.4068  0.9132 -0.6754
   97SAPS  H17S 9682   1.804   5.351   7.169  1.8636 -1.1372 -1.5335
   97SAPS  C218 9683   1.798   5.465   7.349 -0.0991  0.0047 -0.0083
   97SAPS  H18R 9684   1.700   5.516   7.340  1.7368  3.6742 -0.9080
   97SAPS  H18S 9685   1.864   5.526   7.414 -0.2215 -0.5520  0.6510
   97SAPS  C219 9686   1.786   5.331   7.427  0.6517 -0.1683 -0.2343
   97SAPS  H19R 9687   1.880   5.274   7.415 -1.5023 -3.7000 -2.1555
   97SAPS  H19S 9688   1.699   5.283   7.376  1.0048  0.7532 -1.7918
   97SAPS  C220 9689   1.752   5.349   7.580  0.0833  0.5113 -0.2914
   97SAPS  H20R 9690   1.656   5.404   7.582  0.2906  0.8627  0.6383
   97SAPS  H20S 9691   1.830   5.407   7.634 -0.6667  0.8270  0.4698
   97SAPS  H20T 9692   1.751   5.248   7.628  0.6694 -0.0017 -1.3332
   97SAPS   C33 9693   1.809   5.679   6.156 -0.5814 -0.0017  0.9528
   97SAPS   H3X 9694   1.785   5.572   6.137  1.8539 -0.3010 -1.0484
   97SAPS   H3Y 9695   1.713   5.727   6.128 -0.4561 -1.7804 -3.2646
   97SAPS   C34 9696   1.844   5.680   6.307  0.0515  0.1917 -0.3790
   97SAPS   H4X 9697   1.908   5.594   6.336  0.3537  0.5075 -0.1084
   97SAPS   H4Y 9698   1.741   5.660   6.344 -0.4054  1.4089 -0.9292
   97SAPS   C35 9699   1.890   5.816   6.353  0.4148 -1.2774  0.2492
   97SAPS   H5X 9700   1.825   5.898   6.317 -0.3406 -1.8206  0.3424
   97SAPS   H5Y 9701   1.985   5.846   6.304 -1.0977  0.2908 -1.8878
   97SAPS   C36 9702   1.894   5.842   6.507  0.2747  0.0619 -0.0023
   97SAPS   H6X 9703   1.796   5.813   6.552  0.9789 -1.0267  0.8861
   97SAPS   H6Y 9704   1.904   5.952   6.519 -0.7348 -0.0006  1.9985
   97SAPS   C37 9705   2.017   5.792   6.586  0.2841 -0.2284 -0.0603
   97SAPS   H7X 9706   2.109   5.813   6.527  0.9173 -1.1202  0.5777
   97SAPS   H7Y 9707   2.001   5.683   6.591 -0.0650 -0.3558 -2.6377
   97SAPS   C38 9708   2.020   5.860   6.731 -0.8547  0.6782 -0.0177
   97SAPS   H8X 9709   2.116   5.827   6.776 -0.4396 -0.1319 -1.4356
   97SAPS   H8Y 9710   1.936   5.811   6.786 -0.5828 -3.4554 -2.7843
   97SAPS   C39 9711   2.013   6.010   6.732  0.2592 -0.1702 -0.1257
   97SAPS   H9X 9712   1.908   6.042   6.712  0.3559  0.9089  0.9918
   97SAPS   H9Y 9713   2.075   6.042   6.646  1.0549 -0.5029  0.3148
   97SAPS  C310 9714   2.050   6.067   6.864 -0.2870 -0.5778 -0.0150
   97SAPS  H10X 9715   2.056   6.178   6.862 -1.1920 -0.5097  0.3473
   97SAPS  H10Y 9716   2.156   6.036   6.876 -0.3048 -2.3442 -3.2385
   97SAPS  C311 9717   1.964   6.025   6.980  0.5511  1.1072 -0.3718
   97SAPS  H11X 9718   1.969   5.914   6.986  0.7048  1.1177 -0.3074
   97SAPS  H11Y 9719   1.863   6.072   6.970  0.5434  1.2786  0.4392
   97SAPS  C312 9720   2.017   6.069   7.117  0.3452 -0.2388 -0.5270
   97SAPS  H12X 9721   2.021   6.180   7.121  3.2570 -0.2906  0.9067
   97SAPS  H12Y 9722   2.125   6.043   7.113  0.8321  1.7157 -0.9480
   97SAPS  C313 9723   1.961   5.998   7.239  0.1818  0.0534 -0.3518
   97SAPS  H13X 9724   1.976   5.890   7.216  0.8160  0.3700 -1.4922
   97SAPS  H13Y 9725   1.851   6.011   7.250 -0.1632 -2.8920  0.7590
   97SAPS  C314 9726   2.021   6.036   7.373 -0.1529 -0.5728 -0.3765
   97SAPS  H14X 9727   2.015   6.147   7.379  1.5984 -0.4680 -0.1083
   97SAPS  H14Y 9728   2.127   6.004   7.377  0.1066  0.3236  0.6403
   97SAPS  C315 9729   1.944   5.985   7.497 -0.1667  0.6053  0.5097
   97SAPS  H15X 9730   1.943   5.874   7.495 -2.3531  0.5683  0.9516
   97SAPS  H15Y 9731   1.836   6.009   7.495 -0.2852  0.0462 -1.2433
   97SAPS  C316 9732   1.994   6.027   7.634  0.5580 -0.0310  0.0298
   97SAPS  H16X 9733   1.964   6.134   7.638 -0.0490 -0.1506 -0.9718
   97SAPS  H16Y 9734   2.105   6.023   7.642  0.7123  1.5616 -0.9129
   97SAPS  C317 9735   1.924   5.946   7.745  0.7386  0.2712  0.3410
   97SAPS  H17X 9736   1.961   5.841   7.741  1.4221  0.5416 -1.2035
   97SAPS  H17Y 9737   1.815   5.945   7.728  0.6042 -1.1905  1.0926
   97SAPS  C318 9738   1.960   5.997   7.878 -0.2528  0.2336 -0.1946
   97SAPS  H18X 9739   1.887   6.079   7.895 -0.8323 -0.0861 -1.0897
   97SAPS  H18Y 9740   2.064   6.037   7.886 -0.4143  0.5782  0.1968
   97SAPS  H18Z 9741   1.960   5.917   7.955  1.1689 -1.0574 -1.4425
   98SAPS     N 9742   6.437   5.378   5.969 -0.0844  0.2429 -0.2753
   98SAPS   HN1 9743   6.508   5.369   5.893 -1.5306 -0.6920 -1.5567
   98SAPS   HN2 9744   6.437   5.297   6.033 -1.6558  1.0715  0.8359
   98SAPS   HN3 9745   6.341   5.380   5.930  0.8746 -0.8417 -2.8633
   98SAPS   C12 9746   6.474   5.494   6.052 -0.0468  0.4969  0.0939
   98SAPS  H12A 9747   6.581   5.495   6.044  0.1648 -0.4970  2.1734
   98SAPS   C13 9748   6.423   5.631   6.002  0.0395 -0.8075  0.6333
   98SAPS  O13A 9749   6.324   5.630   5.917 -0.9190 -0.3221 -0.1422
   98SAPS  O13B 9750   6.450   5.741   6.065  0.6804  0.5035  0.2558
   98SAPS   C11 9751   6.413   5.481   6.195  0.0003 -0.8457 -0.0128
   98SAPS  H11A 9752   6.430   5.580   6.243  1.2272 -1.0513  0.0148
   98SAPS  H11B 9753   6.459   5.397   6.252 -1.1096 -0.3357  1.7315
   98SAPS     P 9754   6.191   5.460   6.327  0.0076  0.1913 -0.3623
   98SAPS   O13 9755   6.141   5.599   6.335  0.3722  0.1559  0.2205
   98SAPS   O14 9756   6.096   5.350   6.334 -0.4982 -0.0507  0.0836
   98SAPS   O12 9757   6.272   5.450   6.187 -0.2600  0.1884 -0.7221
   98SAPS   O11 9758   6.303   5.436   6.434 -0.3745  0.6753 -0.7738
   98SAPS    C1 9759   6.321   5.521   6.551 -0.1277  0.1692  0.3583
   98SAPS    HA 9760   6.391   5.606   6.537  0.2285 -0.4248 -1.8970
   98SAPS    HB 9761   6.229   5.577   6.575 -0.1892 -0.2919  1.2121
   98SAPS    C2 9762   6.333   5.440   6.679  0.0003  0.0608 -0.1945
   98SAPS    HS 9763   6.424   5.377   6.666  0.0819  0.0609  0.3538
   98SAPS   O21 9764   6.215   5.356   6.686 -0.0160 -0.1597 -0.4159
   98SAPS   C21 9765   6.238   5.247   6.757  0.5372  0.0896  0.6242
   98SAPS   O22 9766   6.335   5.209   6.818 -0.7287 -0.5150 -0.1652
   98SAPS   C22 9767   6.109   5.155   6.742  0.6718 -0.6510 -0.2244
   98SAPS   H2R 9768   6.030   5.217   6.695  0.7517 -0.8144 -0.5845
   98SAPS   H2S 9769   6.130   5.082   6.660  1.9871 -2.3346  1.5033
   98SAPS    C3 9770   6.349   5.529   6.806  1.4519  0.4494  0.4630
   98SAPS    HX 9771   6.437   5.591   6.779  0.1268  3.0406  1.6846
   98SAPS    HY 9772   6.361   5.475   6.902 -1.0084  1.4876  1.4559
   98SAPS   O31 9773   6.226   5.610   6.826  0.4511 -0.0900  1.1215
   98SAPS   C31 9774   6.238   5.734   6.836  0.6147 -0.2778 -0.0611
   98SAPS   O32 9775   6.336   5.805   6.830 -0.1702 -0.2770 -0.3258
   98SAPS   C32 9776   6.103   5.803   6.855  0.9387  0.5130 -0.2042
   98SAPS   H2X 9777   6.037   5.759   6.776  1.7664 -1.4654  0.1501
   98SAPS   H2Y 9778   6.120   5.910   6.834  1.4774  0.8547  1.8497
   98SAPS   C23 9779   6.050   5.092   6.871  0.3140 -0.5762 -0.1443
   98SAPS   H3R 9780   5.951   5.045   6.853 -1.3140  1.2134  3.1578
   98SAPS   H3S 9781   6.024   5.167   6.949  1.8642  0.3122 -0.4428
   98SAPS   C24 9782   6.130   4.970   6.925  0.4304  0.2970 -0.1632
   98SAPS   H4R 9783   6.175   4.923   6.834  0.5668  0.5703 -0.2393
   98SAPS   H4S 9784   6.054   4.898   6.961  0.0503  0.9295  0.3309
   98SAPS   C25 9785   6.222   5.014   7.035 -0.4173  0.0751  0.7245
   98SAPS   H5R 9786   6.322   5.033   6.995 -0.8350 -2.6163 -1.9678
   98SAPS   C26 9787   6.187   5.015   7.163  0.2261 -0.7474 -0.5191
   98SAPS   H6R 9788   6.260   5.033   7.243  0.0022  2.6468 -0.9241
   98SAPS   C27 9789   6.050   4.974   7.208 -0.1376  0.4857  0.1096
   98SAPS   H7R 9790   6.073   4.876   7.255 -0.8340  0.8348  1.2436
   98SAPS   H7S 9791   5.977   4.940   7.132  0.3884  1.3851 -0.8144
   98SAPS   C28 9792   5.999   5.073   7.311 -0.3665  0.2028  0.1367
   98SAPS   H8R 9793   5.965   5.168   7.267 -0.0054  0.6031  0.7111
   98SAPS   C29 9794   5.994   5.053   7.444  0.0399 -0.5340  0.3063
   98SAPS   H9R 9795   5.957   5.138   7.504  0.2078  1.2063 -1.9345
   98SAPS  C210 9796   6.052   4.935   7.526 -0.2947 -0.6869  0.4558
   98SAPS  H10R 9797   6.163   4.943   7.534 -0.2235 -0.7026 -0.3989
   98SAPS  H10S 9798   6.041   4.841   7.467 -3.7022  1.3444 -2.5702
   98SAPS  C211 9799   5.999   4.926   7.670  0.2507  0.2771  0.2877
   98SAPS  H11R 9800   5.896   4.956   7.696  0.4490  0.6220  0.6865
   98SAPS  C212 9801   6.079   4.878   7.768  0.1841  0.2828 -0.2568
   98SAPS  H12R 9802   6.045   4.877   7.873 -0.3849  0.4728 -0.4354
   98SAPS  C213 9803   6.223   4.830   7.764 -0.0255 -0.5830  0.0047
   98SAPS  H13R 9804   6.227   4.761   7.677  0.9937 -1.6103  0.8291
   98SAPS  H13S 9805   6.251   4.760   7.846 -0.5540  0.3828  1.0465
   98SAPS  C214 9806   6.325   4.943   7.762  0.3935 -0.3868  0.2695
   98SAPS  H14R 9807   6.310   5.015   7.843 -1.7295  1.0515 -1.2961
   98SAPS  C215 9808   6.414   4.961   7.666  0.7276  0.8238 -0.0140
   98SAPS  H15R 9809   6.493   5.037   7.673  1.4807  0.0203  0.5885
   98SAPS  C216 9810   6.452   4.879   7.549 -0.3934 -0.6880  0.6850
   98SAPS  H16R 9811   6.406   4.930   7.461  0.3900 -1.9355 -0.4878
   98SAPS  H16S 9812   6.408   4.777   7.561  0.1012 -0.8135  1.4576
   98SAPS  C217 9813   6.604   4.858   7.523 -0.2003 -0.1955  0.1245
   98SAPS  H17R 9814   6.641   4.776   7.587 -3.0389 -3.0469 -1.5638
   98SAPS  H17S 9815   6.662   4.951   7.542  0.9072 -0.9272  0.3755
   98SAPS  C218 9816   6.641   4.820   7.378 -0.2472  0.0585 -0.4513
   98SAPS  H18R 9817   6.612   4.902   7.310  1.7922  1.7507  0.5979
   98SAPS  H18S 9818   6.587   4.728   7.346  2.5749 -1.5212 -0.9929
   98SAPS  C219 9819   6.793   4.794   7.363  0.3802  0.0601 -0.5487
   98SAPS  H19R 9820   6.808   4.708   7.432 -1.9042 -0.7395 -0.9583
   98SAPS  H19S 9821   6.850   4.877   7.411  1.2945 -0.6656 -0.3466
   98SAPS  C220 9822   6.840   4.774   7.229 -0.2610  0.3160  0.9320
   98SAPS  H20R 9823   6.939   4.724   7.223  0.4025  1.7503 -2.2888
   98SAPS  H20S 9824   6.850   4.867   7.169 -0.2573  0.6842  1.4939
   98SAPS  H20T 9825   6.759   4.718   7.178 -0.1219  1.2243 -0.3567
   98SAPS   C33 9826   6.047   5.775   6.989 -0.2986 -0.2157 -0.3700
   98SAPS   H3X 9827   6.052   5.668   7.018 -0.3727  0.4529  2.4705
   98SAPS   H3Y 9828   5.937   5.795   6.981  0.2111  3.7501  0.1234
   98SAPS   C34 9829   6.111   5.856   7.094 -0.0378  0.9309  0.3537
   98SAPS   H4X 9830   6.041   5.886   7.175  1.4048  0.7728  1.6980
   98SAPS   H4Y 9831   6.164   5.948   7.061  2.5498  0.5519  3.0950
   98SAPS   C35 9832   6.228   5.779   7.165 -0.0790 -0.0451  0.0538
   98SAPS   H5X 9833   6.324   5.786   7.109  0.1100 -0.3527  0.3385
   98SAPS   H5Y 9834   6.212   5.669   7.161  2.3258 -0.4439 -0.5272
   98SAPS   C36 9835   6.252   5.807   7.321  0.0121  0.3631 -0.1721
   98SAPS   H6X 9836   6.151   5.818   7.367 -0.1525 -0.0448 -0.4273
   98SAPS   H6Y 9837   6.297   5.908   7.335  3.5319 -1.2849  1.7243
   98SAPS   C37 9838   6.332   5.695   7.391  0.0997  0.2534  0.2308
   98SAPS   H7X 9839   6.439   5.700   7.361 -0.1053  1.2916 -0.3833
   98SAPS   H7Y 9840   6.302   5.596   7.351 -1.5973  0.2025  1.5231
   98SAPS   C38 9841   6.316   5.693   7.548 -0.1876 -0.3902  0.4871
   98SAPS   H8X 9842   6.377   5.604   7.578  0.4522 -0.3930 -0.7262
   98SAPS   H8Y 9843   6.208   5.675   7.565 -0.7599  0.6591 -1.6239
   98SAPS   C39 9844   6.370   5.822   7.615  0.5426 -0.3705 -0.6107
   98SAPS   H9X 9845   6.296   5.899   7.644  1.0127 -0.5951  1.3422
   98SAPS   H9Y 9846   6.443   5.870   7.547  0.8358  0.2109  0.0956
   98SAPS  C310 9847   6.443   5.791   7.754 -0.4512  0.1126  0.5707
   98SAPS  H10X 9848   6.520   5.867   7.774 -0.2465 -0.3211  1.4853
   98SAPS  H10Y 9849   6.495   5.693   7.757 -0.2291  0.2381  0.8706
   98SAPS  C311 9850   6.342   5.801   7.865 -0.3375 -0.2064  0.1648
   98SAPS  H11X 9851   6.267   5.720   7.860 -1.0024  0.4161 -0.1946
   98SAPS  H11Y 9852   6.284   5.895   7.854  0.9680  0.5561 -0.4527
   98SAPS  C312 9853   6.408   5.792   8.000  0.5787  0.9888  0.8881
   98SAPS  H12X 9854   6.491   5.865   8.001  0.5955  0.9900  2.7754
   98SAPS  H12Y 9855   6.457   5.693   7.998 -1.1431  0.1070  0.4139
   98SAPS  C313 9856   6.307   5.806   8.113 -0.4175  0.3606 -0.4750
   98SAPS  H13X 9857   6.231   5.731   8.083 -1.0002 -0.2661  2.2884
   98SAPS  H13Y 9858   6.260   5.907   8.107 -0.8530  0.0873 -2.0475
   98SAPS  C314 9859   6.361   5.766   8.252 -0.3648 -0.0227 -0.1928
   98SAPS  H14X 9860   6.445   5.830   8.283  0.2247 -0.8095 -0.1380
   98SAPS  H14Y 9861   6.411   5.667   8.246 -0.1376  0.1458 -1.4359
   98SAPS  C315 9862   6.254   5.777   8.366 -0.1540 -0.2276 -0.4563
   98SAPS  H15X 9863   6.179   5.699   8.342  0.2393 -0.6730 -0.2468
   98SAPS  H15Y 9864   6.207   5.877   8.380  1.8802  1.3578 -3.7820
   98SAPS  C316 9865   6.329   5.740   8.497 -0.2142 -0.8438  0.0147
   98SAPS  H16X 9866   6.404   5.660   8.478  1.9179  1.3363 -1.3817
   98SAPS  H16Y 9867   6.257   5.702   8.572  0.4374 -1.5510  0.2913
   98SAPS  C317 9868   6.404   5.853   8.558 -0.3377 -0.1759 -0.4632
   98SAPS  H17X 9869   6.342   5.942   8.585  0.1528  0.1746 -0.4892
   98SAPS  H17Y 9870   6.476   5.895   8.485 -1.7426  1.0308 -1.2095
   98SAPS  C318 9871   6.472   5.810   8.692  0.0400 -0.5134  0.3944
   98SAPS  H18X 9872   6.428   5.725   8.747 -0.1903 -1.6146 -1.4216
   98SAPS  H18Y 9873   6.466   5.898   8.760 -2.0775  1.3042 -1.9447
   98SAPS  H18Z 9874   6.582   5.791   8.688  0.3084  0.9829 -0.2116
   99SAPS     N 9875   4.669   1.227   6.050  0.9148 -0.0116 -0.5529
   99SAPS   HN1 9876   4.639   1.326   6.051 -1.9148 -0.7734  1.4840
   99SAPS   HN2 9877   4.653   1.190   5.954  2.2221 -1.0182 -0.4177
   99SAPS   HN3 9878   4.608   1.178   6.119 -0.7439  0.1172 -1.8713
   99SAPS   C12 9879   4.803   1.206   6.100  0.8654  0.5683 -0.9903
   99SAPS  H12A 9880   4.827   1.105   6.069 -2.8420 -1.1436  1.0288
   99SAPS   C13 9881   4.914   1.302   6.043  0.0274 -0.1330 -0.7581
   99SAPS  O13A 9882   4.880   1.384   5.956 -0.6564 -0.0461 -0.1400
   99SAPS  O13B 9883   5.019   1.311   6.111  0.2536 -0.3827 -0.1787
   99SAPS   C11 9884   4.796   1.213   6.250 -0.5280  0.0615  0.6788
   99SAPS  H11A 9885   4.770   1.318   6.275 -0.2624  0.7994 -1.8993
   99SAPS  H11B 9886   4.898   1.197   6.293  0.2036  2.0109 -0.2461
   99SAPS     P 9887   4.719   1.052   6.443  0.0915 -0.5320  0.2363
   99SAPS   O13 9888   4.613   1.108   6.528 -0.0864  0.1946 -0.2357
   99SAPS   O14 9889   4.729   0.908   6.425 -0.1705 -0.1930 -0.3133
   99SAPS   O12 9890   4.708   1.119   6.298 -0.4469  0.6993  0.2001
   99SAPS   O11 9891   4.862   1.101   6.494 -0.1006 -0.1006  0.8472
   99SAPS    C1 9892   4.860   1.221   6.568 -0.0034 -0.6220  0.6156
   99SAPS    HA 9893   4.780   1.293   6.541 -0.9022 -2.4346 -1.9127
   99SAPS    HB 9894   4.861   1.206   6.678  0.9570 -0.1218  0.6906
   99SAPS    C2 9895   4.991   1.297   6.550  1.2926 -0.3771  0.4006
   99SAPS    HS 9896   5.010   1.293   6.441 -0.8531 -0.7454  0.0035
   99SAPS   O21 9897   5.091   1.221   6.617  0.2167  0.0439  0.3106
   99SAPS   C21 9898   5.204   1.217   6.547  0.9167  0.1706 -0.7952
   99SAPS   O22 9899   5.225   1.258   6.438 -0.7529  0.2043 -0.0808
   99SAPS   C22 9900   5.320   1.171   6.638  0.6452  0.5369 -0.2773
   99SAPS   H2R 9901   5.360   1.261   6.689 -0.1125  1.1006 -0.6703
   99SAPS   H2S 9902   5.272   1.095   6.704  0.2240 -0.1355 -1.3293
   99SAPS    C3 9903   4.989   1.445   6.594 -0.0106  0.0563  0.3308
   99SAPS    HX 9904   4.908   1.502   6.545  0.8534  0.8442 -0.2204
   99SAPS    HY 9905   5.084   1.487   6.554 -1.8189  2.2627 -1.8947
   99SAPS   O31 9906   4.964   1.454   6.741  0.6161 -0.4178  0.5116
   99SAPS   C31 9907   5.064   1.482   6.815 -0.1564  1.1006 -0.4615
   99SAPS   O32 9908   5.182   1.488   6.776  0.3157 -0.3599  0.3218
   99SAPS   C32 9909   5.024   1.489   6.964 -0.0272 -0.0206  0.7409
   99SAPS   H2X 9910   4.985   1.387   6.983  2.7386 -1.1084  1.0033
   99SAPS   H2Y 9911   4.944   1.565   6.973 -0.9877 -1.0776  1.3278
   99SAPS   C23 9912   5.441   1.116   6.561 -0.1250  0.2820 -0.1731
   99SAPS   H3R 9913   5.476   1.192   6.489  0.4808  1.3410  1.1825
   99SAPS   H3S 9914   5.403   1.030   6.502 -0.6014  0.1060  0.3727
   99SAPS   C24 9915   5.547   1.058   6.654 -0.2087 -1.4435 -0.0436
   99SAPS   H4R 9916   5.612   0.994   6.591  1.9057  2.2354 -1.9106
   99SAPS   H4S 9917   5.483   0.994   6.719 -1.2046 -0.6511 -0.2099
   99SAPS   C25 9918   5.627   1.165   6.729 -0.1414 -0.1823 -0.1238
   99SAPS   H5R 9919   5.697   1.222   6.667 -1.7322  0.2177 -1.6342
   99SAPS   C26 9920   5.615   1.193   6.859  0.6994  0.1436  0.1988
   99SAPS   H6R 9921   5.684   1.266   6.905 -1.1601  0.9432  1.8705
   99SAPS   C27 9922   5.514   1.137   6.958  0.6666 -0.1450 -0.0642
   99SAPS   H7R 9923   5.577   1.077   7.027  0.7345 -0.4325 -0.3677
   99SAPS   H7S 9924   5.448   1.060   6.912  2.5277 -1.9501  0.1012
   99SAPS   C28 9925   5.430   1.244   7.026  0.4253 -0.4373  0.2151
   99SAPS   H8R 9926   5.372   1.306   6.957  1.3531  1.3855  1.0147
   99SAPS   C29 9927   5.427   1.272   7.159 -0.0212 -0.4201  0.4490
   99SAPS   H9R 9928   5.372   1.361   7.193  1.2077 -0.6868  3.4754
   99SAPS  C210 9929   5.493   1.197   7.273 -0.0030  0.3599 -0.2497
   99SAPS  H10R 9930   5.594   1.239   7.290 -0.0206  0.7335 -1.0222
   99SAPS  H10S 9931   5.504   1.089   7.247 -0.4782  0.2374  0.0366
   99SAPS  C211 9932   5.402   1.195   7.402  0.6386 -0.1568  0.3017
   99SAPS  H11R 9933   5.327   1.115   7.404 -0.0830  0.5166  0.3563
   99SAPS  C212 9934   5.409   1.277   7.508  0.3184  0.0838 -0.5070
   99SAPS  H12R 9935   5.338   1.264   7.592  1.4793  1.1816  0.6829
   99SAPS  C213 9936   5.498   1.400   7.528  0.2003 -0.9165  0.5714
   99SAPS  H13R 9937   5.435   1.486   7.557  1.4619  0.8781 -1.6984
   99SAPS  H13S 9938   5.549   1.431   7.434 -0.6270 -0.5417  0.2351
   99SAPS  C214 9939   5.605   1.376   7.628 -0.3240 -1.2931  0.1702
   99SAPS  H14R 9940   5.704   1.349   7.590  0.5644  0.4184  1.1487
   99SAPS  C215 9941   5.590   1.391   7.757  0.9279  0.3371 -0.8185
   99SAPS  H15R 9942   5.676   1.368   7.822  1.4343  3.0262 -0.3960
   99SAPS  C216 9943   5.454   1.413   7.830 -1.3305  0.0449 -0.6207
   99SAPS  H16R 9944   5.445   1.332   7.905 -0.5159 -1.1132 -1.7368
   99SAPS  H16S 9945   5.362   1.403   7.767 -0.8807 -1.1348 -1.1241
   99SAPS  C217 9946   5.455   1.554   7.902 -0.0958 -0.2490  0.6047
   99SAPS  H17R 9947   5.353   1.573   7.940 -1.1401  0.5636 -2.3741
   99SAPS  H17S 9948   5.493   1.640   7.843  1.8193 -0.6146  1.2311
   99SAPS  C218 9949   5.559   1.560   8.020  0.2730  1.1176 -0.5671
   99SAPS  H18R 9950   5.564   1.667   8.050  2.3614  0.1796  3.1260
   99SAPS  H18S 9951   5.664   1.539   7.989  0.7752  1.3753  0.8487
   99SAPS  C219 9952   5.511   1.476   8.143 -0.0347  0.6340 -0.2642
   99SAPS  H19R 9953   5.506   1.368   8.119 -2.1869 -0.2015  3.2974
   99SAPS  H19S 9954   5.407   1.511   8.161  0.0617  1.6165 -1.4515
   99SAPS  C220 9955   5.591   1.496   8.264  0.0128 -0.1006 -0.1445
   99SAPS  H20R 9956   5.557   1.435   8.351 -3.3106  1.2850 -0.3042
   99SAPS  H20S 9957   5.580   1.602   8.296 -2.8239 -0.7202  1.2659
   99SAPS  H20T 9958   5.697   1.472   8.242 -0.2747 -0.2627 -1.4018
   99SAPS   C33 9959   5.141   1.533   7.059 -1.3309  0.0516  0.0237
   99SAPS   H3X 9960   5.166   1.641   7.050 -1.2326 -0.1291 -2.7317
   99SAPS   H3Y 9961   5.232   1.477   7.028 -0.0515  1.5200  0.9970
   99SAPS   C34 9962   5.112   1.494   7.210 -0.6987 -0.9689 -0.2975
   99SAPS   H4X 9963   5.205   1.518   7.266 -1.3809  0.5928  0.2277
   99SAPS   H4Y 9964   5.093   1.384   7.213  0.0873 -1.0935  0.9461
   99SAPS   C35 9965   5.006   1.596   7.258  0.0481  0.9563  0.4915
   99SAPS   H5X 9966   4.923   1.579   7.186  0.8035  0.4637 -0.2858
   99SAPS   H5Y 9967   5.051   1.697   7.243 -0.4256  0.8019 -2.7332
   99SAPS   C36 9968   4.944   1.581   7.398 -0.4038 -0.3946 -0.2894
   99SAPS   H6X 9969   4.900   1.481   7.420  0.5690 -1.0564 -1.2867
   99SAPS   H6Y 9970   4.857   1.648   7.376  1.2343  1.6008 -0.9974
   99SAPS   C37 9971   5.038   1.644   7.497  0.5858 -0.2640 -0.1529
   99SAPS   H7X 9972   5.072   1.748   7.479  0.9256  0.0117  1.8079
   99SAPS   H7Y 9973   5.128   1.579   7.509 -0.7794 -2.0320  1.0240
   99SAPS   C38 9974   4.979   1.653   7.638  0.4042  0.5911 -0.8143
   99SAPS   H8X 9975   4.948   1.549   7.662  0.1213  0.7038 -0.6910
   99SAPS   H8Y 9976   4.887   1.716   7.641  0.5926  0.9026 -1.4631
   99SAPS   C39 9977   5.077   1.699   7.749 -0.1468 -0.1671 -0.6954
   99SAPS   H9X 9978   5.130   1.793   7.723 -1.5635  0.7477 -0.4420
   99SAPS   H9Y 9979   5.136   1.609   7.778 -1.3786 -0.2438  1.9245
   99SAPS  C310 9980   5.005   1.728   7.890 -0.0372 -0.4328  0.3156
   99SAPS  H10X 9981   4.938   1.643   7.914 -1.5913  0.7251  0.2461
   99SAPS  H10Y 9982   4.936   1.813   7.870 -0.1518 -1.0640 -2.3455
   99SAPS  C311 9983   5.095   1.758   8.014  0.3490 -0.2976 -0.0030
   99SAPS  H11X 9984   5.169   1.837   7.990  1.7874 -1.5362  0.1760
   99SAPS  H11Y 9985   5.163   1.671   8.021  0.5526 -0.2121 -0.7730
   99SAPS  C312 9986   5.027   1.796   8.146  0.3038  0.4118 -0.4233
   99SAPS  H12X 9987   4.975   1.700   8.169  2.0162 -0.5299 -0.3522
   99SAPS  H12Y 9988   4.948   1.873   8.130  0.3897  0.6243  0.1448
   99SAPS  C313 9989   5.117   1.822   8.264  0.4192 -0.2278  0.6614
   99SAPS  H13X 9990   5.052   1.858   8.346 -0.9384 -1.9937  0.4168
   99SAPS  H13Y 9991   5.178   1.912   8.241  1.0317 -0.7914  0.0241
   99SAPS  C314 9992   5.185   1.699   8.313  0.2237 -0.2961 -0.3118
   99SAPS  H14X 9993   5.234   1.651   8.225 -0.4672 -0.5474 -0.5685
   99SAPS  H14Y 9994   5.120   1.623   8.360  0.5423 -0.4464 -0.1119
   99SAPS  C315 9995   5.295   1.730   8.407 -0.7955  0.4114  0.5875
   99SAPS  H15X 9996   5.375   1.773   8.344 -1.7604 -0.8534 -1.6466
   99SAPS  H15Y 9997   5.326   1.638   8.461  1.1027  0.6526 -0.0270
   99SAPS  C316 9998   5.260   1.837   8.508  0.7669 -0.4486  0.0113
   99SAPS  H16X 9999   5.225   1.928   8.456  0.6840 -0.3050  0.3146
   99SAPS  H16Y10000   5.354   1.864   8.561  0.3188 -0.4023  0.8074
   99SAPS  C31710001   5.163   1.799   8.619  0.1672  0.8479 -0.0604
   99SAPS  H17X10002   5.185   1.692   8.641  2.2601  0.8762 -1.7051
   99SAPS  H17Y10003   5.058   1.797   8.581 -1.1700  1.0951  3.2957
   99SAPS  C31810004   5.167   1.897   8.737  0.1272  0.1735  0.1360
   99SAPS  H18X10005   5.138   1.863   8.839 -0.7364 -0.7298 -0.3934
   99SAPS  H18Y10006   5.099   1.982   8.717  2.0127  1.5088 -0.9020
   99SAPS  H18Z10007   5.272   1.931   8.752  1.0578 -0.8930 -3.1324
  100SAPS     N10008   0.447   5.489   5.952  0.5955  0.0469 -0.5656
  100SAPS   HN110009   0.453   5.422   6.031 -1.6055 -0.0027 -0.3891
  100SAPS   HN210010   0.349   5.480   5.918  0.4241  0.5551 -0.2035
  100SAPS   HN310011   0.512   5.452   5.879  1.3288  2.0926 -1.0173
  100SAPS   C1210012   0.484   5.625   5.995  0.0393  0.1483  0.0513
  100SAPS  H12A10013   0.488   5.683   5.904 -2.8083  0.5825  0.1129
  100SAPS   C1310014   0.370   5.698   6.083  0.0161  0.3162 -0.6541
  100SAPS  O13A10015   0.292   5.620   6.150 -0.0331  0.2678 -0.3560
  100SAPS  O13B10016   0.374   5.819   6.102  0.5870 -0.2174  0.2693
  100SAPS   C1110017   0.612   5.625   6.076  0.2411  0.0415  0.3236
  100SAPS  H11A10018   0.589   5.541   6.144 -1.4007  0.2233  0.0112
  100SAPS  H11B10019   0.615   5.724   6.128 -1.2627  0.0527  0.4269
  100SAPS     P10020   0.796   5.696   5.915  0.2194 -0.3189 -0.2301
  100SAPS   O1310021   0.935   5.667   5.904 -0.0200  1.0243  0.1464
  100SAPS   O1410022   0.719   5.679   5.791  0.1400 -0.5585 -0.1631
  100SAPS   O1210023   0.732   5.586   6.014  0.3370 -0.0188 -0.0501
  100SAPS   O1110024   0.769   5.840   5.982 -0.4971  0.4670 -0.4841
  100SAPS    C110025   0.887   5.921   6.000 -0.1322  0.0619 -0.7692
  100SAPS    HA10026   0.951   5.915   5.910  2.1433 -1.2172  0.8262
  100SAPS    HB10027   0.855   6.027   6.013  1.3628  0.4860 -0.2606
  100SAPS    C210028   0.966   5.878   6.128  0.1791 -0.5187 -0.4172
  100SAPS    HS10029   1.031   5.794   6.098  2.1525  0.3913  1.0701
  100SAPS   O2110030   0.864   5.855   6.229 -0.1455 -0.0548  0.3686
  100SAPS   C2110031   0.878   5.747   6.299 -0.5783  0.2442 -0.5498
  100SAPS   O2210032   0.974   5.668   6.295  0.2780 -0.2873 -0.0207
  100SAPS   C2210033   0.758   5.732   6.386  0.7243  1.1684 -0.5288
  100SAPS   H2R10034   0.708   5.831   6.401 -0.0248  0.7238 -0.0402
  100SAPS   H2S10035   0.693   5.659   6.334  3.4343  0.7287 -3.6033
  100SAPS    C310036   1.066   5.989   6.169  0.3671  0.1760 -0.1153
  100SAPS    HX10037   0.999   6.069   6.208  0.0834 -0.8036  1.5051
  100SAPS    HY10038   1.111   6.037   6.079  0.0483  0.7944  0.0512
  100SAPS   O3110039   1.146   5.944   6.281 -0.0545  0.0999 -0.1320
  100SAPS   C3110040   1.265   5.891   6.245  0.2692  0.2401  0.1445
  100SAPS   O3210041   1.307   5.877   6.132  0.7589  0.6720 -0.3297
  100SAPS   C3210042   1.342   5.836   6.373 -0.3459  0.6310 -0.0568
  100SAPS   H2X10043   1.432   5.789   6.329 -0.3867  0.7516 -0.2743
  100SAPS   H2Y10044   1.278   5.754   6.411 -0.4106 -0.3623 -2.1738
  100SAPS   C2310045   0.789   5.696   6.536  0.3688  0.0134 -0.2791
  100SAPS   H3R10046   0.881   5.634   6.544  1.9849  2.4477  1.9523
  100SAPS   H3S10047   0.697   5.642   6.567  0.1752  0.2376 -0.4557
  100SAPS   C2410048   0.812   5.807   6.638  0.2763  0.3648  0.4302
  100SAPS   H4R10049   0.796   5.772   6.742 -2.6386 -0.7974 -0.3159
  100SAPS   H4S10050   0.738   5.889   6.631  2.3694  2.3746  0.4362
  100SAPS   C2510051   0.947   5.863   6.611 -0.2979  0.1764  0.0302
  100SAPS   H5R10052   0.964   5.905   6.511  1.8984 -1.2551 -0.2788
  100SAPS   C2610053   1.054   5.873   6.694 -0.1158 -0.0165  0.6123
  100SAPS   H6R10054   1.149   5.909   6.654 -0.8918 -0.1295 -1.4641
  100SAPS   C2710055   1.051   5.820   6.836  0.0417  0.6617  0.2514
  100SAPS   H7R10056   1.081   5.714   6.823 -0.7302  0.4746 -0.0866
  100SAPS   H7S10057   0.951   5.808   6.883 -0.0242 -1.4003 -0.3239
  100SAPS   C2810058   1.145   5.894   6.923  0.3888  0.4856  0.8033
  100SAPS   H8R10059   1.216   5.958   6.867 -0.1102  0.3262 -0.0189
  100SAPS   C2910060   1.161   5.875   7.055 -0.7814  0.6488  0.2574
  100SAPS   H9R10061   1.236   5.943   7.099  2.3112 -2.2830 -0.1085
  100SAPS  C21010062   1.081   5.774   7.136  0.2986  0.7852  0.2353
  100SAPS  H10R10063   1.152   5.704   7.185  2.2241  1.7602 -1.0168
  100SAPS  H10S10064   1.039   5.700   7.064  2.6408  0.6479 -1.0818
  100SAPS  C21110065   0.968   5.821   7.224  1.0065 -0.3819  1.0336
  100SAPS  H11R10066   0.902   5.898   7.181 -0.3443 -0.8844  2.1103
  100SAPS  C21210067   0.938   5.789   7.355 -0.7110 -0.0254 -0.0857
  100SAPS  H12R10068   0.847   5.838   7.394 -1.6000 -0.5113 -1.4564
  100SAPS  C21310069   1.013   5.686   7.438 -0.2552 -0.2219  0.3713
  100SAPS  H13R10070   1.073   5.626   7.367 -1.9410 -2.2202  0.5423
  100SAPS  H13S10071   0.937   5.619   7.484 -3.0838  2.6427  0.2494
  100SAPS  C21410072   1.105   5.769   7.535  0.6335  0.7176 -0.2038
  100SAPS  H14R10073   1.170   5.844   7.488 -0.0351  1.5710  0.2001
  100SAPS  C21510074   1.107   5.758   7.668 -0.8084  0.0366  0.4014
  100SAPS  H15R10075   1.175   5.818   7.730 -0.0447 -0.2879 -0.1034
  100SAPS  C21610076   1.024   5.669   7.757 -0.2550 -0.2792  0.7274
  100SAPS  H16R10077   1.093   5.614   7.825  0.7709  1.2075  0.9546
  100SAPS  H16S10078   0.961   5.602   7.695  0.3483 -0.1915  0.0063
  100SAPS  C21710079   0.922   5.749   7.853 -0.3255 -0.4533  0.8376
  100SAPS  H17R10080   0.836   5.782   7.792  1.2940  2.5294 -0.0396
  100SAPS  H17S10081   0.969   5.843   7.889 -3.0169  1.5840 -0.6318
  100SAPS  C21810082   0.860   5.667   7.962  0.6192  0.3049  0.4097
  100SAPS  H18R10083   0.887   5.561   7.941 -1.5766 -0.1089 -0.5427
  100SAPS  H18S10084   0.751   5.678   7.943  0.7088 -2.0487 -2.1244
  100SAPS  C21910085   0.890   5.706   8.107 -1.0110  0.4274  0.3826
  100SAPS  H19R10086   0.838   5.635   8.175 -1.0696  1.0246  0.9674
  100SAPS  H19S10087   0.868   5.813   8.125  1.2894  1.1312 -0.6425
  100SAPS  C22010088   1.038   5.676   8.140  0.3419  0.6162 -0.6806
  100SAPS  H20R10089   1.071   5.575   8.105 -1.5794  0.2250 -1.5167
  100SAPS  H20S10090   1.062   5.670   8.248  3.4798 -0.0636 -1.3112
  100SAPS  H20T10091   1.109   5.745   8.090 -0.5617 -0.0226 -2.9991
  100SAPS   C3310092   1.382   5.930   6.493 -0.1334 -0.1961  0.2913
  100SAPS   H3X10093   1.297   5.990   6.533 -0.6024  0.0349 -1.0139
  100SAPS   H3Y10094   1.460   6.000   6.456 -1.6116  2.0831  1.2275
  100SAPS   C3410095   1.427   5.847   6.619  0.0560  0.3441 -0.1415
  100SAPS   H4X10096   1.500   5.772   6.582 -2.8801 -3.2534  0.7667
  100SAPS   H4Y10097   1.337   5.798   6.662 -1.1466  2.1212 -0.5004
  100SAPS   C3510098   1.489   5.933   6.725 -0.3437 -0.0490 -0.3974
  100SAPS   H5X10099   1.439   6.029   6.752  1.5374  1.9263 -3.3345
  100SAPS   H5Y10100   1.589   5.967   6.690 -1.1434  2.5011 -0.3999
  100SAPS   C3610101   1.506   5.851   6.849 -0.1508 -0.4000 -0.5116
  100SAPS   H6X10102   1.529   5.745   6.823  0.9145 -0.3044 -0.0308
  100SAPS   H6Y10103   1.408   5.843   6.900  1.2584  1.2421  2.7669
  100SAPS   C3710104   1.612   5.908   6.941 -0.5397  0.7955 -0.5533
  100SAPS   H7X10105   1.605   6.018   6.946 -0.9526  0.8047 -1.2035
  100SAPS   H7Y10106   1.710   5.876   6.899 -0.5457  0.9810 -0.7058
  100SAPS   C3810107   1.620   5.843   7.084  0.5906  0.5946  0.1373
  100SAPS   H8X10108   1.715   5.845   7.142  0.3236 -1.1831  0.6974
  100SAPS   H8Y10109   1.598   5.735   7.073  2.5129 -0.1958  2.8126
  100SAPS   C3910110   1.520   5.909   7.182 -0.7630 -0.0212  0.0188
  100SAPS   H9X10111   1.423   5.868   7.148  0.2221 -0.4519 -2.4429
  100SAPS   H9Y10112   1.535   6.015   7.150  0.5979 -0.3618 -0.5630
  100SAPS  C31010113   1.541   5.905   7.341 -0.7284  0.4242  1.3005
  100SAPS  H10X10114   1.455   5.966   7.377 -0.4421  1.1332  0.8034
  100SAPS  H10Y10115   1.630   5.962   7.374 -0.6689 -0.1619  2.2028
  100SAPS  C31110116   1.547   5.758   7.385 -0.5408 -0.3383 -0.1945
  100SAPS  H11X10117   1.636   5.719   7.331  0.2396  0.9784  0.0972
  100SAPS  H11Y10118   1.452   5.705   7.364  0.3655 -2.8224  1.4372
  100SAPS  C31210119   1.584   5.736   7.534  0.0724 -0.0927 -0.5723
  100SAPS  H12X10120   1.664   5.807   7.564 -0.7102  0.8447 -0.6670
  100SAPS  H12Y10121   1.621   5.631   7.539 -2.2193 -0.9009  0.9100
  100SAPS  C31310122   1.460   5.760   7.624  0.1532 -0.6898  0.2463
  100SAPS  H13X10123   1.384   5.703   7.567 -0.3190  0.8704 -0.7431
  100SAPS  H13Y10124   1.441   5.869   7.619  1.5877 -0.4011  0.5711
  100SAPS  C31410125   1.469   5.724   7.775  0.4646 -0.0793 -0.2277
  100SAPS  H14X10126   1.522   5.628   7.790 -1.2362 -1.2076 -1.2275
  100SAPS  H14Y10127   1.367   5.707   7.814 -0.2795  1.5459 -1.3152
  100SAPS  C31510128   1.540   5.835   7.849 -0.3715  0.7198  0.0740
  100SAPS  H15X10129   1.477   5.925   7.861 -0.0202  0.8315  1.1651
  100SAPS  H15Y10130   1.618   5.868   7.776 -1.3646  0.1086 -1.3094
  100SAPS  C31610131   1.606   5.789   7.978  0.5310  0.0664 -0.4326
  100SAPS  H16X10132   1.707   5.744   7.962 -0.3774 -2.0483 -0.5829
  100SAPS  H16Y10133   1.544   5.716   8.035  0.2670 -1.4733 -2.5698
  100SAPS  C31710134   1.638   5.913   8.067 -0.0964  0.4126 -0.9402
  100SAPS  H17X10135   1.551   5.983   8.068 -0.5865 -0.1614  0.9002
  100SAPS  H17Y10136   1.723   5.974   8.030  0.9699  0.2805  1.1854
  100SAPS  C31810137   1.671   5.871   8.211 -0.2687  0.3036 -0.5147
  100SAPS  H18X10138   1.586   5.812   8.251 -0.1135  1.6316  2.0260
  100SAPS  H18Y10139   1.700   5.954   8.279  1.0305  0.4970 -1.2672
  100SAPS  H18Z10140   1.757   5.801   8.214 -0.5094  0.0138  1.5027
  101OSM      N10141   5.643   5.697  10.816  0.6156 -0.1759 -0.2163
  101OSM    C1510142   5.765   5.701  10.903 -0.5936 -0.0404  0.1723
  101OSM   H15A10143   5.806   5.799  10.920  0.1880 -0.9060  4.5062
  101OSM   H15B10144   5.840   5.638  10.858 -3.2407 -1.8784 -1.9940
  101OSM   H15C10145   5.740   5.671  11.003  0.6738  1.4681  0.9818
  101OSM    C1410146   5.534   5.789  10.866 -0.5907  0.1062  0.1081
  101OSM   H14A10147   5.458   5.805  10.791 -0.4671 -1.2008 -0.3262
  101OSM   H14B10148   5.568   5.887  10.893 -0.6214  0.5272 -1.2910
  101OSM   H14C10149   5.483   5.751  10.954  0.3902  0.9894  1.0753
  101OSM    C1310150   5.672   5.752  10.677  0.0747 -0.0215 -0.3954
  101OSM   H13A10151   5.580   5.772  10.622  1.3573  1.5104 -2.1399
  101OSM   H13B10152   5.737   5.682  10.628 -0.7107 -0.9786 -0.1019
  101OSM   H13C10153   5.722   5.848  10.683  0.8638 -0.4387 -0.2675
  101OSM    C1210154   5.597   5.551  10.809 -0.2157  0.0240 -0.1863
  101OSM   H12A10155   5.499   5.542  10.764  0.6714  0.1093 -2.2496
  101OSM   H12B10156   5.596   5.510  10.909 -0.4009 -1.0177 -0.6019
  101OSM    C1110157   5.687   5.444  10.741 -0.2569 -0.0997  0.0493
  101OSM   H11A10158   5.709   5.474  10.636  0.4945  0.4202  0.3456
  101OSM   H11B10159   5.634   5.347  10.729  1.0381 -0.7591 -0.6025
  101OSM      P10160   5.842   5.321  10.909  0.2141  0.2177  0.0174
  101OSM    O1310161   5.944   5.367  11.004 -0.6434 -0.3743 -0.2207
  101OSM    O1410162   5.708   5.288  10.971  0.1628 -0.3179 -0.8458
  101OSM    O1110163   5.893   5.193  10.830 -0.4785 -0.2162 -0.0885
  101OSM    O1210164   5.818   5.432  10.801 -0.3102 -0.4249 -0.2537
  101OSM    C1S10165   5.848   5.163  10.701  0.0215 -0.3379 -0.2850
  101OSM    H1S10166   5.742   5.189  10.682 -0.0316  1.7348  2.2909
  101OSM    H1T10167   5.838   5.052  10.702 -0.6619 -0.2881  1.3093
  101OSM     NF10168   5.876   5.142  10.465  0.4784 -0.3694 -0.3718
  101OSM    HNF10169   5.919   5.068  10.415  1.3992 -1.7821  2.3255
  101OSM    C2S10170   5.937   5.198  10.583  0.2263  0.4532 -0.0619
  101OSM    H2S10171   5.942   5.308  10.570 -1.0863  0.5060 -0.2752
  101OSM    C3S10172   6.080   5.150  10.605 -0.1537 -0.2600  0.5194
  101OSM    H3S10173   6.086   5.040  10.592  4.5487  0.1223 -3.3548
  101OSM     O310174   6.134   5.179  10.733 -0.3365  0.4961  0.0550
  101OSM    HO310175   6.064   5.214  10.787 -0.2786  4.3717 -2.0587
  101OSM    C4S10176   6.172   5.214  10.503 -0.5193 -0.3598  0.1292
  101OSM    H4S10177   6.156   5.321  10.485 -0.8536 -0.5205 -0.5248
  101OSM    C5S10178   6.261   5.149  10.422 -0.7693  0.8626 -0.4273
  101OSM    H5S10179   6.267   5.040  10.426 -3.0936  0.5982 -2.1755
  101OSM    C6S10180   6.353   5.206  10.308  0.6481 -0.0653 -0.5455
  101OSM    H6S10181   6.319   5.174  10.207 -1.5297  0.5287 -0.0632
  101OSM    H6T10182   6.456   5.165  10.321  0.7075  0.6407  1.6780
  101OSM    C7S10183   6.368   5.355  10.305 -0.4211  0.1001  0.4926
  101OSM    H7S10184   6.416   5.378  10.403  0.5967 -0.4605  0.1374
  101OSM    H7T10185   6.273   5.412  10.303 -0.9954 -0.8490 -0.2262
  101OSM    C8S10186   6.446   5.421  10.191 -0.1069 -0.1405  0.8672
  101OSM    H8S10187   6.528   5.352  10.159 -1.1587 -1.9019  1.7943
  101OSM    H8T10188   6.468   5.525  10.223  4.4140 -0.9580  1.1315
  101OSM    C9S10189   6.348   5.438  10.071 -0.4950 -0.1144 -0.0938
  101OSM    H9S10190   6.280   5.523  10.094 -0.8489  0.1259 -1.8879
  101OSM    H9T10191   6.294   5.343  10.050  0.1206 -0.5043  0.0634
  101OSM   C10S10192   6.426   5.471   9.948  0.5296  0.0441  0.2621
  101OSM   H10S10193   6.349   5.460   9.868 -0.0557 -0.0947  0.8412
  101OSM   H10T10194   6.504   5.394   9.930  0.3117 -0.1538  0.1548
  101OSM   C11S10195   6.488   5.609   9.947  0.0451 -0.0366 -0.1053
  101OSM   H11S10196   6.559   5.619  10.032 -1.3019  0.1239  1.0390
  101OSM   H11T10197   6.407   5.682   9.965  0.0364 -0.3783  1.3661
  101OSM   C12S10198   6.564   5.649   9.819 -0.3835  0.3881  0.5640
  101OSM   H12S10199   6.662   5.597   9.824 -1.0074 -1.1658 -1.5597
  101OSM   H12T10200   6.593   5.756   9.808  0.3862  0.0243 -1.3233
  101OSM   C13S10201   6.498   5.598   9.684 -0.3864  0.3364 -0.4622
  101OSM   H13S10202   6.390   5.621   9.694 -0.3765  1.2781 -2.0449
  101OSM   H13T10203   6.507   5.490   9.659  2.2828  0.6639 -1.2892
  101OSM   C14S10204   6.549   5.681   9.569  0.1009 -0.3196  0.3486
  101OSM   H14S10205   6.660   5.673   9.562  0.3643  2.8108 -0.7833
  101OSM   H14T10206   6.538   5.792   9.570 -1.4363 -0.3416 -2.4040
  101OSM   C15S10207   6.498   5.650   9.430 -0.0361  1.0261 -0.2636
  101OSM   H15S10208   6.387   5.650   9.435 -0.0632 -1.4507  0.3822
  101OSM   H15T10209   6.539   5.549   9.408  0.1656  0.9423  0.4438
  101OSM   C16S10210   6.550   5.735   9.316 -0.0182  0.2719  0.1129
  101OSM   H16S10211   6.655   5.708   9.293 -0.4311 -0.8244 -0.5563
  101OSM   H16T10212   6.545   5.843   9.341 -0.4172  0.1021  0.8224
  101OSM   C17S10213   6.461   5.719   9.191  0.1475  0.8555 -0.2436
  101OSM   H17S10214   6.360   5.728   9.237 -0.2108 -3.0309  0.0430
  101OSM   H17T10215   6.470   5.616   9.151  0.3958  0.4474  0.8107
  101OSM   C18S10216   6.484   5.819   9.078  0.6775 -0.0616 -0.8104
  101OSM   H18S10217   6.461   5.924   9.106 -2.2741 -0.4010 -1.6626
  101OSM   H18T10218   6.428   5.789   8.987 -1.4818  1.0501  0.0963
  101OSM   H18U10219   6.593   5.810   9.058  1.0375  0.3846  0.8114
  101OSM    C1F10220   5.757   5.172  10.420  0.3706  0.1614 -0.0785
  101OSM     OF10221   5.695   5.272  10.456  0.3001 -0.5329 -0.2891
  101OSM    C2F10222   5.716   5.094  10.293 -0.4606 -0.0549  0.0010
  101OSM    H2F10223   5.614   5.055  10.311 -0.6817 -0.0039 -1.0948
  101OSM    H2G10224   5.796   5.019  10.274 -1.8628 -1.1850 -1.7442
  101OSM    C3F10225   5.715   5.201  10.176 -0.3338 -0.4437 -0.2012
  101OSM    H3F10226   5.816   5.211  10.130  0.2470  0.0058  1.1207
  101OSM    H3G10227   5.680   5.299  10.214  0.9599 -0.3287  0.7686
  101OSM    C4F10228   5.634   5.163  10.057  0.2965 -0.6920 -0.1414
  101OSM    H4F10229   5.530   5.179  10.092  0.9125  0.2480  1.3702
  101OSM    H4G10230   5.656   5.059  10.026  2.2980  0.0543 -1.4331
  101OSM    C5F10231   5.643   5.251   9.935 -0.0484 -0.6242 -0.8843
  101OSM    H5F10232   5.729   5.322   9.939  2.2258 -3.2383 -0.8032
  101OSM    H5G10233   5.550   5.311   9.928 -0.9955 -1.7230  1.2801
  101OSM    C6F10234   5.658   5.169   9.804  0.2461  0.3119 -0.3518
  101OSM    H6F10235   5.571   5.102   9.793  0.7036 -0.3054 -0.2794
  101OSM    H6G10236   5.754   5.115   9.816 -0.1229 -0.5985 -1.4283
  101OSM    C7F10237   5.674   5.269   9.694  0.0425 -0.0918 -0.3801
  101OSM    H7F10238   5.745   5.345   9.734 -0.7341  0.0577  0.7775
  101OSM    H7G10239   5.572   5.307   9.673 -0.4341 -2.0434 -1.9717
  101OSM    C8F10240   5.729   5.202   9.563 -0.7121 -0.4602 -0.2046
  101OSM    H8F10241   5.653   5.127   9.533 -0.3146 -0.1476 -2.1512
  101OSM    H8G10242   5.813   5.139   9.600 -1.3012  0.7193  3.4809
  101OSM    C9F10243   5.768   5.307   9.456  0.7195  0.4008  0.1239
  101OSM    H9F10244   5.832   5.382   9.504  0.2949 -0.4686  2.1121
  101OSM   C10F10245   5.744   5.313   9.327  0.4581  0.5347  0.5934
  101OSM   H10F10246   5.770   5.401   9.266  0.0480  0.8298  0.8373
  101OSM   C11F10247   5.649   5.214   9.257 -0.3513  0.2777  0.5097
  101OSM   H11F10248   5.586   5.272   9.187  1.6202  1.4065 -0.4060
  101OSM   H11G10249   5.577   5.176   9.332 -0.2961  2.1323  1.5523
  101OSM   C12F10250   5.731   5.099   9.192  0.0222  0.4733  0.8367
  101OSM   H12F10251   5.664   5.018   9.159  0.4857  0.1771  0.6087
  101OSM   H12G10252   5.793   5.050   9.270  0.3861  1.3798  1.1313
  101OSM   C13F10253   5.827   5.131   9.081 -0.2368 -0.0695  0.4538
  101OSM   H13F10254   5.901   5.050   9.067  1.3650  1.6348 -1.7047
  101OSM   H13G10255   5.876   5.224   9.117  0.3045 -0.6675  1.2976
  101OSM   C14F10256   5.759   5.152   8.950 -0.0204 -0.0097  0.8091
  101OSM   H14F10257   5.659   5.200   8.957 -0.0304 -0.0371  0.8552
  101OSM   H14G10258   5.755   5.066   8.880  3.2779 -0.2754  0.7913
  101OSM   C15F10259   5.835   5.266   8.867 -0.5426  0.2245  0.6631
  101OSM   H15F10260   5.936   5.233   8.834 -0.5458  1.9378 -1.2484
  101OSM   H15G10261   5.855   5.354   8.932  1.6725  0.3962 -0.1423
  101OSM   C16F10262   5.750   5.322   8.744 -0.3468  0.9013 -0.5492
  101OSM   H16F10263   5.690   5.410   8.777  0.6937  1.7356 -0.8397
  101OSM   H16G10264   5.685   5.240   8.705 -0.0792  0.3681  0.1023
  101OSM   C17F10265   5.841   5.370   8.623  0.3823 -0.4414  0.5548
  101OSM   H17F10266   5.879   5.279   8.571 -1.5928 -1.6136  1.0534
  101OSM   H17G10267   5.923   5.427   8.671  0.9781  2.0653 -3.0485
  101OSM   C18F10268   5.767   5.442   8.503  0.1944  0.4685  0.1861
  101OSM   H18F10269   5.733   5.541   8.540 -4.2567 -1.2352  1.3975
  101OSM   H18G10270   5.675   5.394   8.462 -0.0702  2.7365 -2.1276
  101OSM   H18H10271   5.832   5.457   8.414 -1.1909 -0.4774 -1.0427
  102OSM      N10272   4.673   5.053  11.049  0.8650 -0.3185  1.1208
  102OSM    C1510273   4.560   4.952  11.048 -0.5144 -0.3362  0.0858
  102OSM   H15A10274   4.527   4.944  11.150 -0.0112  1.9060  0.4726
  102OSM   H15B10275   4.587   4.858  11.002 -0.4478  0.1094 -0.8110
  102OSM   H15C10276   4.474   4.986  10.993  0.1256 -0.9792 -1.3695
  102OSM    C1410277   4.617   5.176  11.114 -0.1089 -0.0830  0.5370
  102OSM   H14A10278   4.674   5.267  11.118 -2.3618  1.4237  0.3831
  102OSM   H14B10279   4.590   5.155  11.217 -1.7096 -1.5557 -0.1432
  102OSM   H14C10280   4.527   5.209  11.064 -0.3733  0.1997  1.1845
  102OSM    C1310281   4.792   5.013  11.129  0.2967  0.2735  0.2197
  102OSM   H13A10282   4.857   5.098  11.142  1.2175 -0.2351 -0.8868
  102OSM   H13B10283   4.856   4.932  11.096  2.2131  0.1695  3.6874
  102OSM   H13C10284   4.753   4.979  11.224 -0.1593 -0.7566 -0.3240
  102OSM    C1210285   4.712   5.078  10.906  0.2339 -0.1543 -0.4538
  102OSM   H12A10286   4.783   5.159  10.906 -0.5634  0.5711 -0.6994
  102OSM   H12B10287   4.627   5.122  10.854 -0.2899  0.1837  0.6634
  102OSM    C1110288   4.771   4.954  10.832 -1.3979 -0.1587 -0.6661
  102OSM   H11A10289   4.864   4.912  10.876  0.9942  4.0921 -1.0682
  102OSM   H11B10290   4.816   4.987  10.736 -0.1498  0.2138  0.0290
  102OSM      P10291   4.578   4.863  10.695  0.3530 -0.0487  0.0697
  102OSM    O1310292   4.497   4.743  10.674  0.2117  0.1087 -0.3555
  102OSM    O1410293   4.490   4.982  10.710 -0.7388 -0.1878 -0.5068
  102OSM    O1110294   4.684   4.882  10.578  0.2008  0.3132 -0.1234
  102OSM    O1210295   4.675   4.846  10.815 -0.0069  0.1727 -0.3795
  102OSM    C1S10296   4.651   4.850  10.442 -0.6490  0.2116  0.2169
  102OSM    H1S10297   4.591   4.935  10.404  0.4782  1.6988  1.6129
  102OSM    H1T10298   4.590   4.758  10.430 -1.7062  0.2224  4.1297
  102OSM     NF10299   4.728   4.787  10.223 -0.4667 -0.2993  0.0732
  102OSM    HNF10300   4.735   4.690  10.203 -1.8366 -0.4120  0.0599
  102OSM    C2S10301   4.770   4.841  10.348  0.3034  0.3245 -0.2010
  102OSM    H2S10302   4.811   4.942  10.329 -1.2332  0.5932 -2.4974
  102OSM    C3S10303   4.886   4.763  10.422  0.0616  0.5708  0.4354
  102OSM    H3S10304   4.849   4.662  10.451  1.7293 -0.3411 -0.4408
  102OSM     O310305   4.937   4.825  10.539  0.3745 -0.4581 -0.1235
  102OSM    HO310306   4.858   4.877  10.559  0.9421 -0.3811  2.1866
  102OSM    C4S10307   4.998   4.747  10.324 -0.7922  0.6406 -0.5891
  102OSM    H4S10308   4.999   4.648  10.277  0.6891  0.1561  0.3891
  102OSM    C5S10309   5.088   4.847  10.287 -0.4728 -0.4795  0.2433
  102OSM    H5S10310   5.096   4.947  10.331  1.6732  0.1581 -1.4333
  102OSM    C6S10311   5.186   4.835  10.174 -1.0439  0.3403 -0.3975
  102OSM    H6S10312   5.207   4.726  10.168 -0.7372  0.2071  2.0344
  102OSM    H6T10313   5.279   4.891  10.200 -0.8519 -0.9390  1.9895
  102OSM    C7S10314   5.129   4.895  10.046  0.4797  0.1244  0.5911
  102OSM    H7S10315   5.091   4.997  10.068  0.8951  0.3884  0.0981
  102OSM    H7T10316   5.039   4.834  10.023  1.6123 -1.4575  0.1829
  102OSM    C8S10317   5.225   4.901   9.913 -0.7351 -0.5043 -0.7890
  102OSM    H8S10318   5.289   4.810   9.916  0.1520  0.0362 -2.2071
  102OSM    H8T10319   5.290   4.991   9.910 -0.4154 -0.5448  2.1183
  102OSM    C9S10320   5.147   4.896   9.785  0.6336  0.2420 -0.0393
  102OSM    H9S10321   5.080   4.984   9.780 -1.5917 -1.2961  0.9724
  102OSM    H9T10322   5.078   4.809   9.779 -0.2551  0.7817  1.7159
  102OSM   C10S10323   5.240   4.896   9.668  0.1431 -0.5656  0.2067
  102OSM   H10S10324   5.315   4.816   9.684  2.4430  1.7187  1.7642
  102OSM   H10T10325   5.296   4.991   9.686  0.4718 -0.9477  1.2422
  102OSM   C11S10326   5.167   4.914   9.537 -0.6709  0.6140  0.2449
  102OSM   H11S10327   5.131   5.019   9.527 -0.4784  0.5222 -2.1129
  102OSM   H11T10328   5.086   4.840   9.523 -0.6864  0.8376 -1.0036
  102OSM   C12S10329   5.255   4.887   9.416 -0.5618 -0.4487 -0.6360
  102OSM   H12S10330   5.301   4.786   9.424 -0.9882 -0.9023 -3.0076
  102OSM   H12T10331   5.330   4.969   9.418 -0.8666 -0.1423  2.2575
  102OSM   C13S10332   5.181   4.874   9.278 -0.8857  0.0791  0.0949
  102OSM   H13S10333   5.108   4.958   9.273  0.7447  1.5733 -0.0313
  102OSM   H13T10334   5.117   4.784   9.268 -0.4562 -0.0562 -1.7787
  102OSM   C14S10335   5.289   4.886   9.172 -0.2084  0.6611 -0.0965
  102OSM   H14S10336   5.368   4.808   9.174  1.7526  2.5659  1.6615
  102OSM   H14T10337   5.346   4.977   9.201  2.1092 -1.4068  2.4469
  102OSM   C15S10338   5.232   4.906   9.029  0.2838  0.4148 -0.0403
  102OSM   H15S10339   5.138   4.964   9.041  0.2994  0.7555 -1.3586
  102OSM   H15T10340   5.191   4.812   8.985 -1.8826  1.6665 -0.9025
  102OSM   C16S10341   5.325   4.970   8.927 -0.1631 -0.0237 -0.1976
  102OSM   H16S10342   5.398   4.897   8.885 -0.0122  0.7115 -1.2674
  102OSM   H16T10343   5.372   5.061   8.969 -2.3251  0.8532  0.4588
  102OSM   C17S10344   5.255   5.022   8.807 -0.2764  0.1784  0.2746
  102OSM   H17S10345   5.187   5.103   8.841 -0.5890 -0.3335  0.9065
  102OSM   H17T10346   5.207   4.939   8.751  0.2351 -0.3195  0.5597
  102OSM   C18S10347   5.346   5.092   8.710 -0.3367 -0.3759  0.6250
  102OSM   H18S10348   5.434   5.029   8.684 -1.3258 -1.1344 -1.0175
  102OSM   H18T10349   5.389   5.186   8.750 -1.2854  0.1435  0.4661
  102OSM   H18U10350   5.292   5.112   8.615 -1.9126 -0.3575  1.4797
  102OSM    C1F10351   4.663   4.856  10.137  0.0412  0.3623 -0.6499
  102OSM     OF10352   4.637   4.974  10.165 -0.5723 -0.2337  0.2687
  102OSM    C2F10353   4.613   4.789  10.010  0.1503  0.6298  0.4720
  102OSM    H2F10354   4.562   4.695  10.041  2.7989 -1.2401 -0.4566
  102OSM    H2G10355   4.708   4.765   9.958  1.1244  0.4979  2.2095
  102OSM    C3F10356   4.517   4.879   9.931  0.2627 -0.3517  0.6887
  102OSM    H3F10357   4.574   4.961   9.883 -2.4010  0.4409 -1.3382
  102OSM    H3G10358   4.442   4.923  10.000  1.8128  3.0690  0.3783
  102OSM    C4F10359   4.417   4.813   9.830  0.3957  0.3910 -0.1045
  102OSM    H4F10360   4.367   4.897   9.778 -0.2171 -0.0944 -0.3133
  102OSM    H4G10361   4.347   4.749   9.888  0.7819  0.7459  0.7845
  102OSM    C5F10362   4.490   4.731   9.721  0.8081  0.1195 -0.1571
  102OSM    H5F10363   4.547   4.654   9.778  1.0543 -0.9259 -1.7383
  102OSM    H5G10364   4.561   4.801   9.673  0.2291  0.8237 -0.0008
  102OSM    C6F10365   4.408   4.653   9.621 -0.3473 -0.0239  0.7928
  102OSM    H6F10366   4.336   4.581   9.665 -1.5125  1.2991  1.1187
  102OSM    H6G10367   4.477   4.582   9.571 -0.3432  0.1835  0.5060
  102OSM    C7F10368   4.317   4.745   9.531 -0.9463 -0.0878  0.7458
  102OSM    H7F10369   4.237   4.781   9.599  0.5444 -0.6059  2.8809
  102OSM    H7G10370   4.270   4.678   9.456  0.2425 -1.4465  1.1593
  102OSM    C8F10371   4.390   4.861   9.463 -0.1922  0.2728 -0.2498
  102OSM    H8F10372   4.447   4.923   9.536 -1.4601  1.8200 -0.5261
  102OSM    H8G10373   4.316   4.937   9.431 -0.5555  0.2575  0.5326
  102OSM    C9F10374   4.498   4.823   9.362  0.6913 -0.0745  0.2247
  102OSM    H9F10375   4.566   4.750   9.408 -0.4652 -2.7018 -1.9881
  102OSM   C10F10376   4.501   4.849   9.228  0.5080  0.9925 -0.1989
  102OSM   H10F10377   4.581   4.812   9.162  0.1939  1.9500 -1.1317
  102OSM   C11F10378   4.403   4.935   9.147 -0.2724  0.8663  0.2182
  102OSM   H11F10379   4.300   4.938   9.188 -1.5148 -0.1216 -2.5916
  102OSM   H11G10380   4.396   4.887   9.047 -1.1023 -0.5305  0.9180
  102OSM   C12F10381   4.461   5.077   9.119  0.0114 -0.1767  0.6715
  102OSM   H12F10382   4.566   5.068   9.084  0.2191 -3.7538  1.7591
  102OSM   H12G10383   4.468   5.139   9.211 -0.0444 -1.1694  1.3616
  102OSM   C13F10384   4.373   5.153   9.017  0.4288  0.2526  0.6695
  102OSM   H13F10385   4.274   5.159   9.066  0.6848  3.4484  1.0223
  102OSM   H13G10386   4.365   5.089   8.926  0.3707 -0.4967  1.1917
  102OSM   C14F10387   4.415   5.296   8.993  0.6046 -0.0482  0.1029
  102OSM   H14F10388   4.516   5.298   8.946  0.6120 -1.0804  0.0619
  102OSM   H14G10389   4.432   5.339   9.094  1.5080  0.1993 -0.1396
  102OSM   C15F10390   4.310   5.383   8.921  0.0491 -0.0311 -0.2674
  102OSM   H15F10391   4.210   5.352   8.958 -1.1392  3.8753  0.2233
  102OSM   H15G10392   4.311   5.374   8.810  0.9939  0.9113 -0.3470
  102OSM   C16F10393   4.328   5.529   8.962  0.5130  0.5874 -0.0735
  102OSM   H16F10394   4.415   5.569   8.907  0.7757 -1.6484 -1.4123
  102OSM   H16G10395   4.354   5.529   9.070 -1.4240  1.2741  0.4431
  102OSM   C17F10396   4.214   5.624   8.926  1.0408 -0.4847 -0.1719
  102OSM   H17F10397   4.131   5.607   8.998 -0.5626  0.6638 -1.6597
  102OSM   H17G10398   4.179   5.593   8.825  0.2449  0.0016 -0.0623
  102OSM   C18F10399   4.232   5.779   8.912 -0.2412  0.2064 -0.1109
  102OSM   H18F10400   4.130   5.821   8.919  0.3095  1.5860  0.0712
  102OSM   H18G10401   4.282   5.818   8.821  2.9178  1.2975  1.8850
  102OSM   H18H10402   4.290   5.811   9.002 -1.1691 -0.4759  0.7479
  103OSM      N10403   1.901   0.672  10.619 -0.2312  0.2319 -0.3758
  103OSM    C1510404   2.042   0.633  10.606 -1.0462 -0.5602  0.3105
  103OSM   H15A10405   2.096   0.709  10.552  0.5058 -0.6321  1.6620
  103OSM   H15B10406   2.041   0.549  10.538  1.4882  0.5318 -1.2269
  103OSM   H15C10407   2.096   0.629  10.700 -1.9673 -0.1349  0.8671
  103OSM    C1410408   1.848   0.669  10.475 -0.0221 -0.0685 -1.3044
  103OSM   H14A10409   1.923   0.715  10.412 -1.4209  1.8903 -1.6750
  103OSM   H14B10410   1.750   0.715  10.466 -0.0588 -0.0224 -0.7423
  103OSM   H14C10411   1.829   0.569  10.439 -0.0127 -0.4741 -0.2062
  103OSM    C1310412   1.830   0.554  10.687 -0.4749  0.1477  0.2669
  103OSM   H13A10413   1.724   0.571  10.684 -0.6513 -0.9121 -2.5268
  103OSM   H13B10414   1.858   0.553  10.791 -2.2600  1.0641  0.7856
  103OSM   H13C10415   1.851   0.455  10.649 -1.4488 -0.5804  1.5546
  103OSM    C1210416   1.889   0.805  10.693  0.2665 -0.4897 -0.0160
  103OSM   H12A10417   1.953   0.872  10.637  0.0052 -0.2518 -0.0274
  103OSM   H12B10418   1.925   0.796  10.794 -0.5167  1.5511  0.4783
  103OSM    C1110419   1.743   0.874  10.706  0.5331 -0.1080  0.7832
  103OSM   H11A10420   1.725   0.907  10.602 -0.9310 -0.8558  0.7688
  103OSM   H11B10421   1.746   0.964  10.771  2.0386 -1.6435  2.9923
  103OSM      P10422   1.498   0.768  10.702 -0.2169  0.3110 -0.2626
  103OSM    O1310423   1.454   0.631  10.735 -0.2118 -0.1313  0.2303
  103OSM    O1410424   1.417   0.877  10.754 -0.1281  0.2326  0.1566
  103OSM    O1110425   1.527   0.786  10.550  0.2612  0.4967  0.2779
  103OSM    O1210426   1.644   0.785  10.759  0.8650  0.0933 -0.5516
  103OSM    C1S10427   1.489   0.905  10.481  0.2002 -0.1551 -0.0072
  103OSM    H1S10428   1.557   0.989  10.503  0.3755  0.3007 -2.0671
  103OSM    H1T10429   1.386   0.942  10.499  1.0043  1.2291  2.0326
  103OSM     NF10430   1.492   1.012  10.260 -0.2775  0.0875 -0.0879
  103OSM    HNF10431   1.399   1.030  10.228 -1.0630  0.6175  2.2893
  103OSM    C2S10432   1.506   0.885  10.328 -0.2505 -0.0341 -0.0965
  103OSM    H2S10433   1.610   0.849  10.315  1.0823  2.8065  1.6062
  103OSM    C3S10434   1.407   0.777  10.275  0.0262 -0.3986  0.6282
  103OSM    H3S10435   1.307   0.821  10.295 -1.1428 -0.6396 -3.7262
  103OSM     O310436   1.408   0.654  10.352 -0.5165 -0.0543  0.4654
  103OSM    HO310437   1.452   0.673  10.436  0.9322 -2.6588  0.3949
  103OSM    C4S10438   1.430   0.752  10.130  0.1702 -0.7518  0.1879
  103OSM    H4S10439   1.536   0.732  10.108  0.5457  0.4548  0.8020
  103OSM    C5S10440   1.347   0.778  10.029 -0.4772 -0.1346  0.4309
  103OSM    H5S10441   1.246   0.815  10.051  0.8445  3.3205  1.3592
  103OSM    C6S10442   1.371   0.756   9.883  0.4197 -0.9266  0.1378
  103OSM    H6S10443   1.299   0.682   9.841  1.0437 -0.3373 -2.1386
  103OSM    H6T10444   1.474   0.717   9.875  1.4506  1.3224  1.7047
  103OSM    C7S10445   1.372   0.899   9.828  0.6669 -0.6283 -0.0745
  103OSM    H7S10446   1.446   0.963   9.881  1.4334 -2.4531  1.1784
  103OSM    H7T10447   1.277   0.953   9.849  0.1364 -1.2160 -0.8953
  103OSM    C8S10448   1.384   0.903   9.677  0.2505 -0.1861 -0.2658
  103OSM    H8S10449   1.478   0.854   9.644  0.6326 -0.2980  0.9468
  103OSM    H8T10450   1.378   1.007   9.637  2.7077  0.0784 -0.1121
  103OSM    C9S10451   1.271   0.826   9.604 -1.0505  0.2099 -0.2523
  103OSM    H9S10452   1.169   0.868   9.622 -1.0303 -0.4689  1.7890
  103OSM    H9T10453   1.278   0.718   9.631 -0.7346  0.8094  2.3530
  103OSM   C10S10454   1.295   0.814   9.454  0.1301 -0.2758 -0.6743
  103OSM   H10S10455   1.392   0.762   9.437  1.6508  2.2213 -0.1918
  103OSM   H10T10456   1.308   0.918   9.416  1.2320  0.0873  0.6422
  103OSM   C11S10457   1.172   0.767   9.385  0.4260  0.2508 -0.3405
  103OSM   H11S10458   1.086   0.829   9.417  0.6079  0.3659 -0.0746
  103OSM   H11T10459   1.146   0.667   9.426  1.1702  1.1699  2.5875
  103OSM   C12S10460   1.189   0.781   9.233  0.2965  0.3034 -0.2331
  103OSM   H12S10461   1.241   0.875   9.204 -1.2311  1.0981 -0.5327
  103OSM   H12T10462   1.089   0.775   9.185  0.4807  1.0619 -0.7459
  103OSM   C13S10463   1.269   0.656   9.187  0.5508 -0.0702  0.3085
  103OSM   H13S10464   1.235   0.563   9.238 -1.1194  0.5594  0.3855
  103OSM   H13T10465   1.376   0.661   9.218  0.5097  0.5432  0.3592
  103OSM   C14S10466   1.264   0.637   9.038  0.1108  0.2265 -0.6284
  103OSM   H14S10467   1.157   0.620   9.016 -0.4579  1.8293  0.6430
  103OSM   H14T10468   1.325   0.549   9.011  0.8251 -0.4198  2.6101
  103OSM   C15S10469   1.320   0.747   8.936 -0.1761 -0.3082 -0.2047
  103OSM   H15S10470   1.420   0.788   8.963  1.4961 -2.8511 -2.1562
  103OSM   H15T10471   1.244   0.828   8.935 -1.6224 -1.6282 -0.5568
  103OSM   C16S10472   1.322   0.694   8.794  0.1940 -0.2037  0.2959
  103OSM   H16S10473   1.223   0.658   8.759 -0.3213  0.9368  0.5477
  103OSM   H16T10474   1.400   0.615   8.789  1.1577  0.3928  3.5494
  103OSM   C17S10475   1.364   0.804   8.699 -0.7255  0.1492 -0.2654
  103OSM   H17S10476   1.458   0.846   8.740 -1.1712  0.4541  0.4496
  103OSM   H17T10477   1.289   0.885   8.712 -2.0418 -1.2842  1.7021
  103OSM   C18S10478   1.373   0.758   8.551  0.0664  0.3163 -0.0680
  103OSM   H18S10479   1.270   0.741   8.513  0.6305 -1.6756 -0.8070
  103OSM   H18T10480   1.412   0.654   8.554 -0.7970 -0.0259 -0.2886
  103OSM   H18U10481   1.418   0.831   8.480 -3.0371  1.6042 -0.8916
  103OSM    C1F10482   1.576   1.112  10.259  0.2573  0.5775  0.2810
  103OSM     OF10483   1.688   1.093  10.310 -0.1256 -0.2982 -0.0368
  103OSM    C2F10484   1.532   1.244  10.197 -0.2157 -0.2140 -0.3569
  103OSM    H2F10485   1.491   1.313  10.275  0.5544  2.2462 -2.0183
  103OSM    H2G10486   1.444   1.218  10.134  0.2240 -2.4224 -0.1532
  103OSM    C3F10487   1.644   1.315  10.116 -0.1482  0.0718 -0.4394
  103OSM    H3F10488   1.728   1.312  10.189 -0.6067 -1.7265  0.0557
  103OSM    H3G10489   1.629   1.424  10.107 -0.8530  0.1089  0.9769
  103OSM    C4F10490   1.691   1.250   9.982  0.8402  0.6811 -0.9097
  103OSM    H4F10491   1.667   1.141   9.984 -0.1377  0.8819  1.4891
  103OSM    H4G10492   1.802   1.255   9.983  0.9394 -0.8808  0.2809
  103OSM    C5F10493   1.625   1.327   9.869  0.5443  0.2045 -0.0883
  103OSM    H5F10494   1.661   1.432   9.867 -0.8507  0.6876 -1.0797
  103OSM    H5G10495   1.518   1.328   9.899  0.0746  1.5918 -1.6591
  103OSM    C6F10496   1.642   1.255   9.733 -0.5470  0.4309 -0.4142
  103OSM    H6F10497   1.613   1.148   9.728  0.8692  0.0306 -0.6123
  103OSM    H6G10498   1.746   1.260   9.694  0.4037 -1.3232  1.6625
  103OSM    C7F10499   1.554   1.318   9.632  0.5497 -0.2395  0.2295
  103OSM    H7F10500   1.567   1.427   9.653  0.7722 -0.2769  0.2896
  103OSM    H7G10501   1.445   1.313   9.649  0.2603  3.1400  0.1796
  103OSM    C8F10502   1.596   1.293   9.480 -0.2480  0.6577 -0.2666
  103OSM    H8F10503   1.694   1.340   9.456 -1.0594  2.7046  0.1350
  103OSM    H8G10504   1.515   1.335   9.417 -2.0120 -3.2119 -0.8451
  103OSM    C9F10505   1.600   1.148   9.443 -0.3044  0.0540 -0.4449
  103OSM    H9F10506   1.677   1.089   9.494 -1.4933 -1.1819 -0.0369
  103OSM   C10F10507   1.533   1.088   9.346 -0.0502  0.4849  0.4815
  103OSM   H10F10508   1.548   0.981   9.329 -0.5328  0.4798  0.0572
  103OSM   C11F10509   1.427   1.139   9.250 -0.3444 -0.0744 -0.3020
  103OSM   H11F10510   1.382   1.229   9.296  0.9857  0.8626 -0.7741
  103OSM   H11G10511   1.356   1.054   9.245  0.9853 -1.2769  0.5841
  103OSM   C12F10512   1.480   1.164   9.105  1.0772 -0.0645 -0.5189
  103OSM   H12F10513   1.545   1.254   9.113 -1.5367  1.9776 -0.7852
  103OSM   H12G10514   1.398   1.201   9.040  0.9266  0.5733  0.0262
  103OSM   C13F10515   1.547   1.044   9.037 -0.1064  0.0999  0.2128
  103OSM   H13F10516   1.576   0.954   9.094  2.3460 -2.5051 -4.5688
  103OSM   H13G10517   1.466   1.004   8.973 -1.0412  1.1141  0.7262
  103OSM   C14F10518   1.662   1.090   8.945 -0.5057  0.0780  0.2849
  103OSM   H14F10519   1.734   1.143   9.011 -1.2303  2.5310 -0.7350
  103OSM   H14G10520   1.598   1.155   8.880 -2.6264 -1.8710  0.2913
  103OSM   C15F10521   1.724   0.978   8.852 -0.3385 -0.3182 -0.1237
  103OSM   H15F10522   1.634   0.931   8.808 -1.2099  1.5976 -0.4719
  103OSM   H15G10523   1.784   0.913   8.919 -1.7005 -1.9410 -0.4237
  103OSM   C16F10524   1.815   1.041   8.740 -0.7531  0.3461 -0.4185
  103OSM   H16F10525   1.907   1.072   8.795 -0.5102 -0.0393 -0.6025
  103OSM   H16G10526   1.776   1.140   8.709 -0.9669  0.0629 -1.0759
  103OSM   C17F10527   1.829   0.958   8.615  0.5637 -0.8726  0.3471
  103OSM   H17F10528   1.868   0.855   8.633  0.5147 -1.5008 -2.6353
  103OSM   H17G10529   1.898   1.012   8.547  0.4798  0.1070  1.0271
  103OSM   C18F10530   1.703   0.928   8.529  0.3163 -0.3697 -0.0334
  103OSM   H18F10531   1.631   0.854   8.572 -2.0473  1.3020 -0.8836
  103OSM   H18G10532   1.739   0.893   8.430  0.6014 -0.6595  0.1694
  103OSM   H18H10533   1.643   1.019   8.508  0.4244 -0.6602 -1.8259
  104OSM      N10534   5.597   0.828  10.798 -0.1212  0.3507 -0.4283
  104OSM    C1510535   5.606   0.685  10.818 -0.1641  0.0550  0.3386
  104OSM   H15A10536   5.620   0.631  10.726 -0.4272 -2.6735  1.8099
  104OSM   H15B10537   5.514   0.647  10.858  0.4261 -0.7750  0.9352
  104OSM   H15C10538   5.689   0.658  10.882  2.0390 -0.7085 -2.6139
  104OSM    C1410539   5.526   0.895  10.908 -0.2054 -0.0168  0.0315
  104OSM   H14A10540   5.419   0.879  10.910 -0.2364  0.0718 -0.6037
  104OSM   H14B10541   5.529   1.002  10.899  1.7190 -0.1642 -2.0647
  104OSM   H14C10542   5.563   0.859  11.003  0.5376 -0.7843 -0.5298
  104OSM    C1310543   5.734   0.891  10.793 -0.9386 -0.4114  0.5210
  104OSM   H13A10544   5.733   0.996  10.765  0.6834 -0.6069 -0.3594
  104OSM   H13B10545   5.804   0.844  10.726 -0.6480  1.8453 -0.8637
  104OSM   H13C10546   5.771   0.889  10.894  0.3616 -0.7822  0.0497
  104OSM    C1210547   5.526   0.868  10.666  0.0622  0.2584 -0.0631
  104OSM   H12A10548   5.594   0.852  10.584  1.8365  0.8908  1.2172
  104OSM   H12B10549   5.508   0.974  10.678 -1.0937 -0.0317  1.0228
  104OSM    C1110550   5.396   0.788  10.640  0.3989  0.9068  0.2800
  104OSM   H11A10551   5.423   0.681  10.627  1.1138  1.0480  0.5873
  104OSM   H11B10552   5.342   0.813  10.545  0.2552 -3.0175 -0.8489
  104OSM      P10553   5.216   0.692  10.807  0.5768  0.2096  0.3200
  104OSM    O1310554   5.311   0.605  10.879 -0.5424 -0.0640  0.0652
  104OSM    O1410555   5.103   0.739  10.887 -1.0643 -0.4848 -0.5314
  104OSM    O1110556   5.161   0.628  10.678  0.1298 -0.5628  0.8936
  104OSM    O1210557   5.303   0.815  10.741 -0.0933  0.5902  0.5847
  104OSM    C1S10558   5.054   0.701  10.611 -0.3981  0.1778  0.3884
  104OSM    H1S10559   5.082   0.805  10.587  1.0669 -0.3773 -0.4015
  104OSM    H1T10560   4.956   0.693  10.664 -0.6177  0.8631  0.0970
  104OSM     NF10561   4.952   0.724  10.385  0.2476 -0.3876  0.1928
  104OSM    HNF10562   4.863   0.698  10.350  1.8108 -1.5981 -3.4468
  104OSM    C2S10563   5.029   0.637  10.471  0.3055 -0.2521 -0.2234
  104OSM    H2S10564   5.131   0.623  10.428  1.0822  1.5821  0.9118
  104OSM    C3S10565   4.969   0.499  10.489 -0.1520  0.3317 -0.3985
  104OSM    H3S10566   4.861   0.513  10.508 -0.6888 -2.0254 -1.4041
  104OSM     O310567   4.999   0.433  10.614 -0.5488 -0.1969  0.3891
  104OSM    HO310568   5.068   0.483  10.658  2.1507 -3.2510 -0.0173
  104OSM    C4S10569   4.988   0.416  10.363 -0.1153 -0.3702 -0.0864
  104OSM    H4S10570   4.922   0.436  10.277  2.1030  2.3679 -1.3333
  104OSM    C5S10571   5.093   0.344  10.340 -0.7457 -0.0515 -0.1500
  104OSM    H5S10572   5.175   0.348  10.414  1.3112  0.4202 -2.3137
  104OSM    C6S10573   5.133   0.270  10.220 -0.1590  0.1783 -0.0542
  104OSM    H6S10574   5.128   0.161  10.243  0.6992  0.4083  1.3603
  104OSM    H6T10575   5.242   0.287  10.209  0.0940 -0.1529  1.6327
  104OSM    C7S10576   5.052   0.291  10.089  0.0613  0.5731  0.0355
  104OSM    H7S10577   5.054   0.397  10.054 -1.2259  0.7685  0.5009
  104OSM    H7T10578   4.946   0.267  10.107  0.2539 -1.0537 -0.8419
  104OSM    C8S10579   5.100   0.205   9.973 -1.1303 -0.0981  0.3551
  104OSM    H8S10580   5.105   0.095   9.989  0.1952  0.1097  1.5882
  104OSM    H8T10581   5.206   0.235   9.965 -1.4965  1.7360  1.6698
  104OSM    C9S10582   5.039   0.236   9.837 -0.5210  0.5012  0.7907
  104OSM    H9S10583   5.032   0.346   9.819 -1.5369  0.4524  0.8277
  104OSM    H9T10584   4.933   0.202   9.832  0.5789 -3.1590 -0.5856
  104OSM   C10S10585   5.098   0.162   9.717  0.3923 -0.2251 -0.9550
  104OSM   H10S10586   5.094   0.053   9.741 -1.2417  0.1555  0.6885
  104OSM   H10T10587   5.205   0.186   9.699 -0.2575  2.1807 -1.9286
  104OSM   C11S10588   5.027   0.184   9.578  0.9539 -0.2520  0.0768
  104OSM   H11S10589   5.100   0.170   9.495 -1.6565  0.2418 -2.4798
  104OSM   H11T10590   4.982   0.285   9.571 -0.8152 -0.9034  1.3933
  104OSM   C12S10591   4.905   0.091   9.557  0.3375 -0.0538 -0.0267
  104OSM   H12S10592   4.827   0.121   9.630  0.3153 -0.5362  0.1493
  104OSM   H12T10593   4.934  -0.016   9.565 -0.6579 -0.4450 -1.2482
  104OSM   C13S10594   4.852   0.108   9.415  1.1099  0.4987  0.7590
  104OSM   H13S10595   4.852   0.214   9.382 -2.7363  0.1293 -0.8960
  104OSM   H13T10596   4.745   0.081   9.404  1.1004  1.3048 -1.6105
  104OSM   C14S10597   4.924   0.033   9.306  0.3374  0.3020 -0.0086
  104OSM   H14S10598   4.881  -0.068   9.297  0.4512  0.1636  0.9333
  104OSM   H14T10599   5.031   0.016   9.333  0.1338 -0.8711  0.0883
  104OSM   C15S10600   4.912   0.111   9.175  0.1204 -0.2253 -0.2053
  104OSM   H15S10601   4.968   0.207   9.177  1.3024 -0.8326 -1.9559
  104OSM   H15T10602   4.806   0.131   9.150 -0.8035 -1.1940  2.6273
  104OSM   C16S10603   4.980   0.040   9.056 -0.3683  0.6035 -0.3108
  104OSM   H16S10604   4.937  -0.060   9.034  0.0962  0.3725 -0.1561
  104OSM   H16T10605   5.088   0.030   9.080  0.4861  0.6826 -3.6439
  104OSM   C17S10606   4.967   0.106   8.920 -0.1750 -0.1421  0.2500
  104OSM   H17S10607   4.862   0.139   8.912 -0.0311 -0.1580 -2.6809
  104OSM   H17T10608   4.986   0.034   8.838 -1.0379 -0.9385  0.7454
  104OSM   C18S10609   5.054   0.227   8.892 -0.4032 -0.1512  0.4661
  104OSM   H18S10610   5.006   0.315   8.939 -2.2402  0.2222 -1.9099
  104OSM   H18T10611   5.075   0.249   8.785 -0.8139  1.2611  0.6588
  104OSM   H18U10612   5.150   0.201   8.940  0.2344 -1.0451 -1.1940
  104OSM    C1F10613   4.992   0.827  10.316  0.3916 -0.5198 -0.4548
  104OSM     OF10614   5.110   0.854  10.318  0.1378  0.8240 -0.0865
  104OSM    C2F10615   4.900   0.914  10.239  0.8301 -0.8271  0.2162
  104OSM    H2F10616   4.884   1.001  10.306  2.6795  2.1372 -2.9087
  104OSM    H2G10617   4.802   0.864  10.223  1.5845 -3.1793  2.2333
  104OSM    C3F10618   4.970   0.966  10.115 -0.5017 -0.0315  0.4650
  104OSM    H3F10619   4.972   0.884  10.040 -1.1967  0.0966  0.2965
  104OSM    H3G10620   5.070   1.009  10.136 -0.5670 -0.1450  1.0277
  104OSM    C4F10621   4.886   1.074  10.038  0.1616  0.1016  0.0096
  104OSM    H4F10622   4.846   1.141  10.118  1.0561 -0.6365  1.1112
  104OSM    H4G10623   4.798   1.020   9.998 -0.9020  0.9077  1.1646
  104OSM    C5F10624   4.961   1.151   9.927 -0.6161 -0.0600 -0.2348
  104OSM    H5F10625   5.049   1.205   9.969 -0.8498  0.6811 -0.6836
  104OSM    H5G10626   4.892   1.230   9.891  0.2446  1.0913  0.5426
  104OSM    C6F10627   5.007   1.060   9.811  0.1887  0.1024  0.6971
  104OSM    H6F10628   4.930   0.994   9.765  0.9895 -0.6757  0.4250
  104OSM    H6G10629   5.085   0.988   9.844  1.3766  0.4668 -1.1396
  104OSM    C7F10630   5.061   1.149   9.703 -0.0543  0.1383  0.6815
  104OSM    H7F10631   5.141   1.205   9.757  1.1095 -1.2543  0.4867
  104OSM    H7G10632   4.977   1.213   9.672 -0.2775 -0.1045  0.7807
  104OSM    C8F10633   5.125   1.061   9.583  0.0135 -0.3594 -0.5993
  104OSM    H8F10634   5.048   0.992   9.543 -0.4978 -1.2152  1.7299
  104OSM    H8G10635   5.199   0.998   9.636 -0.4016  0.7888  1.4456
  104OSM    C9F10636   5.193   1.152   9.483  0.7482  0.0183 -0.0572
  104OSM    H9F10637   5.270   1.210   9.537  0.8278 -0.8133  0.7522
  104OSM   C10F10638   5.174   1.161   9.355  0.1806 -0.0798  1.0436
  104OSM   H10F10639   5.221   1.253   9.317 -0.3041  0.2063  1.1265
  104OSM   C11F10640   5.070   1.089   9.277  0.0593 -0.4523  0.1388
  104OSM   H11F10641   4.990   1.157   9.241  1.2737  0.9640  0.0663
  104OSM   H11G10642   5.017   1.013   9.339  0.8848 -0.1121  1.2974
  104OSM   C12F10643   5.122   1.008   9.160 -0.3011  0.4365  0.3784
  104OSM   H12F10644   5.030   0.968   9.111 -0.2120 -0.2093  0.7225
  104OSM   H12G10645   5.172   0.922   9.209 -0.1072  1.5521  2.2239
  104OSM   C13F10646   5.202   1.077   9.049  0.1568  0.6452 -1.0299
  104OSM   H13F10647   5.298   1.121   9.084 -0.7277  0.5580  1.8116
  104OSM   H13G10648   5.140   1.156   9.003  0.7365  1.5409 -0.3059
  104OSM   C14F10649   5.239   0.977   8.939  0.2491  0.4568 -0.3240
  104OSM   H14F10650   5.275   0.879   8.976 -1.9474 -0.6521 -0.9881
  104OSM   H14G10651   5.324   1.025   8.886  1.9284 -0.3742  1.4865
  104OSM   C15F10652   5.117   0.951   8.843 -0.0958  0.4256  0.9366
  104OSM   H15F10653   5.076   1.049   8.812  2.8932  1.1801 -1.0085
  104OSM   H15G10654   5.042   0.887   8.895 -2.0451  1.8575 -0.0037
  104OSM   C16F10655   5.159   0.889   8.707  0.4126  0.1556 -0.8388
  104OSM   H16F10656   5.181   0.780   8.714 -2.3791 -0.3874  1.2784
  104OSM   H16G10657   5.242   0.951   8.669 -0.1790  2.3645  1.2113
  104OSM   C17F10658   5.056   0.891   8.596  0.1410 -0.2877  0.0412
  104OSM   H17F10659   5.051   0.997   8.564  0.0137 -0.8840 -2.0980
  104OSM   H17G10660   4.960   0.851   8.635  1.1279 -2.4636  0.4166
  104OSM   C18F10661   5.097   0.827   8.464 -0.7452 -0.0576 -0.3166
  104OSM   H18F10662   5.106   0.717   8.475  1.5303 -0.3882 -3.9789
  104OSM   H18G10663   5.203   0.845   8.437 -1.1648  0.0913 -1.9646
  104OSM   H18H10664   5.032   0.840   8.375 -2.0692 -2.9845  0.1107
  105OSM      N10665   3.434   0.235  10.652  0.3634 -0.3903  0.2043
  105OSM    C1510666   3.334   0.266  10.766 -1.6257 -0.0841 -0.2030
  105OSM   H15A10667   3.382   0.238  10.859  0.2740 -0.0824 -1.1229
  105OSM   H15B10668   3.247   0.203  10.773 -1.2680 -0.6798 -0.9980
  105OSM   H15C10669   3.307   0.370  10.779  2.1425  0.8739  1.5989
  105OSM    C1410670   3.475   0.093  10.655  0.6287 -0.8308 -0.1108
  105OSM   H14A10671   3.394   0.024  10.638 -1.1567  0.9561  0.7567
  105OSM   H14B10672   3.513   0.067  10.753  1.9087 -1.5797 -0.7815
  105OSM   H14C10673   3.549   0.074  10.579  1.1564 -0.9357  0.4199
  105OSM    C1310674   3.369   0.266  10.516 -0.2591  0.1727 -0.4519
  105OSM   H13A10675   3.326   0.365  10.509  0.1834  0.5524  1.5686
  105OSM   H13B10676   3.286   0.199  10.500 -0.6355  0.1440  1.4087
  105OSM   H13C10677   3.445   0.251  10.440  0.2071  1.2004 -0.2026
  105OSM    C1210678   3.554   0.330  10.667 -0.1912  0.3395  0.0331
  105OSM   H12A10679   3.515   0.429  10.650  0.3265  0.5772  0.2323
  105OSM   H12B10680   3.619   0.320  10.582 -2.3723  0.4986 -1.7513
  105OSM    C1110681   3.649   0.333  10.794  0.1764 -0.0525 -0.0926
  105OSM   H11A10682   3.576   0.349  10.877 -0.9768 -1.2037 -0.8375
  105OSM   H11B10683   3.715   0.422  10.787 -1.1890  0.9518 -0.6906
  105OSM      P10684   3.825   0.153  10.720  0.0046  0.1660  0.2294
  105OSM    O1310685   3.955   0.219  10.751  0.4651  0.1403 -0.0371
  105OSM    O1410686   3.821   0.007  10.729 -0.0671 -0.0010  0.1966
  105OSM    O1110687   3.779   0.203  10.575  0.2803  0.2402 -0.6326
  105OSM    O1210688   3.717   0.214  10.815 -0.5229  0.9100 -0.5433
  105OSM    C1S10689   3.881   0.234  10.477  0.3055 -0.5268 -0.4551
  105OSM    H1S10690   3.987   0.221  10.511  0.4845  1.3455 -0.2041
  105OSM    H1T10691   3.860   0.334  10.435 -2.4699 -0.2979  1.2654
  105OSM     NF10692   3.983   0.174  10.254  0.1880  0.1988 -0.1724
  105OSM    HNF10693   3.953   0.226  10.175  1.9352  1.0337 -0.3498
  105OSM    C2S10694   3.884   0.135  10.361  0.1536  0.4503  0.3925
  105OSM    H2S10695   3.911   0.032  10.393  3.4845  1.9967  3.1017
  105OSM    C3S10696   3.737   0.129  10.305  0.2146  0.1945 -0.3019
  105OSM    H3S10697   3.700   0.234  10.296  0.2077  0.1942 -0.2769
  105OSM     O310698   3.647   0.077  10.402 -0.6429  0.2469 -0.2132
  105OSM    HO310699   3.694   0.103  10.482  2.2139 -0.3850 -1.5315
  105OSM    C4S10700   3.715   0.052  10.176 -0.2322 -0.1854 -0.1642
  105OSM    H4S10701   3.737   0.101  10.080 -0.4750 -2.0439 -1.2024
  105OSM    C5S10702   3.695  -0.080  10.172 -0.5979  0.2390 -1.0895
  105OSM    H5S10703   3.689  -0.138  10.265  1.6854  2.0958  0.3280
  105OSM    C6S10704   3.685  -0.176  10.056  0.2056  0.0621  0.2803
  105OSM    H6S10705   3.591  -0.234  10.064 -0.6256  1.1958 -0.9449
  105OSM    H6T10706   3.754  -0.262  10.067  0.2169 -0.1338 -1.1253
  105OSM    C7S10707   3.685  -0.110   9.918  0.0028 -0.6134 -0.2977
  105OSM    H7S10708   3.787  -0.071   9.899  0.1148 -1.0499 -0.6094
  105OSM    H7T10709   3.607  -0.032   9.903 -3.3928 -3.5027  0.7162
  105OSM    C8S10710   3.667  -0.209   9.801 -0.3289  0.5293  0.0825
  105OSM    H8S10711   3.564  -0.251   9.813 -0.7447  1.2338 -0.8513
  105OSM    H8T10712   3.744  -0.289   9.797  0.1977  1.0878 -1.6821
  105OSM    C9S10713   3.665  -0.143   9.661 -0.3402  0.2015  0.0310
  105OSM    H9S10714   3.758  -0.089   9.634  0.5957  0.2443  3.0007
  105OSM    H9T10715   3.591  -0.060   9.669 -0.0936  0.4640 -0.4155
  105OSM   C10S10716   3.621  -0.237   9.550  0.1505 -0.1395  0.1384
  105OSM   H10S10717   3.536  -0.294   9.592  0.4758 -0.6299  0.1308
  105OSM   H10T10718   3.702  -0.309   9.525  0.3938 -0.3305  1.4132
  105OSM   C11S10719   3.583  -0.160   9.422  0.1404  0.3972  1.1356
  105OSM   H11S10720   3.646  -0.072   9.397  0.1789 -0.4544 -2.0949
  105OSM   H11T10721   3.476  -0.131   9.433  0.1502  0.6315  0.6147
  105OSM   C12S10722   3.599  -0.258   9.302  0.6750 -0.4116  0.8577
  105OSM   H12S10723   3.526  -0.341   9.296 -0.4238  0.6343 -1.4361
  105OSM   H12T10724   3.705  -0.293   9.303  0.9211  0.2671 -0.1439
  105OSM   C13S10725   3.579  -0.189   9.167 -0.1953 -0.3878  0.9013
  105OSM   H13S10726   3.611  -0.082   9.162 -2.6789  0.3585 -2.1518
  105OSM   H13T10727   3.469  -0.190   9.152 -0.3808  0.0465  2.1013
  105OSM   C14S10728   3.627  -0.248   9.036  0.9479  0.0811 -0.8095
  105OSM   H14S10729   3.581  -0.345   9.010  1.0797 -0.9373  2.3631
  105OSM   H14T10730   3.733  -0.280   9.037 -0.2621 -4.6200  0.0487
  105OSM   C15S10731   3.603  -0.151   8.922  0.0811  0.9070  0.9802
  105OSM   H15S10732   3.672  -0.064   8.932 -1.5737  2.6448 -1.4600
  105OSM   H15T10733   3.499  -0.112   8.912 -0.1870 -0.3916 -4.0476
  105OSM   C16S10734   3.624  -0.219   8.787 -0.2917 -0.2876  0.3788
  105OSM   H16S10735   3.565  -0.312   8.790  1.8532 -1.8501 -1.9882
  105OSM   H16T10736   3.729  -0.254   8.772 -0.8166 -1.3958 -0.8347
  105OSM   C17S10737   3.577  -0.138   8.676 -0.1966 -0.5316 -0.4618
  105OSM   H17S10738   3.624  -0.037   8.668  0.4242 -0.8343 -0.7265
  105OSM   H17T10739   3.468  -0.118   8.669 -0.3740 -1.0125  0.6831
  105OSM   C18S10740   3.605  -0.202   8.543  0.2320 -0.3455  0.4554
  105OSM   H18S10741   3.560  -0.304   8.542 -0.1212 -0.2662  3.1022
  105OSM   H18T10742   3.713  -0.221   8.524  0.0168 -0.7622 -0.4419
  105OSM   H18U10743   3.564  -0.142   8.459 -1.6801  0.2277  1.7344
  105OSM    C1F10744   4.117   0.167  10.261 -0.0817 -0.0136  1.0723
  105OSM     OF10745   4.168   0.105  10.352  0.2943 -0.7158 -0.4164
  105OSM    C2F10746   4.193   0.234  10.155  0.2366 -0.3237 -0.5970
  105OSM    H2F10747   4.264   0.298  10.211 -0.6581 -0.0086  0.2203
  105OSM    H2G10748   4.122   0.295  10.094 -0.7941 -0.5066  0.3910
  105OSM    C3F10749   4.277   0.141  10.066 -0.9316 -0.3878  0.2533
  105OSM    H3F10750   4.214   0.059  10.025 -0.2265 -0.9178  0.2213
  105OSM    H3G10751   4.373   0.110  10.112 -0.7574 -1.4971 -0.8044
  105OSM    C4F10752   4.333   0.210   9.941 -0.1601 -0.0451  0.1185
  105OSM    H4F10753   4.436   0.245   9.963  0.0454  0.1487 -1.0601
  105OSM    H4G10754   4.271   0.299   9.918 -0.5743 -0.9935 -2.9072
  105OSM    C5F10755   4.343   0.115   9.819  0.3174 -0.4549 -0.1383
  105OSM    H5F10756   4.239   0.093   9.789  0.4463 -2.1929  0.5524
  105OSM    H5G10757   4.379   0.013   9.845 -1.4766 -0.2406  4.0118
  105OSM    C6F10758   4.398   0.188   9.697  0.4092 -0.4495  0.5424
  105OSM    H6F10759   4.508   0.175   9.704  0.2985 -0.9630  1.4767
  105OSM    H6G10760   4.355   0.290   9.689  0.0962 -0.4210  2.2270
  105OSM    C7F10761   4.355   0.117   9.575 -1.0984  0.0836  0.5295
  105OSM    H7F10762   4.246   0.095   9.582 -1.2835  0.6723 -0.2736
  105OSM    H7G10763   4.420   0.028   9.570 -0.4239  0.4620  1.9704
  105OSM    C8F10764   4.390   0.197   9.450  0.7969 -0.0496 -0.3143
  105OSM    H8F10765   4.501   0.201   9.453  0.8244 -1.0636  1.1640
  105OSM    H8G10766   4.342   0.297   9.455  1.9397  0.5501 -0.8398
  105OSM    C9F10767   4.328   0.108   9.341 -0.9555  0.0035 -0.3955
  105OSM    H9F10768   4.244   0.044   9.374 -0.1859 -1.1986 -0.7221
  105OSM   C10F10769   4.340   0.115   9.217 -0.7195  0.1628  0.9492
  105OSM   H10F10770   4.286   0.038   9.160  2.6754 -1.3045 -0.5567
  105OSM   C11F10771   4.450   0.203   9.163  0.0652 -0.5262 -0.4719
  105OSM   H11F10772   4.535   0.218   9.233  1.2031  1.6024 -2.1908
  105OSM   H11G10773   4.414   0.300   9.123 -0.3838 -0.2359  0.6010
  105OSM   C12F10774   4.526   0.131   9.045  0.6821 -0.9277 -0.1630
  105OSM   H12F10775   4.589   0.047   9.081 -1.4032 -2.6444 -0.3119
  105OSM   H12G10776   4.601   0.209   9.022  0.6842 -0.7808  0.3198
  105OSM   C13F10777   4.438   0.087   8.925  0.3410  0.4905 -0.4579
  105OSM   H13F10778   4.381   0.177   8.893 -0.8397 -1.3481 -4.0977
  105OSM   H13G10779   4.363   0.012   8.958  4.2159 -2.9020  1.4467
  105OSM   C14F10780   4.524   0.023   8.814  0.3731 -0.5601  0.2807
  105OSM   H14F10781   4.614   0.084   8.790  0.6376 -1.1781 -0.3174
  105OSM   H14G10782   4.466   0.022   8.720 -2.5758 -3.1501  1.9466
  105OSM   C15F10783   4.576  -0.120   8.837 -0.9417  0.4843  0.6050
  105OSM   H15F10784   4.497  -0.194   8.862 -1.9277  0.0134 -3.2796
  105OSM   H15G10785   4.658  -0.128   8.913  0.1555 -0.8161 -0.6675
  105OSM   C16F10786   4.634  -0.181   8.709 -0.9666  0.3912  0.3044
  105OSM   H16F10787   4.718  -0.113   8.683 -1.9116  2.4094  2.1605
  105OSM   H16G10788   4.558  -0.184   8.628 -1.3297 -1.6713  0.6735
  105OSM   C17F10789   4.692  -0.325   8.727 -0.0015  0.2742 -0.0520
  105OSM   H17F10790   4.611  -0.397   8.753  0.9585 -1.4537 -1.6150
  105OSM   H17G10791   4.762  -0.339   8.812  1.9978 -1.1195 -1.8339
  105OSM   C18F10792   4.741  -0.376   8.596  0.3388  0.1123  0.2990
  105OSM   H18F10793   4.781  -0.479   8.600 -0.6272 -0.2269  1.7027
  105OSM   H18G10794   4.824  -0.316   8.552 -0.0523  1.0965  0.8545
  105OSM   H18H10795   4.658  -0.381   8.523  0.7317 -1.8342 -0.0502
  106OSM      N10796   4.798   4.525  10.877  0.1995  0.1581 -0.3945
  106OSM    C1510797   4.824   4.404  10.943  0.3077  0.5738 -0.8424
  106OSM   H15A10798   4.834   4.318  10.878 -0.0365  0.3510 -0.6073
  106OSM   H15B10799   4.755   4.388  11.025 -1.1502 -0.1686 -2.1751
  106OSM   H15C10800   4.914   4.410  11.003  1.3684 -0.6565 -2.2416
  106OSM    C1410801   4.665   4.525  10.809  0.2923  0.1385  0.1517
  106OSM   H14A10802   4.599   4.471  10.876  2.6646 -1.7148  1.1530
  106OSM   H14B10803   4.679   4.476  10.714  2.3385  1.0347 -0.0633
  106OSM   H14C10804   4.634   4.627  10.792  2.4457  0.5897 -1.4788
  106OSM    C1310805   4.793   4.642  10.973 -0.0095  0.8336  0.4080
  106OSM   H13A10806   4.765   4.737  10.931 -0.3744  1.5939  2.2644
  106OSM   H13B10807   4.886   4.674  11.018  1.4763 -1.4130 -0.8479
  106OSM   H13C10808   4.721   4.612  11.048  0.1728 -0.1326  0.2109
  106OSM    C1210809   4.900   4.556  10.771 -0.2241 -0.5354  0.1399
  106OSM   H12A10810   4.991   4.579  10.823  0.5471 -2.8891 -0.0449
  106OSM   H12B10811   4.870   4.644  10.716  0.5254 -0.7486 -0.6313
  106OSM    C1110812   4.930   4.454  10.657  0.3792  0.2477 -0.4678
  106OSM   H11A10813   4.994   4.504  10.581  1.3059  1.4757  1.0595
  106OSM   H11B10814   4.829   4.420  10.627  0.3574  0.5893 -0.7919
  106OSM      P10815   5.155   4.360  10.757  0.4024  0.5452  0.0591
  106OSM    O1310816   5.164   4.454  10.870 -0.4720  0.1786 -0.1547
  106OSM    O1410817   5.211   4.222  10.784 -0.6341 -0.8324  0.4852
  106OSM    O1110818   5.238   4.416  10.636  0.2050  0.4628 -0.6581
  106OSM    O1210819   5.006   4.345  10.704 -0.1459 -0.1776 -0.6107
  106OSM    C1S10820   5.232   4.387  10.498  0.5384  0.1231  0.9832
  106OSM    H1S10821   5.127   4.367  10.467  0.8620 -0.9808  0.5683
  106OSM    H1T10822   5.291   4.299  10.464 -0.2811 -0.6257  1.4562
  106OSM     NF10823   5.274   4.441  10.272  0.0625 -0.2020  0.0944
  106OSM    HNF10824   5.364   4.421  10.236 -1.0392 -0.7281 -2.6212
  106OSM    C2S10825   5.274   4.504  10.406 -0.2430 -0.3747  0.9373
  106OSM    H2S10826   5.191   4.578  10.405  1.0218  1.0826 -1.0216
  106OSM    C3S10827   5.409   4.573  10.456 -0.0305 -0.0571 -0.3773
  106OSM    H3S10828   5.484   4.493  10.478  1.7755  1.5053 -0.5611
  106OSM     O310829   5.392   4.657  10.567  0.0756  0.2416  0.9621
  106OSM    HO310830   5.298   4.651  10.583  0.0205 -3.2982  0.1350
  106OSM    C4S10831   5.455   4.661  10.347  0.9336 -1.1452  0.9397
  106OSM    H4S10832   5.374   4.724  10.306  0.3088 -2.2876  0.3581
  106OSM    C5S10833   5.568   4.660  10.276 -0.2149 -0.6427  0.2545
  106OSM    H5S10834   5.653   4.594  10.300  0.2977 -0.7362 -1.6323
  106OSM    C6S10835   5.599   4.733  10.149 -0.3173 -0.0419 -0.9812
  106OSM    H6S10836   5.694   4.787  10.164 -0.8010  0.6258 -0.2419
  106OSM    H6T10837   5.517   4.808  10.143 -0.4395  0.3637  3.0946
  106OSM    C7S10838   5.608   4.656  10.013  0.2380 -0.2734  0.3848
  106OSM    H7S10839   5.520   4.589  10.001 -0.0993  0.0839  0.7984
  106OSM    H7T10840   5.694   4.586  10.023  1.9243  0.9755 -3.5607
  106OSM    C8S10841   5.629   4.747   9.890 -0.7476  0.3181 -0.1947
  106OSM    H8S10842   5.722   4.804   9.910  0.1802 -0.8123 -1.0890
  106OSM    H8T10843   5.540   4.812   9.883 -1.1739 -0.1103  0.9845
  106OSM    C9S10844   5.644   4.661   9.767 -0.3207  0.3632 -0.5093
  106OSM    H9S10845   5.540   4.633   9.738 -0.1650  1.0853 -1.8203
  106OSM    H9T10846   5.700   4.569   9.795 -0.2002  0.8261  0.8090
  106OSM   C10S10847   5.714   4.730   9.648  0.4450  0.6159  0.0652
  106OSM   H10S10848   5.817   4.759   9.677  2.1650 -1.7195 -3.0920
  106OSM   H10T10849   5.659   4.826   9.636 -0.1370  0.4661  1.3808
  106OSM   C11S10850   5.719   4.645   9.525 -0.3575 -0.7784 -0.0464
  106OSM   H11S10851   5.614   4.630   9.493 -0.4728  1.2946 -0.7877
  106OSM   H11T10852   5.756   4.541   9.541 -0.2338 -0.8217 -0.5891
  106OSM   C12S10853   5.794   4.712   9.411 -0.3002 -0.3162 -0.0796
  106OSM   H12S10854   5.903   4.692   9.422 -0.1753 -0.8849 -2.0316
  106OSM   H12T10855   5.765   4.819   9.413 -1.4335 -0.6191  1.7381
  106OSM   C13S10856   5.744   4.654   9.277 -0.3474 -0.0810 -0.0880
  106OSM   H13S10857   5.634   4.665   9.286 -0.3828 -0.2898 -0.2423
  106OSM   H13T10858   5.775   4.547   9.273  0.6312  0.1848  0.2712
  106OSM   C14S10859   5.797   4.735   9.156 -0.2135 -0.0166 -0.1794
  106OSM   H14S10860   5.907   4.722   9.147 -0.1474 -0.0294  0.5464
  106OSM   H14T10861   5.781   4.845   9.165 -2.8439 -0.3540 -0.0674
  106OSM   C15S10862   5.724   4.698   9.030  0.4516  0.6913  0.1912
  106OSM   H15S10863   5.616   4.719   9.046 -0.4306 -2.7126 -0.4693
  106OSM   H15T10864   5.737   4.591   9.002 -1.7227  0.8401 -1.7728
  106OSM   C16S10865   5.768   4.763   8.905  0.5940  0.2030  0.1618
  106OSM   H16S10866   5.877   4.743   8.910  0.8213  0.4253 -2.5498
  106OSM   H16T10867   5.741   4.870   8.916  1.6623  0.3446  1.7219
  106OSM   C17S10868   5.723   4.705   8.768 -0.2120 -0.3239 -0.5077
  106OSM   H17S10869   5.693   4.598   8.769 -2.3949  0.2395 -0.5943
  106OSM   H17T10870   5.820   4.720   8.717  0.3649  1.8864  1.1442
  106OSM   C18S10871   5.638   4.798   8.684  0.2187 -0.7778 -0.0633
  106OSM   H18S10872   5.634   4.753   8.582 -1.6489 -0.0533 -0.3456
  106OSM   H18T10873   5.692   4.895   8.676  2.6839 -2.1104 -0.7735
  106OSM   H18U10874   5.534   4.810   8.721 -0.4366  1.2050 -2.3057
  106OSM    C1F10875   5.165   4.424  10.196 -0.5577  1.0953  0.1246
  106OSM     OF10876   5.051   4.420  10.238  0.1150  0.4375 -0.3848
  106OSM    C2F10877   5.177   4.425  10.048 -0.4276 -0.1715  0.5596
  106OSM    H2F10878   5.197   4.320  10.018 -0.5407  0.2465 -1.0886
  106OSM    H2G10879   5.257   4.497  10.017 -0.8721 -0.9746 -2.8930
  106OSM    C3F10880   5.046   4.474   9.985  0.6356  0.0775 -0.1730
  106OSM    H3F10881   5.014   4.571  10.030  2.1803  1.8040 -2.5001
  106OSM    H3G10882   4.963   4.401   9.996  1.1577 -0.7406 -1.4422
  106OSM    C4F10883   5.075   4.506   9.843 -0.0610 -0.0592 -0.5123
  106OSM    H4F10884   5.127   4.417   9.803  0.4031  0.4579 -1.0898
  106OSM    H4G10885   5.123   4.606   9.834  1.3608 -0.6507  0.1915
  106OSM    C5F10886   4.944   4.515   9.765 -0.2621  0.6952  0.1733
  106OSM    H5F10887   4.870   4.586   9.808 -0.2683  1.6089 -1.2772
  106OSM    H5G10888   4.896   4.415   9.777  0.4860  0.0899 -1.5217
  106OSM    C6F10889   4.964   4.555   9.612 -0.0119  0.0327  0.1490
  106OSM    H6F10890   5.023   4.473   9.566 -1.4278 -0.3407 -1.0958
  106OSM    H6G10891   5.029   4.640   9.583  1.7607 -1.1585  0.4717
  106OSM    C7F10892   4.830   4.576   9.541  0.0564  0.3233 -0.1896
  106OSM    H7F10893   4.842   4.666   9.477  1.3040  0.1437 -0.2261
  106OSM    H7G10894   4.752   4.582   9.620  1.9920 -1.4595  2.0066
  106OSM    C8F10895   4.794   4.459   9.447  0.5317  0.6035 -0.8157
  106OSM    H8F10896   4.751   4.373   9.503  0.2474  2.0268  1.2807
  106OSM    H8G10897   4.888   4.429   9.397  0.6851 -0.7872  0.2397
  106OSM    C9F10898   4.689   4.509   9.353 -0.4627 -0.3131 -0.0059
  106OSM    H9F10899   4.587   4.485   9.388 -0.3016  0.7500  1.2942
  106OSM   C10F10900   4.702   4.553   9.225  0.0695 -0.3728 -0.4001
  106OSM   H10F10901   4.608   4.589   9.179 -1.1172 -0.0148  2.1512
  106OSM   C11F10902   4.830   4.575   9.145 -0.2903  0.4784 -1.4921
  106OSM   H11F10903   4.864   4.490   9.083 -0.2306 -1.5872  1.1925
  106OSM   H11G10904   4.913   4.598   9.216 -1.4907  0.9722 -0.1954
  106OSM   C12F10905   4.835   4.703   9.062  0.3899  0.0176  0.8296
  106OSM   H12F10906   4.940   4.731   9.040  0.8187 -2.3032 -0.3874
  106OSM   H12G10907   4.791   4.785   9.123 -0.3190  0.7228 -0.5617
  106OSM   C13F10908   4.753   4.702   8.930 -0.1746 -0.2826 -0.2475
  106OSM   H13F10909   4.646   4.673   8.942 -0.8442  2.1294  0.1271
  106OSM   H13G10910   4.795   4.628   8.858 -2.0939  0.1708 -1.9301
  106OSM   C14F10911   4.761   4.838   8.862  0.1362 -0.5500  0.3435
  106OSM   H14F10912   4.869   4.850   8.839 -0.3274 -0.9042 -2.3763
  106OSM   H14G10913   4.713   4.912   8.929  2.4024 -0.3900  1.9075
  106OSM   C15F10914   4.686   4.849   8.731  0.3100  0.1842  0.3453
  106OSM   H15F10915   4.642   4.750   8.704 -1.3805  0.8348  0.6192
  106OSM   H15G10916   4.749   4.870   8.641  0.4987 -2.7168 -0.3185
  106OSM   C16F10917   4.585   4.964   8.728 -0.5565 -0.1781 -0.6296
  106OSM   H16F10918   4.642   5.055   8.755 -1.1248 -0.3196  1.1619
  106OSM   H16G10919   4.509   4.945   8.807 -1.9390  1.0032 -1.6226
  106OSM   C17F10920   4.516   4.986   8.591  0.0349 -0.1671 -0.2579
  106OSM   H17F10921   4.460   4.890   8.581 -0.5690  0.0248  1.0471
  106OSM   H17G10922   4.584   4.986   8.503  0.7255  2.3749  0.1895
  106OSM   C18F10923   4.408   5.105   8.579 -0.3277  0.2464 -0.7840
  106OSM   H18F10924   4.386   5.143   8.477  0.0055  2.3285 -0.1370
  106OSM   H18G10925   4.456   5.193   8.627  1.5256 -2.0536  1.8113
  106OSM   H18H10926   4.321   5.078   8.642  1.0888  1.7951  2.0471
  107OSM      N10927   4.349   2.756  10.638 -0.7527  0.2470  0.1691
  107OSM    C1510928   4.253   2.659  10.575 -1.3318  0.0848  1.6798
  107OSM   H15A10929   4.304   2.595  10.504 -1.9285  2.5983 -1.1767
  107OSM   H15B10930   4.183   2.713  10.515  0.1736  0.6223  0.3282
  107OSM   H15C10931   4.203   2.590  10.641 -0.9673 -0.3067  1.5551
  107OSM    C1410932   4.267   2.828  10.744 -0.1894 -0.1748  0.9282
  107OSM   H14A10933   4.216   2.773  10.821  0.5908 -0.9639  0.8984
  107OSM   H14B10934   4.195   2.898  10.704 -0.0349  0.3597  1.5753
  107OSM   H14C10935   4.344   2.890  10.788  0.9688 -0.5431 -0.4972
  107OSM    C1310936   4.457   2.682  10.713  0.3367 -0.4520  0.8810
  107OSM   H13A10937   4.521   2.752  10.764  1.6017  1.8655 -3.3481
  107OSM   H13B10938   4.522   2.631  10.643  0.0279  0.0338  0.2320
  107OSM   H13C10939   4.414   2.613  10.784 -0.5425  1.9504  2.8202
  107OSM    C1210940   4.398   2.849  10.534 -0.2470  0.2326 -0.2184
  107OSM   H12A10941   4.313   2.890  10.481 -0.3406  0.8605  0.4121
  107OSM   H12B10942   4.452   2.785  10.464  0.5481  0.7898 -0.1248
  107OSM    C1110943   4.494   2.963  10.577 -0.1474 -0.2680 -0.8756
  107OSM   H11A10944   4.432   3.039  10.630 -0.6571  0.0631 -1.9193
  107OSM   H11B10945   4.522   3.013  10.482  1.5362  0.0090 -0.2529
  107OSM      P10946   4.743   2.869  10.595  0.3817  0.1279 -0.1213
  107OSM    O1310947   4.853   2.879  10.689  0.0929 -0.3153 -0.6509
  107OSM    O1410948   4.714   2.741  10.525  0.0576  0.1930  0.4276
  107OSM    O1110949   4.771   2.980  10.491 -0.4957  0.4147 -0.2616
  107OSM    O1210950   4.602   2.918  10.659 -0.6542 -0.1640  0.5045
  107OSM    C1S10951   4.900   2.990  10.420  0.2020  0.0544  0.2012
  107OSM    H1S10952   4.981   2.942  10.477 -1.2633  0.6474  2.9319
  107OSM    H1T10953   4.922   3.098  10.403 -0.5758  0.1394 -0.3720
  107OSM     NF10954   5.022   2.925  10.213 -0.1456 -0.5449  0.3655
  107OSM    HNF10955   5.052   2.997  10.151 -1.2250 -1.9527 -1.9210
  107OSM    C2S10956   4.891   2.931  10.273 -0.0907 -0.5544 -0.1492
  107OSM    H2S10957   4.847   2.830  10.281 -1.2966 -0.0590 -0.3678
  107OSM    C3S10958   4.782   3.018  10.195 -1.3854 -0.6760  0.0450
  107OSM    H3S10959   4.813   3.125  10.199 -1.0403 -0.8039  1.8268
  107OSM     O310960   4.658   3.024  10.261 -0.1718 -0.2142  0.0647
  107OSM    HO310961   4.683   2.982  10.344  0.7421  1.2249  0.5420
  107OSM    C4S10962   4.784   2.973  10.050  0.5027  0.8810  0.1305
  107OSM    H4S10963   4.847   3.040   9.991  1.9011 -1.1833 -0.8548
  107OSM    C5S10964   4.704   2.878   9.996 -0.5226  0.4110  0.2187
  107OSM    H5S10965   4.635   2.821  10.060  1.0230 -0.1978  1.4295
  107OSM    C6S10966   4.710   2.841   9.848 -0.4844  0.2562 -0.5500
  107OSM    H6S10967   4.609   2.869   9.812  0.4865  3.3176 -1.1728
  107OSM    H6T10968   4.715   2.732   9.826 -0.5324 -0.4579  2.5100
  107OSM    C7S10969   4.811   2.907   9.757 -0.1699 -0.0098  0.9285
  107OSM    H7S10970   4.914   2.883   9.791  0.1042 -0.5802 -0.2386
  107OSM    H7T10971   4.801   3.016   9.771  0.1179  0.2239 -0.5823
  107OSM    C8S10972   4.807   2.865   9.604  0.2917 -0.6734  0.4346
  107OSM    H8S10973   4.706   2.872   9.558  1.1090 -1.3949 -1.5602
  107OSM    H8T10974   4.838   2.759   9.594 -0.5193 -0.7194 -2.7214
  107OSM    C9S10975   4.895   2.953   9.508 -0.2520 -0.3931 -0.4237
  107OSM    H9S10976   5.002   2.928   9.526  0.3311  2.1096 -0.0524
  107OSM    H9T10977   4.888   3.060   9.537  0.8632 -0.3105 -0.4001
  107OSM   C10S10978   4.868   2.938   9.360  0.2029  0.5415  0.9655
  107OSM   H10S10979   4.759   2.922   9.345  0.5315  0.0113 -1.1689
  107OSM   H10T10980   4.928   2.849   9.331  0.7379  0.6159  1.8000
  107OSM   C11S10981   4.933   3.046   9.271  0.1769  0.2918  0.2553
  107OSM   H11S10982   5.033   3.068   9.313  1.3073 -1.2856 -1.4959
  107OSM   H11T10983   4.863   3.133   9.277  0.0385  0.4202 -2.4060
  107OSM   C12S10984   4.944   3.004   9.124  0.0492 -0.0055 -0.3521
  107OSM   H12S10985   4.855   2.949   9.085 -0.3443  0.0256  0.4830
  107OSM   H12T10986   5.024   2.928   9.120  0.0983  0.1015 -2.5698
  107OSM   C13S10987   4.984   3.131   9.046  0.3208  0.1994  1.0180
  107OSM   H13S10988   5.077   3.165   9.095 -0.0881  2.4041  0.3947
  107OSM   H13T10989   4.909   3.211   9.067 -0.4283 -0.4084  0.7232
  107OSM   C14S10990   4.984   3.102   8.892  0.0971  0.3241 -0.4709
  107OSM   H14S10991   4.890   3.047   8.871  0.1566 -0.5241  1.2828
  107OSM   H14T10992   5.057   3.021   8.870 -0.1345 -0.6964  2.0921
  107OSM   C15S10993   5.018   3.219   8.803  0.2652 -0.0932  0.1262
  107OSM   H15S10994   5.120   3.253   8.832  0.6332 -0.3749 -0.8040
  107OSM   H15T10995   4.941   3.298   8.820 -2.2140 -2.9065  3.4519
  107OSM   C16S10996   5.026   3.188   8.651  0.5234 -0.1629 -0.2519
  107OSM   H16S10997   4.925   3.153   8.623  0.8847 -2.0085  0.5343
  107OSM   H16T10998   5.088   3.096   8.645  0.2855 -0.7140  3.3283
  107OSM   C17S10999   5.075   3.309   8.569 -0.6885  0.2177  0.4416
  107OSM   H17S11000   5.009   3.398   8.575  0.8753  1.4201  0.5679
  107OSM   H17T11001   5.088   3.281   8.462  2.5803 -0.2585  0.8575
  107OSM   C18S11002   5.216   3.361   8.600  0.9840  0.2316  0.1920
  107OSM   H18S11003   5.250   3.438   8.527  1.6095 -0.8084 -0.6455
  107OSM   H18T11004   5.290   3.279   8.614  0.9786  0.2373  0.2541
  107OSM   H18U11005   5.211   3.413   8.698  0.4905  0.7990 -0.1234
  107OSM    C1F11006   5.112   2.841  10.252 -0.0557 -0.8078  0.2359
  107OSM     OF11007   5.094   2.767  10.348 -0.0223 -0.2168  0.2934
  107OSM    C2F11008   5.245   2.838  10.177 -0.2945  0.2820  0.3111
  107OSM    H2F11009   5.294   2.937  10.185  1.1971 -0.5764  2.9785
  107OSM    H2G11010   5.228   2.831  10.067  0.4166 -0.1648  0.2230
  107OSM    C3F11011   5.349   2.738  10.235  0.1357  0.6766  0.4088
  107OSM    H3F11012   5.307   2.636  10.245 -1.1523  1.0505 -0.9550
  107OSM    H3G11013   5.375   2.787  10.332  3.3128  1.9985 -0.9608
  107OSM    C4F11014   5.470   2.722  10.149  0.2223  0.2449  0.8623
  107OSM    H4F11015   5.446   2.719  10.040  0.6250  2.2307  0.6796
  107OSM    H4G11016   5.533   2.633  10.169 -0.2238 -0.7053 -1.5844
  107OSM    C5F11017   5.552   2.850  10.141  0.0843  0.3518 -0.1942
  107OSM    H5F11018   5.606   2.861  10.238 -0.4829  0.1074  0.1518
  107OSM    H5G11019   5.493   2.941  10.117  0.8256  0.1756 -2.9751
  107OSM    C6F11020   5.659   2.845  10.032  0.0242  0.5778 -0.0932
  107OSM    H6F11021   5.693   2.951  10.030 -0.3305  0.6866 -0.3782
  107OSM    H6G11022   5.625   2.813   9.931 -0.5375 -4.0921  1.3578
  107OSM    C7F11023   5.776   2.749  10.065  0.3943 -0.1330  0.2924
  107OSM    H7F11024   5.742   2.643  10.056  3.1496 -0.9155 -5.0368
  107OSM    H7G11025   5.811   2.767  10.169 -0.5964  0.9714  0.4627
  107OSM    C8F11026   5.895   2.759   9.973  1.1528 -0.1621 -0.0140
  107OSM    H8F11027   5.862   2.740   9.869 -1.6339 -0.2116  0.8118
  107OSM    H8G11028   5.959   2.671   9.995 -1.5687 -2.4487 -0.6464
  107OSM    C9F11029   5.958   2.893   9.995  0.6658  0.2462 -1.1128
  107OSM    H9F11030   5.963   2.930  10.099  1.8744 -1.6985 -0.4047
  107OSM   C10F11031   5.990   2.976   9.899  0.4424  0.7674  0.4487
  107OSM   H10F11032   6.028   3.076   9.923  2.5283 -0.4698  2.6510
  107OSM   C11F11033   5.989   2.940   9.746 -0.6072 -1.3947 -0.3674
  107OSM   H11F11034   5.928   3.024   9.706 -0.4011 -0.2012  1.6578
  107OSM   H11G11035   5.954   2.838   9.719 -1.8286 -0.5988 -1.9560
  107OSM   C12F11036   6.130   2.970   9.685  0.7784 -0.0267 -1.1053
  107OSM   H12F11037   6.198   2.906   9.744  0.6614  0.5298 -0.3464
  107OSM   H12G11038   6.151   3.078   9.704  0.9156  0.1450 -2.1960
  107OSM   C13F11039   6.133   2.926   9.539 -0.1946  0.6571  0.1574
  107OSM   H13F11040   6.052   2.976   9.483  0.4444 -0.3500 -1.7378
  107OSM   H13G11041   6.125   2.815   9.534 -0.3772  0.7188 -1.6358
  107OSM   C14F11042   6.273   2.954   9.485 -0.3274 -0.1687 -0.1074
  107OSM   H14F11043   6.345   2.926   9.564  0.1621 -1.3449 -0.9388
  107OSM   H14G11044   6.273   3.065   9.491 -2.1969  0.0359 -2.2790
  107OSM   C15F11045   6.310   2.902   9.349  0.3343  0.3105  0.0723
  107OSM   H15F11046   6.334   2.793   9.354 -0.1929  0.1239 -1.2483
  107OSM   H15G11047   6.397   2.965   9.321 -0.5369  2.2253  1.4495
  107OSM   C16F11048   6.199   2.925   9.240  0.8983 -0.8543 -0.5346
  107OSM   H16F11049   6.116   2.854   9.263  0.7928 -0.0159  1.9780
  107OSM   H16G11050   6.231   2.896   9.138 -0.6935 -1.2585 -0.9613
  107OSM   C17F11051   6.147   3.065   9.235 -0.7215 -0.5149 -0.1491
  107OSM   H17F11052   6.225   3.123   9.180 -0.4696 -0.6661  0.0519
  107OSM   H17G11053   6.148   3.116   9.334 -1.3692 -0.2945 -0.2481
  107OSM   C18F11054   6.000   3.065   9.200  0.8645 -0.1741 -0.3483
  107OSM   H18F11055   5.959   3.166   9.224  0.7724  0.0615 -1.4385
  107OSM   H18G11056   5.937   2.993   9.257 -1.0481  1.1263 -0.7170
  107OSM   H18H11057   5.969   3.057   9.093 -1.6708 -2.9872  0.4485
  108OSM      N11058   2.435   0.502  10.481 -0.5186 -0.3479 -0.1458
  108OSM    C1511059   2.364   0.630  10.460 -0.0403 -0.1166 -0.2681
  108OSM   H15A11060   2.438   0.705  10.435  1.6029 -1.4398  0.3699
  108OSM   H15B11061   2.324   0.654  10.557  3.2568 -1.5584  1.6479
  108OSM   H15C11062   2.285   0.628  10.387  1.1753  1.0212 -1.6792
  108OSM    C1411063   2.339   0.414  10.559  0.1101  0.8753 -0.2212
  108OSM   H14A11064   2.243   0.407  10.510 -0.0609  2.4497 -0.1578
  108OSM   H14B11065   2.335   0.436  10.665  2.1798 -3.2449  0.8996
  108OSM   H14C11066   2.378   0.313  10.564 -0.2992  0.7284  0.1449
  108OSM    C1311067   2.463   0.434  10.353 -0.6462  0.1914  0.0223
  108OSM   H13A11068   2.541   0.493  10.309 -1.9320  2.6918  0.8699
  108OSM   H13B11069   2.371   0.425  10.297 -0.4916 -1.0118 -0.0665
  108OSM   H13C11070   2.495   0.333  10.373 -0.9562  0.2587  0.9330
  108OSM    C1211071   2.553   0.532  10.563 -0.1764  0.0316  0.0579
  108OSM   H12A11072   2.513   0.596  10.641 -4.1228 -1.5673 -0.4161
  108OSM   H12B11073   2.628   0.591  10.513  1.5777 -0.2837  2.1583
  108OSM    C1111074   2.635   0.422  10.630  0.3528  0.1423 -0.1002
  108OSM   H11A11075   2.589   0.418  10.731  0.9811  2.2598  0.3165
  108OSM   H11B11076   2.740   0.449  10.656  0.3534 -0.1381  0.1917
  108OSM      P11077   2.598   0.162  10.612 -0.2543  0.4607  0.1430
  108OSM    O1311078   2.687   0.144  10.729  0.5469 -0.2430 -0.4757
  108OSM    O1411079   2.449   0.145  10.628 -0.4788 -0.7492  0.1892
  108OSM    O1111080   2.642   0.072  10.489 -0.3443  0.1845 -0.4903
  108OSM    O1211081   2.624   0.305  10.556  0.0881 -0.0005 -0.5104
  108OSM    C1S11082   2.557   0.057  10.377  0.1873 -0.3473 -0.3320
  108OSM    H1S11083   2.522   0.160  10.356  2.8405  0.9318  0.9753
  108OSM    H1T11084   2.472  -0.005  10.412  2.3629 -2.8274  1.0013
  108OSM     NF11085   2.552   0.008  10.133  0.5654  0.2564  0.7449
  108OSM    HNF11086   2.491  -0.062  10.098  1.5637  0.9392 -2.7157
  108OSM    C2S11087   2.632  -0.010  10.252  0.2963  0.6739  0.2681
  108OSM    H2S11088   2.726   0.048  10.245  2.2418 -2.2275  0.3900
  108OSM    C3S11089   2.667  -0.154  10.286 -1.3804  0.3010 -0.0930
  108OSM    H3S11090   2.573  -0.203  10.319 -1.0429 -0.9209 -0.8885
  108OSM     O311091   2.758  -0.164  10.397 -0.3537  0.2380 -0.5515
  108OSM    HO311092   2.769  -0.076  10.435 -3.1649 -0.5188  2.4075
  108OSM    C4S11093   2.733  -0.227  10.173 -0.4379 -0.3530 -0.4897
  108OSM    H4S11094   2.840  -0.206  10.157 -0.7169  0.4687 -1.3073
  108OSM    C5S11095   2.670  -0.322  10.116  0.6270  0.5742  0.5271
  108OSM    H5S11096   2.562  -0.337  10.134  0.3407 -0.0928 -1.4389
  108OSM    C6S11097   2.735  -0.406  10.005 -0.0953 -0.1180 -0.2953
  108OSM    H6S11098   2.839  -0.429  10.034 -0.1629  0.1565  0.1915
  108OSM    H6T11099   2.747  -0.347   9.912  0.5832 -0.8565 -0.6836
  108OSM    C7S11100   2.666  -0.537   9.972  0.3372  0.5198  0.0579
  108OSM    H7S11101   2.562  -0.503   9.951  0.7062  3.0983  1.8975
  108OSM    H7T11102   2.674  -0.619  10.046  0.1851 -1.3801 -1.9147
  108OSM    C8S11103   2.719  -0.608   9.846  0.0135 -0.6251 -0.3009
  108OSM    H8S11104   2.671  -0.708   9.840  2.0279 -1.5942 -1.0804
  108OSM    H8T11105   2.828  -0.621   9.858  0.1556  1.7322  1.6123
  108OSM    C9S11106   2.700  -0.527   9.712  0.3354 -0.5269  0.2102
  108OSM    H9S11107   2.765  -0.439   9.730  0.3636 -0.3945 -0.5049
  108OSM    H9T11108   2.596  -0.489   9.708  0.2697 -0.7696 -0.9406
  108OSM   C10S11109   2.736  -0.586   9.578 -0.0384  0.6802 -0.9852
  108OSM   H10S11110   2.674  -0.677   9.564  0.7391 -0.0001 -0.1468
  108OSM   H10T11111   2.845  -0.611   9.574 -0.1320  0.2151 -0.6782
  108OSM   C11S11112   2.712  -0.497   9.458  0.0606 -0.8289  0.4323
  108OSM   H11S11113   2.767  -0.542   9.373  0.6932 -0.0176  0.3922
  108OSM   H11T11114   2.755  -0.399   9.488 -0.4994 -0.9107  1.5710
  108OSM   C12S11115   2.559  -0.475   9.425  0.0832  0.1546  0.1528
  108OSM   H12S11116   2.513  -0.425   9.512  1.1096  3.1024 -0.8811
  108OSM   H12T11117   2.505  -0.571   9.413  0.0657  0.3706 -1.8435
  108OSM   C13S11118   2.556  -0.387   9.298 -0.4172  0.1166  0.1017
  108OSM   H13S11119   2.609  -0.290   9.308  0.9762 -0.7177  1.1824
  108OSM   H13T11120   2.447  -0.368   9.285 -0.6341 -0.1138  1.4777
  108OSM   C14S11121   2.596  -0.465   9.168 -0.1759  0.3383  0.1411
  108OSM   H14S11122   2.550  -0.566   9.175 -0.6146  0.6432  1.9246
  108OSM   H14T11123   2.707  -0.478   9.164 -0.1821  0.4377 -0.5658
  108OSM   C15S11124   2.551  -0.396   9.044 -0.7230 -0.4964 -0.1599
  108OSM   H15S11125   2.565  -0.286   9.055 -0.0716 -0.7316  1.8196
  108OSM   H15T11126   2.445  -0.426   9.031 -1.0249  0.1185  0.7430
  108OSM   C16S11127   2.634  -0.456   8.926  0.1196 -0.0364 -0.3880
  108OSM   H16S11128   2.582  -0.445   8.829  0.5557  1.8796 -0.4343
  108OSM   H16T11129   2.647  -0.561   8.960  1.8942  0.4592  0.6169
  108OSM   C17S11130   2.756  -0.376   8.893 -0.1325 -0.1502  0.5947
  108OSM   H17S11131   2.815  -0.426   8.814 -0.8011  1.0955 -0.7336
  108OSM   H17T11132   2.832  -0.367   8.974  0.8791  1.1117 -0.4655
  108OSM   C18S11133   2.728  -0.231   8.840 -0.8984  0.3807  0.7715
  108OSM   H18S11134   2.649  -0.176   8.897 -1.2315  0.5325  0.1723
  108OSM   H18T11135   2.702  -0.244   8.733  0.3059 -0.0362  0.5230
  108OSM   H18U11136   2.824  -0.178   8.856 -0.0413 -1.3636  1.6270
  108OSM    C1F11137   2.543   0.118  10.066 -0.0721 -0.2986  0.2406
  108OSM     OF11138   2.605   0.217  10.107 -0.1913 -0.1112  0.4676
  108OSM    C2F11139   2.447   0.116   9.948 -0.8624  0.7555 -0.5296
  108OSM    H2F11140   2.426   0.221   9.916 -0.0387  1.9728  2.5703
  108OSM    H2G11141   2.347   0.080   9.980 -1.4539  3.2411  0.6362
  108OSM    C3F11142   2.486   0.020   9.832  0.4228 -0.5946  0.7107
  108OSM    H3F11143   2.411   0.018   9.750  1.8078 -0.2360 -0.6174
  108OSM    H3G11144   2.503  -0.083   9.872 -3.1351 -0.6428  2.4696
  108OSM    C4F11145   2.625   0.041   9.762 -0.4359 -0.2353  0.3128
  108OSM    H4F11146   2.710   0.019   9.830  1.2579 -0.3749 -1.7425
  108OSM    H4G11147   2.624   0.146   9.726  2.3921  1.0647  3.4987
  108OSM    C5F11148   2.674  -0.044   9.645  0.2075  0.2194 -1.1309
  108OSM    H5F11149   2.641  -0.146   9.674 -2.1074  1.5378  1.3321
  108OSM    H5G11150   2.784  -0.045   9.632  0.7926 -0.3719  2.7831
  108OSM    C6F11151   2.608  -0.013   9.513  0.2530  0.1204 -0.3366
  108OSM    H6F11152   2.497  -0.007   9.526  0.0897 -2.8294  0.3130
  108OSM    H6G11153   2.633  -0.102   9.452 -0.6438  1.1280 -2.2743
  108OSM    C7F11154   2.653   0.115   9.458  0.3583 -0.8943  0.1299
  108OSM    H7F11155   2.762   0.118   9.440  0.2953 -0.7643 -0.2297
  108OSM    H7G11156   2.634   0.202   9.525  1.7767  1.6741 -2.5883
  108OSM    C8F11157   2.576   0.140   9.326  0.0477 -0.3818  0.3920
  108OSM    H8F11158   2.588   0.249   9.309 -1.3282 -0.3717 -0.6931
  108OSM    H8G11159   2.469   0.114   9.337  0.5833 -1.9485  2.5721
  108OSM    C9F11160   2.625   0.051   9.212 -0.8629  0.2708 -0.4368
  108OSM    H9F11161   2.656  -0.053   9.232 -0.3215  0.1751 -1.6251
  108OSM   C10F11162   2.626   0.084   9.085  1.0806  0.2742 -0.1743
  108OSM   H10F11163   2.647   0.010   9.006 -0.7123 -0.1330 -0.3078
  108OSM   C11F11164   2.579   0.219   9.042  0.3456 -0.1844 -0.1819
  108OSM   H11F11165   2.653   0.296   9.074  0.7599  0.4217 -2.3796
  108OSM   H11G11166   2.489   0.250   9.100  1.5264  0.7076  1.2498
  108OSM   C12F11167   2.571   0.250   8.890  0.2255 -0.4370 -0.2993
  108OSM   H12F11168   2.526   0.351   8.881 -0.5947 -0.7907 -0.2256
  108OSM   H12G11169   2.492   0.184   8.848  0.4930 -0.6120 -0.5305
  108OSM   C13F11170   2.701   0.252   8.805 -0.3450 -0.3125 -0.0011
  108OSM   H13F11171   2.680   0.265   8.697 -0.5266 -2.6034 -0.2924
  108OSM   H13G11172   2.747   0.152   8.819 -0.0727 -0.2062 -0.1386
  108OSM   C14F11173   2.805   0.350   8.861 -0.4538  0.4550  0.1475
  108OSM   H14F11174   2.835   0.312   8.961  0.1730 -1.0639 -0.5843
  108OSM   H14G11175   2.750   0.442   8.889 -1.8649 -0.0808 -0.7848
  108OSM   C15F11176   2.925   0.382   8.778 -0.2248 -0.2156  0.3522
  108OSM   H15F11177   2.985   0.289   8.779 -0.6572 -0.5097  1.7278
  108OSM   H15G11178   2.996   0.445   8.836  0.8781  0.0148 -1.1794
  108OSM   C16F11179   2.897   0.432   8.634 -0.2735  0.3928 -0.5562
  108OSM   H16F11180   2.809   0.499   8.634  0.5619  1.5257 -0.2440
  108OSM   H16G11181   2.864   0.345   8.573 -0.3425 -1.3849  1.8891
  108OSM   C17F11182   3.011   0.501   8.559  0.0509 -0.0579 -0.3412
  108OSM   H17F11183   2.979   0.511   8.453  0.4744 -2.4099 -0.7444
  108OSM   H17G11184   3.101   0.437   8.560  0.5098  0.5413 -1.4290
  108OSM   C18F11185   3.045   0.638   8.600 -0.3221 -0.2843 -0.2880
  108OSM   H18F11186   3.142   0.684   8.574  1.4158 -0.4899  4.6798
  108OSM   H18G11187   3.045   0.636   8.711 -0.3860 -0.6580 -0.2931
  108OSM   H18H11188   2.961   0.700   8.560  0.2698 -0.0714 -1.2236
  109OSM      N11189   4.013   0.628  10.763 -0.3252 -0.0381 -0.7819
  109OSM    C1511190   4.098   0.748  10.733  0.9578 -0.6864  0.9944
  109OSM   H15A11191   4.036   0.836  10.724  3.1311  0.7728 -0.9392
  109OSM   H15B11192   4.151   0.741  10.639 -0.1823 -1.0755  0.3555
  109OSM   H15C11193   4.177   0.773  10.802  1.7588  0.0876 -0.1574
  109OSM    C1411194   4.101   0.503  10.775 -0.6161  0.1089  0.5099
  109OSM   H14A11195   4.165   0.507  10.863  0.5188  2.3643 -0.3174
  109OSM   H14B11196   4.180   0.496  10.701 -1.4740 -4.2680 -0.2551
  109OSM   H14C11197   4.046   0.411  10.777 -2.1044  0.9781  1.2065
  109OSM    C1311198   3.954   0.653  10.901 -0.2786 -0.7370  0.7707
  109OSM   H13A11199   4.029   0.690  10.969  1.6197 -0.6699 -1.2769
  109OSM   H13B11200   3.903   0.568  10.945 -3.5475  0.3401 -0.6147
  109OSM   H13C11201   3.893   0.742  10.895  1.4541  0.3890 -1.4310
  109OSM    C1211202   3.911   0.596  10.654 -0.0332  0.2977 -0.4891
  109OSM   H12A11203   3.885   0.492  10.660  2.0078 -0.2218  0.1867
  109OSM   H12B11204   3.956   0.606  10.556  0.1106  0.9604 -0.3665
  109OSM    C1111205   3.784   0.679  10.640 -0.1084  0.1089  0.0037
  109OSM   H11A11206   3.802   0.788  10.638  0.9850 -0.0374  0.9768
  109OSM   H11B11207   3.714   0.656  10.724 -0.5723 -0.3104 -0.4898
  109OSM      P11208   3.592   0.689  10.468 -0.1960  0.3801 -0.5052
  109OSM    O1311209   3.588   0.635  10.333  0.1924  0.1781  0.0991
  109OSM    O1411210   3.482   0.660  10.565 -0.0111  0.3897  0.4972
  109OSM    O1111211   3.625   0.840  10.463  0.6935 -0.0742  0.3922
  109OSM    O1211212   3.725   0.631  10.521  0.2316 -0.7869  0.0747
  109OSM    C1S11213   3.743   0.888  10.397  0.3370  0.2304 -0.6572
  109OSM    H1S11214   3.816   0.805  10.391 -1.6079 -1.7777  1.2539
  109OSM    H1T11215   3.793   0.979  10.437  2.9736 -1.2456 -0.4093
  109OSM     NF11216   3.828   0.958  10.172 -0.0045  0.5164  0.2507
  109OSM    HNF11217   3.860   1.052  10.172 -0.0135  0.5192  0.5567
  109OSM    C2S11218   3.715   0.927  10.242 -0.4994  0.3657  0.2553
  109OSM    H2S11219   3.659   0.838  10.205  0.3882  0.1953 -0.7464
  109OSM    C3S11220   3.604   1.030  10.226 -0.0017  0.0813 -1.3836
  109OSM    H3S11221   3.637   1.130  10.262  1.5389 -1.0612  0.5647
  109OSM     O311222   3.485   1.013  10.307 -0.1888 -0.1616 -0.1610
  109OSM    HO311223   3.510   0.959  10.383  1.6613 -0.0002 -0.5926
  109OSM    C4S11224   3.548   1.045  10.086  0.2811  0.2572 -0.8036
  109OSM    H4S11225   3.489   0.956  10.060  1.4771 -1.6473  2.4128
  109OSM    C5S11226   3.548   1.159  10.009  0.5309 -0.0868  0.8675
  109OSM    H5S11227   3.589   1.252  10.051 -2.0445  1.1434  0.8182
  109OSM    C6S11228   3.497   1.162   9.869  0.7489 -0.4146 -0.4509
  109OSM    H6S11229   3.478   1.267   9.840  3.1276 -0.2788 -1.7012
  109OSM    H6T11230   3.406   1.097   9.868  0.3559 -0.0791  2.5516
  109OSM    C7S11231   3.604   1.110   9.769  0.0617  0.1358  0.6206
  109OSM    H7S11232   3.612   0.999   9.777 -3.2886 -0.1057  2.8633
  109OSM    H7T11233   3.701   1.159   9.789  0.5061 -0.6557  0.4579
  109OSM    C8S11234   3.553   1.133   9.622  0.0509 -0.1347 -0.6201
  109OSM    H8S11235   3.527   1.239   9.606  0.9873  0.3069  0.6013
  109OSM    H8T11236   3.471   1.060   9.604  0.7810 -0.9232 -0.7938
  109OSM    C9S11237   3.666   1.119   9.525 -0.0144  0.4957  0.4092
  109OSM    H9S11238   3.710   1.018   9.532 -1.4320 -0.2996 -1.4615
  109OSM    H9T11239   3.749   1.190   9.548 -1.0317  1.5947  0.7844
  109OSM   C10S11240   3.630   1.148   9.375  0.0455  0.1054  0.4749
  109OSM   H10S11241   3.597   1.252   9.357  1.6779  0.6224  0.3168
  109OSM   H10T11242   3.550   1.079   9.340  0.7650 -1.3446  1.5662
  109OSM   C11S11243   3.744   1.115   9.276  0.7278 -0.5965  0.1613
  109OSM   H11S11244   3.796   1.018   9.291  0.4592 -0.5586  1.4204
  109OSM   H11T11245   3.815   1.195   9.308 -0.5405  0.5882  0.0757
  109OSM   C12S11246   3.715   1.142   9.127  0.0105 -0.5430  0.4318
  109OSM   H12S11247   3.809   1.123   9.072 -0.5410  0.3592 -0.8574
  109OSM   H12T11248   3.683   1.246   9.105  1.0486 -0.5077 -1.0259
  109OSM   C13S11249   3.603   1.049   9.072  0.1825  0.6903 -0.3743
  109OSM   H13S11250   3.509   1.097   9.108  0.5908  0.1167  1.5959
  109OSM   H13T11251   3.615   0.954   9.129 -0.2456  0.5993 -0.4333
  109OSM   C14S11252   3.605   1.041   8.922 -0.3126 -0.9429 -0.0164
  109OSM   H14S11253   3.647   1.138   8.885  0.3237 -1.6426 -1.2101
  109OSM   H14T11254   3.506   1.020   8.877 -0.2698  0.3463 -0.7751
  109OSM   C15S11255   3.703   0.944   8.848  0.3667 -0.6664  0.1040
  109OSM   H15S11256   3.669   0.839   8.863  1.2576 -1.1535 -1.2112
  109OSM   H15T11257   3.796   0.964   8.905  0.9298 -0.6042 -0.8367
  109OSM   C16S11258   3.726   0.984   8.703 -0.0927 -0.4461  0.5594
  109OSM   H16S11259   3.759   1.090   8.688  1.1604 -0.8963 -0.0759
  109OSM   H16T11260   3.633   0.981   8.643  1.0167 -0.4853 -1.2646
  109OSM   C17S11261   3.814   0.899   8.622  0.9216 -0.7132  0.6531
  109OSM   H17S11262   3.781   0.793   8.625  1.6223 -1.0497 -1.7188
  109OSM   H17T11263   3.916   0.905   8.665  1.2017  3.7665 -0.1213
  109OSM   C18S11264   3.818   0.954   8.478  0.5648 -0.0095  0.6134
  109OSM   H18S11265   3.714   0.958   8.440  0.4212 -2.7993  0.4713
  109OSM   H18T11266   3.879   0.893   8.408  1.4676  0.9072  0.5840
  109OSM   H18U11267   3.865   1.054   8.472  0.5220 -0.0489 -0.6977
  109OSM    C1F11268   3.906   0.864  10.110 -0.3863  0.4724  0.9250
  109OSM     OF11269   3.869   0.751  10.085  0.0450  0.2877 -0.0838
  109OSM    C2F11270   4.042   0.905  10.061 -0.0425  0.7343 -0.6766
  109OSM    H2F11271   4.103   0.926  10.151  0.6682  3.4377 -1.6786
  109OSM    H2G11272   4.024   0.998  10.003 -0.7147  0.5153 -0.8330
  109OSM    C3F11273   4.120   0.804   9.968  0.1044 -0.2938 -0.2507
  109OSM    H3F11274   4.097   0.708  10.020  1.4051  0.3059  1.5167
  109OSM    H3G11275   4.229   0.818   9.983 -0.0636  0.1018  0.6502
  109OSM    C4F11276   4.071   0.812   9.824  0.0872 -0.2057  0.2785
  109OSM    H4F11277   3.960   0.816   9.816  0.1664 -0.4503 -1.1863
  109OSM    H4G11278   4.120   0.733   9.763  1.2988  0.6722  0.0659
  109OSM    C5F11279   4.123   0.943   9.752  0.2758  0.2699  0.1839
  109OSM    H5F11280   4.231   0.940   9.778 -0.0301  0.5182  1.5419
  109OSM    H5G11281   4.086   1.040   9.792 -1.4289  0.5016 -1.7835
  109OSM    C6F11282   4.105   0.932   9.597 -0.0778 -0.1277  0.3926
  109OSM    H6F11283   4.000   0.911   9.570 -0.9883  2.0405  1.8836
  109OSM    H6G11284   4.169   0.855   9.549  0.2710  0.6269 -0.3691
  109OSM    C7F11285   4.139   1.071   9.539  0.5405 -0.0629 -0.0369
  109OSM    H7F11286   4.244   1.097   9.565  1.1630  0.0116 -2.3218
  109OSM    H7G11287   4.073   1.147   9.584 -1.2462 -1.5923  0.0762
  109OSM    C8F11288   4.127   1.074   9.386  0.2536 -0.3387  0.8009
  109OSM    H8F11289   4.172   1.166   9.342  0.4685 -1.3277 -1.1734
  109OSM    H8G11290   4.018   1.074   9.364  0.4183 -1.7552 -0.1242
  109OSM    C9F11291   4.174   0.950   9.307 -1.1879  0.0896  0.3901
  109OSM    H9F11292   4.217   0.871   9.370  0.6201  2.0363  1.7629
  109OSM   C10F11293   4.161   0.929   9.169 -0.1436  0.5467  0.6212
  109OSM   H10F11294   4.195   0.836   9.120  0.2236  0.0466  1.7819
  109OSM   C11F11295   4.091   1.016   9.072  0.3496 -0.6032  0.0039
  109OSM   H11F11296   4.076   1.119   9.112 -2.4447 -1.1339  0.5159
  109OSM   H11G11297   3.991   0.970   9.056 -1.2995  3.2563 -2.1066
  109OSM   C12F11298   4.167   1.031   8.934  0.0727 -0.1113 -0.9038
  109OSM   H12F11299   4.192   0.932   8.890  1.0185 -0.9538  1.3581
  109OSM   H12G11300   4.263   1.082   8.955 -0.1647  0.4283 -1.1196
  109OSM   C13F11301   4.085   1.106   8.835  0.0256 -0.7804  0.2066
  109OSM   H13F11302   4.058   1.210   8.860 -1.8154 -1.3309  0.6147
  109OSM   H13G11303   3.995   1.041   8.828  0.8545 -1.8939 -0.4884
  109OSM   C14F11304   4.127   1.107   8.690 -0.3465  0.3747  0.5446
  109OSM   H14F11305   4.037   1.108   8.624 -1.9482 -1.1026  2.5883
  109OSM   H14G11306   4.182   1.012   8.676 -1.5117 -0.2104 -0.2318
  109OSM   C15F11307   4.214   1.229   8.651 -0.0014  0.6176  0.5670
  109OSM   H15F11308   4.261   1.250   8.749 -2.0905  0.8077  1.5949
  109OSM   H15G11309   4.152   1.318   8.629 -1.9166  0.2484  3.8725
  109OSM   C16F11310   4.296   1.193   8.534  0.1777 -0.0250 -0.5796
  109OSM   H16F11311   4.229   1.175   8.447  1.4856 -1.0022 -1.4176
  109OSM   H16G11312   4.365   1.109   8.553  0.5621  0.7114  1.6493
  109OSM   C17F11313   4.390   1.305   8.485  0.0995 -0.2700 -0.3963
  109OSM   H17F11314   4.439   1.255   8.399 -3.2175 -0.4306 -2.3527
  109OSM   H17G11315   4.460   1.338   8.564 -0.6879 -0.5168  0.4202
  109OSM   C18F11316   4.316   1.425   8.432 -0.0638 -0.1186  0.1596
  109OSM   H18F11317   4.273   1.401   8.333 -1.6199  1.1737  0.4823
  109OSM   H18G11318   4.387   1.509   8.415  1.6007 -2.0010 -2.9822
  109OSM   H18H11319   4.232   1.465   8.493 -0.5129  1.2721 -1.3013
  110OSM      N11320   5.909   0.053  11.106  0.3340  0.4609  0.7988
  110OSM    C1511321   5.884   0.167  11.201  0.3207  0.2439 -0.3434
  110OSM   H15A11322   5.798   0.150  11.264  0.5236 -0.7331 -0.3152
  110OSM   H15B11323   5.875   0.263  11.153  2.7917  1.3393  1.2162
  110OSM   H15C11324   5.966   0.181  11.269  0.3587 -0.6916 -0.1820
  110OSM    C1411325   5.814   0.061  10.991 -0.8220  0.0091 -0.2159
  110OSM   H14A11326   5.828   0.153  10.937  1.9619  0.5547  1.2560
  110OSM   H14B11327   5.715   0.046  11.030 -1.0733  0.2678 -0.7556
  110OSM   H14C11328   5.842  -0.022  10.927 -2.4830 -0.0545 -0.9053
  110OSM    C1311329   6.055   0.066  11.078 -0.2304 -1.0781  0.0978
  110OSM   H13A11330   6.119   0.054  11.164 -1.3190 -1.1071  0.9226
  110OSM   H13B11331   6.079   0.168  11.054 -1.1849 -0.1881  2.5486
  110OSM   H13C11332   6.092   0.004  10.998 -0.6842 -0.4170 -0.6344
  110OSM    C1211333   5.883  -0.085  11.170  0.4590 -0.3330  0.2181
  110OSM   H12A11334   5.776  -0.096  11.178  0.1973  0.7671 -1.3393
  110OSM   H12B11335   5.907  -0.088  11.275  0.1417 -0.3564  0.2906
  110OSM    C1111336   5.941  -0.214  11.106  0.6289  0.0755 -0.3770
  110OSM   H11A11337   5.891  -0.294  11.164 -0.7138  0.7760 -0.5230
  110OSM   H11B11338   6.048  -0.233  11.130  0.6171  3.2648  3.2772
  110OSM      P11339   6.010  -0.207  10.853 -0.4127  0.0816 -0.3807
  110OSM    O1311340   6.136  -0.151  10.905 -0.6228  0.2685  0.0719
  110OSM    O1411341   6.007  -0.340  10.785 -0.9241  0.4500 -0.2970
  110OSM    O1111342   5.943  -0.103  10.760  0.6317  0.1649  0.2990
  110OSM    O1211343   5.898  -0.208  10.967 -0.0852 -0.2476  0.1847
  110OSM    C1S11344   5.817  -0.120  10.696  0.1164  0.1387 -0.0946
  110OSM    H1S11345   5.739  -0.148  10.770 -1.8004 -0.3751 -2.2122
  110OSM    H1T11346   5.815  -0.208  10.628 -2.6174  0.6529 -0.7912
  110OSM     NF11347   5.612  -0.001  10.591 -0.9161 -0.0857 -0.2073
  110OSM    HNF11348   5.580  -0.005  10.497 -3.7658  0.2175  0.6440
  110OSM    C2S11349   5.757   0.001  10.626 -0.9762 -0.5173  0.6152
  110OSM    H2S11350   5.777   0.085  10.695  0.2507 -0.9243  0.7855
  110OSM    C3S11351   5.848   0.033  10.510 -0.1896  0.2164  0.7342
  110OSM    H3S11352   5.825  -0.048  10.437  0.8695  1.4158 -0.9871
  110OSM     O311353   5.989   0.035  10.530  0.3456 -0.4244  0.3593
  110OSM    HO311354   5.989  -0.012  10.614 -3.4450  0.8851  1.2863
  110OSM    C4S11355   5.810   0.165  10.457 -0.2035 -0.3039 -0.0486
  110OSM    H4S11356   5.825   0.247  10.528 -4.4348  2.0204 -1.4768
  110OSM    C5S11357   5.751   0.182  10.340 -0.1710 -0.4727  0.2086
  110OSM    H5S11358   5.728   0.089  10.285 -1.8569 -0.3295  0.6059
  110OSM    C6S11359   5.704   0.317  10.288  0.2227 -1.1523  0.4805
  110OSM    H6S11360   5.743   0.397  10.354 -0.9719  0.2352 -0.4345
  110OSM    H6T11361   5.593   0.325  10.300  0.2799  0.6158  0.1204
  110OSM    C7S11362   5.746   0.325  10.136 -0.1370  0.5009 -0.1853
  110OSM    H7S11363   5.676   0.279  10.063  0.2010  1.6585 -1.2844
  110OSM    H7T11364   5.845   0.278  10.120  0.2751  0.7998  1.3691
  110OSM    C8S11365   5.765   0.469  10.086  0.3209 -0.0315 -0.6235
  110OSM    H8S11366   5.846   0.511  10.150 -0.2142 -0.2347  0.2010
  110OSM    H8T11367   5.674   0.526  10.114 -0.8569 -0.9660 -2.4031
  110OSM    C9S11368   5.807   0.468   9.930 -0.4420 -0.0599  0.1624
  110OSM    H9S11369   5.728   0.415   9.872  0.3271 -1.8303  0.6479
  110OSM    H9T11370   5.904   0.417   9.911 -1.2744 -2.1210  1.1077
  110OSM   C10S11371   5.821   0.602   9.865 -0.2061 -0.2290  0.2370
  110OSM   H10S11372   5.915   0.647   9.903 -0.4367  1.6110 -1.2093
  110OSM   H10T11373   5.730   0.663   9.889 -2.3225 -2.1175 -2.3970
  110OSM   C11S11374   5.837   0.585   9.713 -0.0783  0.7441 -0.1307
  110OSM   H11S11375   5.749   0.524   9.684  0.5026 -1.5068  2.4294
  110OSM   H11T11376   5.931   0.528   9.695 -0.1089  0.3192  1.0272
  110OSM   C12S11377   5.839   0.715   9.629 -0.5748  0.1799 -0.1905
  110OSM   H12S11378   5.899   0.787   9.689 -1.9609  0.7036  0.6019
  110OSM   H12T11379   5.737   0.758   9.635  0.2641  2.1323  1.3232
  110OSM   C13S11380   5.900   0.692   9.484  0.6345  0.6671  0.6199
  110OSM   H13S11381   5.994   0.633   9.495 -0.7825 -2.2605 -1.4871
  110OSM   H13T11382   5.921   0.791   9.437 -1.5493 -0.0916 -2.2413
  110OSM   C14S11383   5.815   0.615   9.384  0.5539  0.5235 -0.1329
  110OSM   H14S11384   5.717   0.664   9.367  0.6079  0.0543 -2.1049
  110OSM   H14T11385   5.800   0.515   9.430  1.8281  0.8729  1.1082
  110OSM   C15S11386   5.886   0.602   9.250 -0.8838 -0.5257  0.0185
  110OSM   H15S11387   5.989   0.568   9.275 -2.1455 -1.7403  4.5351
  110OSM   H15T11388   5.886   0.702   9.202  1.1394 -0.7576 -0.5561
  110OSM   C16S11389   5.842   0.495   9.151  0.4201  0.2077 -0.2901
  110OSM   H16S11390   5.740   0.514   9.112  0.3275 -2.3019 -1.5002
  110OSM   H16T11391   5.854   0.396   9.202 -0.9294 -0.6009 -1.4740
  110OSM   C17S11392   5.917   0.483   9.015  0.2036 -0.0610  0.2814
  110OSM   H17S11393   5.904   0.579   8.960  1.3252  0.5409  1.0159
  110OSM   H17T11394   5.862   0.406   8.957 -1.2335  1.4573 -0.4605
  110OSM   C18S11395   6.064   0.447   9.028 -0.0032 -0.1035 -0.4504
  110OSM   H18S11396   6.074   0.372   9.109  1.0635 -1.1530 -1.4924
  110OSM   H18T11397   6.131   0.532   9.051  0.6171 -0.1795 -1.8334
  110OSM   H18U11398   6.112   0.419   8.931  0.4512  0.7667 -0.4844
  110OSM    C1F11399   5.522  -0.009  10.685  0.5236 -0.2550 -0.0581
  110OSM     OF11400   5.561  -0.007  10.807  0.1722 -0.1144 -0.0983
  110OSM    C2F11401   5.376  -0.001  10.636 -0.7644 -0.4968  0.1780
  110OSM    H2F11402   5.356   0.049  10.539 -0.2328  0.2749  0.4616
  110OSM    H2G11403   5.324   0.066  10.707 -0.8146 -0.5026  0.1462
  110OSM    C3F11404   5.304  -0.141  10.648  0.2228  0.2259  0.0329
  110OSM    H3F11405   5.324  -0.179  10.750 -1.0727  0.1372  0.2706
  110OSM    H3G11406   5.349  -0.214  10.577  3.2423  0.5664  1.4359
  110OSM    C4F11407   5.150  -0.132  10.632  0.3815 -0.3385 -0.1355
  110OSM    H4F11408   5.105  -0.065  10.708  1.0054  0.5531 -0.5258
  110OSM    H4G11409   5.109  -0.229  10.667 -0.9026 -0.4108 -1.7764
  110OSM    C5F11410   5.105  -0.096  10.490  0.2003 -0.2312  0.4476
  110OSM    H5F11411   5.158  -0.170  10.426  3.2253  0.6217  1.8007
  110OSM    H5G11412   5.134   0.003  10.449  0.0510  0.4366  1.8858
  110OSM    C6F11413   4.951  -0.088  10.476 -0.0894  0.4846  0.2852
  110OSM    H6F11414   4.911  -0.021  10.555 -1.0151  1.4801 -0.9861
  110OSM    H6G11415   4.906  -0.185  10.509  2.4030 -0.0175  2.4990
  110OSM    C7F11416   4.905  -0.026  10.349 -0.1724 -0.0418 -0.1878
  110OSM    H7F11417   4.931  -0.084  10.259 -0.6475 -0.3646 -0.1214
  110OSM    H7G11418   4.955   0.072  10.335 -0.8498  0.5227  1.0975
  110OSM    C8F11419   4.748   0.003  10.353 -0.0851 -0.6425  0.0220
  110OSM    H8F11420   4.711   0.048  10.447 -3.3007  0.7835 -1.7426
  110OSM    H8G11421   4.696  -0.095  10.349 -1.0325 -0.2731  2.0539
  110OSM    C9F11422   4.697   0.095  10.246 -0.8178 -0.7215  0.1981
  110OSM    H9F11423   4.671   0.196  10.283  0.7507  0.1026 -0.8285
  110OSM   C10F11424   4.681   0.078  10.116 -0.3126 -0.2538  0.0459
  110OSM   H10F11425   4.650   0.171  10.065 -0.0780  0.4654  1.1777
  110OSM   C11F11426   4.707  -0.053  10.043  0.0573 -0.1982 -0.2732
  110OSM   H11F11427   4.609  -0.076   9.997 -0.1917  0.4929 -0.1005
  110OSM   H11G11428   4.740  -0.142  10.101 -1.6551 -1.1496 -0.7043
  110OSM   C12F11429   4.804  -0.038   9.920  0.1994 -0.4075 -0.2105
  110OSM   H12F11430   4.905  -0.023   9.965  1.5456  2.0754 -3.6114
  110OSM   H12G11431   4.785   0.056   9.864 -2.8737 -0.6737  0.2003
  110OSM   C13F11432   4.807  -0.153   9.817  0.6504 -0.3331 -0.6666
  110OSM   H13F11433   4.864  -0.239   9.856  0.7635  0.3106  0.6100
  110OSM   H13G11434   4.870  -0.115   9.734  0.8048  0.6003 -0.1364
  110OSM   C14F11435   4.664  -0.174   9.760 -0.0868  1.1173 -0.3033
  110OSM   H14F11436   4.612  -0.081   9.728 -1.7463 -0.0138 -1.0407
  110OSM   H14G11437   4.613  -0.223   9.846  1.1098  0.7521  0.2269
  110OSM   C15F11438   4.657  -0.271   9.637 -0.5793  0.1452  0.9037
  110OSM   H15F11439   4.563  -0.330   9.640 -2.0459  2.3227  0.1071
  110OSM   H15G11440   4.749  -0.334   9.641 -1.9010 -1.9369  0.3009
  110OSM   C16F11441   4.656  -0.204   9.498  0.3823  0.3398 -0.2976
  110OSM   H16F11442   4.754  -0.161   9.467  0.3085 -0.0916 -1.1512
  110OSM   H16G11443   4.580  -0.124   9.508 -0.1927 -0.2861  0.4349
  110OSM   C17F11444   4.597  -0.305   9.389 -0.5510  0.3083 -0.4282
  110OSM   H17F11445   4.492  -0.315   9.423  0.0446  0.9273  1.7047
  110OSM   H17G11446   4.654  -0.399   9.404 -0.5735  0.2509 -0.6923
  110OSM   C18F11447   4.603  -0.250   9.250  0.0080  0.9064 -0.4987
  110OSM   H18F11448   4.708  -0.244   9.214  1.4130 -1.8380  2.5565
  110OSM   H18G11449   4.553  -0.151   9.252 -1.3444  0.2378 -0.0259
  110OSM   H18H11450   4.540  -0.313   9.183 -0.8161 -0.3687  1.3640
  111OSM      N11451   6.308   4.743  10.845 -0.5559  0.2994 -0.0546
  111OSM    C1511452   6.396   4.803  10.952  0.4705  0.0825  0.5629
  111OSM   H15A11453   6.499   4.777  10.932 -0.2052 -2.3258 -0.0957
  111OSM   H15B11454   6.385   4.761  11.051 -0.7826 -2.1020 -0.4273
  111OSM   H15C11455   6.392   4.911  10.962 -0.9391 -0.1316  3.2275
  111OSM    C1411456   6.321   4.595  10.852 -0.9933  0.3612 -0.2469
  111OSM   H14A11457   6.239   4.541  10.805 -0.7025 -0.4717  0.1888
  111OSM   H14B11458   6.326   4.565  10.955 -2.3001 -0.9989 -0.5321
  111OSM   H14C11459   6.417   4.556  10.821 -0.4250  1.5493 -0.0191
  111OSM    C1311460   6.165   4.767  10.886 -0.0875 -0.0397  0.5785
  111OSM   H13A11461   6.150   4.715  10.979 -0.9321 -0.3765  0.2676
  111OSM   H13B11462   6.094   4.739  10.810 -1.5590  0.2932  1.7717
  111OSM   H13C11463   6.147   4.870  10.913  2.5213  0.4422  0.7239
  111OSM    C1211464   6.350   4.794  10.703 -0.4993  0.0564 -0.3223
  111OSM   H12A11465   6.443   4.744  10.677 -0.8942 -1.4865  1.0511
  111OSM   H12B11466   6.371   4.900  10.706 -0.4384  0.0604 -0.7468
  111OSM    C1111467   6.248   4.773  10.583 -0.4723 -0.2803 -0.4255
  111OSM   H11A11468   6.303   4.818  10.498  0.3983  3.5653  1.9009
  111OSM   H11B11469   6.163   4.843  10.595 -0.3468 -0.1477 -0.2844
  111OSM      P11470   6.059   4.593  10.585 -0.2274 -0.3473 -0.0861
  111OSM    O1311471   6.064   4.451  10.605 -0.3622  0.2330  0.1457
  111OSM    O1411472   5.978   4.665  10.688  0.8906  0.1850 -0.2929
  111OSM    O1111473   6.005   4.630  10.443  0.2101  0.7620  0.2469
  111OSM    O1211474   6.215   4.636  10.573  0.2144 -0.0761  0.4302
  111OSM    C1S11475   6.062   4.578  10.327 -0.0424  0.6991  0.0577
  111OSM    H1S11476   6.023   4.475  10.309  0.2632  0.7239 -0.7874
  111OSM    H1T11477   6.172   4.569  10.323 -0.1048  0.2808 -3.3231
  111OSM     NF11478   6.082   4.600  10.080 -0.1349 -0.2834  0.0805
  111OSM    HNF11479   6.172   4.628  10.047  0.6328 -1.5188  1.0197
  111OSM    C2S11480   6.029   4.659  10.199  0.6574  0.3091 -0.0547
  111OSM    H2S11481   5.919   4.649  10.189  0.9904 -3.4256 -1.6873
  111OSM    C3S11482   6.067   4.807  10.227 -0.0361 -0.1544 -0.0638
  111OSM    H3S11483   6.164   4.816  10.281 -0.1747 -1.3640  0.4115
  111OSM     O311484   5.978   4.878  10.311 -0.2999  0.1053 -0.2121
  111OSM    HO311485   5.929   4.812  10.361  3.4904 -1.9865  1.1633
  111OSM    C4S11486   6.088   4.887  10.107  0.6129  0.0191  0.1038
  111OSM    H4S11487   6.191   4.876  10.070  0.2543 -1.9141 -0.4106
  111OSM    C5S11488   5.997   4.960  10.043  0.0513  0.0400  0.3526
  111OSM    H5S11489   5.892   4.945  10.070  0.9779 -2.8655  2.9956
  111OSM    C6S11490   6.026   5.042   9.919 -0.0326  0.1631  0.3753
  111OSM    H6S11491   5.987   5.146   9.924  0.4864  0.3218  1.3294
  111OSM    H6T11492   5.956   5.001   9.843 -2.7575  0.4881  2.5126
  111OSM    C7S11493   6.171   5.046   9.855 -0.3269 -0.0241  0.2581
  111OSM    H7S11494   6.246   5.061   9.936  0.3686 -1.3399 -0.1069
  111OSM    H7T11495   6.180   5.138   9.794  0.7173 -0.1863  0.1463
  111OSM    C8S11496   6.202   4.921   9.769  0.2721 -0.3240  0.1877
  111OSM    H8S11497   6.184   4.828   9.826  0.9853 -1.3315 -1.1702
  111OSM    H8T11498   6.308   4.929   9.736  0.0305 -0.4252 -0.6479
  111OSM    C9S11499   6.128   4.896   9.629 -0.1686 -0.4134 -0.2428
  111OSM    H9S11500   6.018   4.899   9.648  0.1751  0.4843  1.8534
  111OSM    H9T11501   6.164   4.806   9.575  3.7364  2.9979 -4.1139
  111OSM   C10S11502   6.159   5.015   9.533  0.9372  0.6045 -0.6718
  111OSM   H10S11503   6.262   5.052   9.550  1.0758 -0.5144  1.2707
  111OSM   H10T11504   6.094   5.101   9.560 -0.8897 -0.7837 -0.4534
  111OSM   C11S11505   6.115   4.982   9.389 -0.5605 -0.0850 -0.4323
  111OSM   H11S11506   6.093   5.076   9.334  1.6437  0.7117 -0.0519
  111OSM   H11T11507   6.018   4.927   9.392 -0.1703 -0.7548  0.5302
  111OSM   C12S11508   6.227   4.907   9.323 -0.5918  0.4352  0.7554
  111OSM   H12S11509   6.254   4.819   9.385  1.8403  2.0094  2.0590
  111OSM   H12T11510   6.316   4.973   9.319  0.3052 -0.7610  0.5896
  111OSM   C13S11511   6.204   4.857   9.178  0.0694 -0.4946  0.8983
  111OSM   H13S11512   6.109   4.801   9.188  0.3275 -1.2399 -0.6300
  111OSM   H13T11513   6.284   4.784   9.156  0.3746  0.2520 -0.5889
  111OSM   C14S11514   6.214   4.968   9.078 -0.1172 -0.5410 -0.1319
  111OSM   H14S11515   6.322   4.989   9.064 -0.2998 -0.6720 -2.0830
  111OSM   H14T11516   6.168   5.061   9.117  1.9831  0.5027  0.0408
  111OSM   C15S11517   6.173   4.924   8.931  0.2348  0.0193 -0.0040
  111OSM   H15S11518   6.066   4.896   8.945  0.3983 -1.9957 -2.1497
  111OSM   H15T11519   6.228   4.832   8.899  1.9171 -0.0760  2.8084
  111OSM   C16S11520   6.194   5.026   8.828  0.7626  0.0723  0.4896
  111OSM   H16S11521   6.299   5.064   8.838  1.5091 -0.5129 -3.5046
  111OSM   H16T11522   6.121   5.108   8.841 -0.0559 -0.6462  0.4737
  111OSM   C17S11523   6.176   4.979   8.683 -0.2688 -0.1322 -0.1256
  111OSM   H17S11524   6.256   4.905   8.660  0.9584  1.0907  0.0480
  111OSM   H17T11525   6.201   5.067   8.619  3.1953 -1.6775 -1.1856
  111OSM   C18S11526   6.030   4.929   8.648  0.0016 -0.2848  0.0032
  111OSM   H18S11527   5.965   5.017   8.663 -1.1059 -1.4111  2.2345
  111OSM   H18T11528   5.996   4.853   8.721  1.2812 -1.0424 -0.1496
  111OSM   H18U11529   6.045   4.893   8.543 -0.0983 -2.2758  0.6391
  111OSM    C1F11530   6.033   4.484  10.039 -0.5170  0.1322 -0.5562
  111OSM     OF11531   5.947   4.426  10.098  0.4163  0.3172  0.0699
  111OSM    C2F11532   6.091   4.428   9.916 -0.3855  0.6489 -0.1325
  111OSM    H2F11533   6.194   4.389   9.932 -0.0520  1.6315  0.1850
  111OSM    H2G11534   6.113   4.519   9.855  0.7937  0.5507  0.1214
  111OSM    C3F11535   5.978   4.346   9.842  0.7394  0.1397 -0.1895
  111OSM    H3F11536   5.899   4.422   9.826  1.0414  0.2967 -1.0325
  111OSM    H3G11537   5.944   4.260   9.904 -0.4222  1.1119  0.5516
  111OSM    C4F11538   6.027   4.304   9.702 -0.3232  0.2724  0.0858
  111OSM    H4F11539   5.940   4.259   9.651 -1.5061  3.0399 -0.5009
  111OSM    H4G11540   6.106   4.225   9.704 -0.9130 -0.3342  2.4496
  111OSM    C5F11541   6.085   4.420   9.607  1.1388  1.1902 -0.1361
  111OSM    H5F11542   6.190   4.443   9.634  1.0241  2.8632 -0.9841
  111OSM    H5G11543   6.034   4.517   9.620  0.0359  0.4644  1.2470
  111OSM    C6F11544   6.073   4.388   9.459  0.0882 -0.0862  0.6909
  111OSM    H6F11545   5.967   4.394   9.426  0.5713 -1.3934 -1.2753
  111OSM    H6G11546   6.102   4.283   9.440  0.8733  0.1902  0.3314
  111OSM    C7F11547   6.167   4.476   9.367  0.6279 -0.2636 -0.5103
  111OSM    H7F11548   6.271   4.466   9.405  0.7589  0.0259 -0.7886
  111OSM    H7G11549   6.137   4.583   9.372 -0.8170 -0.6900  1.5394
  111OSM    C8F11550   6.168   4.417   9.224  0.1102 -0.0566  0.0980
  111OSM    H8F11551   6.068   4.403   9.178 -0.0494 -2.1183  0.9695
  111OSM    H8G11552   6.210   4.314   9.226 -0.4194 -0.3115 -1.1088
  111OSM    C9F11553   6.263   4.503   9.142 -0.3723 -0.3316 -0.0158
  111OSM    H9F11554   6.345   4.562   9.184 -0.5324 -0.0736 -0.0620
  111OSM   C10F11555   6.238   4.534   9.022 -0.6289 -0.9593  0.1084
  111OSM   H10F11556   6.304   4.605   8.970 -2.1756 -0.5153 -1.3640
  111OSM   C11F11557   6.126   4.480   8.936 -0.6743  0.1570 -0.1497
  111OSM   H11F11558   6.125   4.536   8.840 -2.5856  1.8361  0.7763
  111OSM   H11G11559   6.025   4.485   8.983 -0.0229 -0.9537  1.4726
  111OSM   C12F11560   6.151   4.332   8.886 -0.1777 -0.8382 -0.0530
  111OSM   H12F11561   6.057   4.298   8.837 -0.2555 -0.3835 -0.2188
  111OSM   H12G11562   6.166   4.272   8.979 -1.4486  0.9016  1.3610
  111OSM   C13F11563   6.273   4.322   8.802  0.6701  0.5194  0.5505
  111OSM   H13F11564   6.363   4.350   8.861  1.1601 -1.1697  0.6573
  111OSM   H13G11565   6.277   4.390   8.715 -2.1375 -1.6232 -1.4779
  111OSM   C14F11566   6.295   4.171   8.766  0.2195 -0.5378 -0.1591
  111OSM   H14F11567   6.202   4.136   8.716  0.1713  0.0008 -0.4626
  111OSM   H14G11568   6.312   4.114   8.859  0.0215  0.6735  0.6523
  111OSM   C15F11569   6.417   4.151   8.671  0.4312 -0.4002 -0.0996
  111OSM   H15F11570   6.502   4.201   8.723  0.1312 -0.9503  0.9584
  111OSM   H15G11571   6.400   4.214   8.581 -0.0986  1.0594  0.9778
  111OSM   C16F11572   6.441   4.000   8.639 -0.1065 -0.2971  0.1727
  111OSM   H16F11573   6.496   3.991   8.544  0.8533  0.5368  0.6360
  111OSM   H16G11574   6.346   3.948   8.611  0.9643 -2.3516  0.1255
  111OSM   C17F11575   6.503   3.925   8.761  0.1813 -0.3204 -0.8290
  111OSM   H17F11576   6.427   3.930   8.841  2.0082 -0.5478  1.0079
  111OSM   H17G11577   6.602   3.965   8.793  0.6255 -2.5885  0.8935
  111OSM   C18F11578   6.516   3.771   8.743 -0.2456  0.0099  0.1134
  111OSM   H18F11579   6.427   3.729   8.691  0.2413 -1.0069  0.0734
  111OSM   H18G11580   6.528   3.724   8.843 -0.8166 -2.1091 -0.7588
  111OSM   H18H11581   6.607   3.752   8.683 -1.6625 -0.4501 -1.9924
  112OSM      N11582   1.068   1.817  10.617 -0.2136 -0.0612  0.2252
  112OSM    C1511583   1.136   1.948  10.634  0.4646  0.3429 -0.3482
  112OSM   H15A11584   1.094   2.021  10.566 -1.3703 -0.3990 -0.0598
  112OSM   H15B11585   1.237   1.940  10.596  0.7039  0.3738  0.2722
  112OSM   H15C11586   1.148   1.989  10.733  3.0124  1.8871 -1.1721
  112OSM    C1411587   1.068   1.770  10.475 -0.0681  0.5040 -0.4912
  112OSM   H14A11588   1.155   1.711  10.454  0.3594  0.9188  0.0863
  112OSM   H14B11589   1.059   1.847  10.400 -0.5619  1.1740  0.2351
  112OSM   H14C11590   0.985   1.702  10.471  2.0157 -2.1310 -1.4898
  112OSM    C1311591   1.130   1.720  10.706  0.4386 -0.2922  0.0356
  112OSM   H13A11592   1.122   1.747  10.810 -1.2855 -1.3707  0.2184
  112OSM   H13B11593   1.235   1.711  10.680 -0.0818 -0.9737 -2.0070
  112OSM   H13C11594   1.082   1.627  10.683 -0.2430 -0.1437  0.8241
  112OSM    C1211595   0.925   1.835  10.658  0.7212 -0.6636  0.0977
  112OSM   H12A11596   0.877   1.906  10.592  0.0244  0.7395  2.0148
  112OSM   H12B11597   0.933   1.891  10.750  4.2443 -2.3089  0.9555
  112OSM    C1111598   0.836   1.712  10.688  0.1173  0.0504  0.6996
  112OSM   H11A11599   0.740   1.760  10.714  0.4371  2.0970 -1.5631
  112OSM   H11B11600   0.894   1.660  10.767  0.9238 -1.9919 -1.1354
  112OSM      P11601   0.848   1.471  10.587  0.6284 -0.0025 -0.0422
  112OSM    O1311602   0.993   1.456  10.600 -0.0083 -0.5822  0.1831
  112OSM    O1411603   0.777   1.417  10.700  0.2486 -0.0193  0.3184
  112OSM    O1111604   0.799   1.402  10.458 -0.7339  0.3353  0.3003
  112OSM    O1211605   0.816   1.626  10.571 -0.2631  0.0538  0.4199
  112OSM    C1S11606   0.815   1.471  10.329  0.2726 -0.4400 -0.6199
  112OSM    H1S11607   0.921   1.503  10.318  0.0844  1.2566  1.7018
  112OSM    H1T11608   0.743   1.555  10.327 -0.2986 -0.9327 -2.3433
  112OSM     NF11609   0.846   1.411  10.091 -0.4615 -0.1202 -0.5096
  112OSM    HNF11610   0.792   1.456  10.020 -1.4986  1.6167  1.2621
  112OSM    C2S11611   0.772   1.381  10.211  0.4243  0.3259  0.0769
  112OSM    H2S11612   0.805   1.278  10.237 -1.4572 -0.1770  0.6785
  112OSM    C3S11613   0.616   1.381  10.200  0.7382  0.4926 -0.2398
  112OSM    H3S11614   0.585   1.485  10.175  1.4991  0.7235 -0.2450
  112OSM     O311615   0.548   1.351  10.325 -0.5638  0.0360  0.0548
  112OSM    HO311616   0.616   1.352  10.392  0.6201  1.3270 -1.1017
  112OSM    C4S11617   0.571   1.294  10.085  0.1010  0.0506  0.0245
  112OSM    H4S11618   0.587   1.339   9.986  2.1249 -1.1516 -0.2392
  112OSM    C5S11619   0.531   1.163  10.092 -0.0784  0.3902  0.5846
  112OSM    H5S11620   0.531   1.112  10.189  2.2961 -1.8017 -0.4402
  112OSM    C6S11621   0.485   1.087   9.971 -0.2514 -0.3939  0.3891
  112OSM    H6S11622   0.381   1.062  10.001  0.1088  0.9128  2.9309
  112OSM    H6T11623   0.537   0.991   9.952  2.2136  1.1726 -1.4253
  112OSM    C7S11624   0.505   1.165   9.836  0.9017  0.3124 -0.0578
  112OSM    H7S11625   0.612   1.195   9.832  0.8273  0.7192  0.7784
  112OSM    H7T11626   0.453   1.262   9.827  0.6494  0.1634 -0.2223
  112OSM    C8S11627   0.456   1.081   9.720  0.2607 -0.1250  0.3714
  112OSM    H8S11628   0.357   1.043   9.756 -0.1872 -0.6483 -1.3223
  112OSM    H8T11629   0.522   0.992   9.722  0.2746 -0.1082  1.2492
  112OSM    C9S11630   0.449   1.164   9.590 -0.2338 -0.0268  0.1629
  112OSM    H9S11631   0.548   1.213   9.582  0.3954 -1.4234 -1.3615
  112OSM    H9T11632   0.368   1.239   9.594  0.3377  0.6004  0.1955
  112OSM   C10S11633   0.422   1.072   9.474  0.4188  0.8506  0.2360
  112OSM   H10S11634   0.326   1.018   9.488  0.5694  0.7242  0.8237
  112OSM   H10T11635   0.507   1.000   9.483 -0.4201  0.1276  5.0729
  112OSM   C11S11636   0.442   1.135   9.335  0.1958  0.8170 -0.4160
  112OSM   H11S11637   0.550   1.143   9.308  0.7614 -1.5791  0.9088
  112OSM   H11T11638   0.406   1.238   9.312  0.2957  0.9776  0.1192
  112OSM   C12S11639   0.384   1.038   9.231  0.2581  0.7012  0.2220
  112OSM   H12S11640   0.279   1.013   9.258  0.2706 -1.0003 -1.1598
  112OSM   H12T11641   0.439   0.942   9.230 -2.3966 -0.9255  0.1935
  112OSM   C13S11642   0.406   1.108   9.091  0.2550  0.0393  0.3147
  112OSM   H13S11643   0.491   1.178   9.107  0.0256 -0.0616  2.1865
  112OSM   H13T11644   0.323   1.179   9.069  1.3212  1.2471  0.0743
  112OSM   C14S11645   0.415   1.001   8.982 -0.2362  0.1404  1.1742
  112OSM   H14S11646   0.321   0.942   8.970 -1.1761  1.4883  1.7291
  112OSM   H14T11647   0.502   0.935   9.002  1.4427  1.7551 -0.3960
  112OSM   C15S11648   0.469   1.065   8.853  0.6650  0.2644  0.3926
  112OSM   H15S11649   0.571   1.107   8.868  0.0922  1.6098  0.6262
  112OSM   H15T11650   0.409   1.154   8.824  0.9186  0.4792  0.5166
  112OSM   C16S11651   0.482   0.970   8.733 -0.6043 -1.5472 -0.5220
  112OSM   H16S11652   0.378   0.941   8.706 -1.3518  0.4576 -0.0456
  112OSM   H16T11653   0.532   0.877   8.765  1.4024 -0.5833 -0.7179
  112OSM   C17S11654   0.550   1.042   8.618 -0.3621  0.1705 -0.1508
  112OSM   H17S11655   0.651   1.071   8.653  0.1896 -0.2314 -1.3541
  112OSM   H17T11656   0.509   1.142   8.590 -1.8213  0.1257  1.6577
  112OSM   C18S11657   0.555   0.961   8.492  0.0960  0.2355 -0.1585
  112OSM   H18S11658   0.449   0.941   8.467 -0.1064 -2.6727  2.4114
  112OSM   H18T11659   0.604   0.862   8.505  1.5487  0.9448  0.0708
  112OSM   H18U11660   0.616   1.010   8.412  2.1332 -1.8000  0.0336
  112OSM    C1F11661   0.975   1.378  10.071  0.1192 -0.2739 -0.2194
  112OSM     OF11662   1.050   1.361  10.158 -0.2288 -0.1056 -0.8371
  112OSM    C2F11663   1.017   1.344   9.929 -1.0737 -0.0501 -0.1153
  112OSM    H2F11664   0.929   1.307   9.872 -1.7574 -0.4360  1.1440
  112OSM    H2G11665   1.090   1.261   9.928 -1.5351 -0.4992  1.0752
  112OSM    C3F11666   1.095   1.463   9.866 -0.4167  0.1533  0.4241
  112OSM    H3F11667   1.188   1.487   9.923  0.0562  4.6189 -1.7573
  112OSM    H3G11668   1.036   1.557   9.875  0.6331  0.6304  4.0405
  112OSM    C4F11669   1.147   1.450   9.721 -0.4760  0.0660 -0.2350
  112OSM    H4F11670   1.077   1.422   9.639 -0.1746 -1.1938 -0.0782
  112OSM    H4G11671   1.228   1.374   9.721  0.7957  1.2955  2.6071
  112OSM    C5F11672   1.229   1.585   9.684 -0.4087  0.1215 -0.4833
  112OSM    H5F11673   1.316   1.567   9.750 -0.2291  0.7860 -0.5344
  112OSM    H5G11674   1.169   1.674   9.711  0.7213  0.4920  0.8756
  112OSM    C6F11675   1.277   1.594   9.534 -0.3259 -1.0940 -0.1292
  112OSM    H6F11676   1.317   1.494   9.505  2.1204 -0.3522  0.5095
  112OSM    H6G11677   1.366   1.659   9.528 -0.8239 -0.1591  1.8395
  112OSM    C7F11678   1.164   1.642   9.443  0.1772  0.2730  0.1754
  112OSM    H7F11679   1.115   1.734   9.483 -0.7096 -0.4500  0.8082
  112OSM    H7G11680   1.081   1.569   9.430 -0.0535  0.6646 -0.6132
  112OSM    C8F11681   1.227   1.678   9.300  0.4475  0.1005  0.4113
  112OSM    H8F11682   1.293   1.764   9.326 -0.1373  0.5236  0.5183
  112OSM    H8G11683   1.145   1.704   9.229 -0.6581  1.6068  2.1250
  112OSM    C9F11684   1.313   1.556   9.249 -0.0157 -0.2177  0.1263
  112OSM    H9F11685   1.290   1.451   9.272 -0.3597 -0.3230 -0.6699
  112OSM   C10F11686   1.431   1.577   9.179  1.2288 -0.4762 -0.0610
  112OSM   H10F11687   1.487   1.493   9.136  3.3203  0.3761  0.8424
  112OSM   C11F11688   1.495   1.710   9.144 -0.1352  0.1964  0.4077
  112OSM   H11F11689   1.495   1.777   9.232 -0.0882 -1.9907  2.1680
  112OSM   H11G11690   1.439   1.767   9.067  1.8159 -0.5495 -1.6890
  112OSM   C12F11691   1.637   1.712   9.088  0.3701 -0.6377 -0.4465
  112OSM   H12F11692   1.703   1.638   9.139  0.5155 -2.3627 -2.8980
  112OSM   H12G11693   1.688   1.809   9.104 -0.6487 -0.1637 -0.0428
  112OSM   C13F11694   1.642   1.705   8.938 -0.3791  0.1439 -0.1315
  112OSM   H13F11695   1.583   1.791   8.900 -0.6806 -0.0890 -0.2022
  112OSM   H13G11696   1.594   1.608   8.913  1.6631 -0.8254 -0.4532
  112OSM   C14F11697   1.784   1.700   8.877  0.0075  0.0005 -0.4052
  112OSM   H14F11698   1.836   1.617   8.929  2.4371  0.5175 -1.8461
  112OSM   H14G11699   1.839   1.795   8.893 -0.9971  0.5460 -0.1299
  112OSM   C15F11700   1.789   1.676   8.724 -0.3097 -0.7689  0.5466
  112OSM   H15F11701   1.892   1.687   8.682  0.0935 -1.5700  1.2933
  112OSM   H15G11702   1.715   1.748   8.685  1.3893  0.5889 -0.3253
  112OSM   C16F11703   1.738   1.526   8.695 -0.7769  0.0344 -0.4733
  112OSM   H16F11704   1.628   1.519   8.709 -0.6294  0.1860  0.8170
  112OSM   H16G11705   1.785   1.457   8.768  0.7614  1.0498 -0.4677
  112OSM   C17F11706   1.791   1.483   8.554  0.5235 -0.4844  0.2076
  112OSM   H17F11707   1.900   1.461   8.555  0.8690  0.6939 -2.3813
  112OSM   H17G11708   1.768   1.567   8.484 -0.5566  0.0018  1.1232
  112OSM   C18F11709   1.717   1.362   8.497 -0.5099 -0.4782  0.1940
  112OSM   H18F11710   1.760   1.272   8.547  1.9768  1.1406  1.1381
  112OSM   H18G11711   1.732   1.342   8.389 -1.1889  0.1814 -0.0302
  112OSM   H18H11712   1.606   1.363   8.508 -0.4813 -0.8490  0.5752
  113OSM      N11713   3.592   3.662  10.782 -0.0380  0.6332  0.2362
  113OSM    C1511714   3.518   3.620  10.908 -0.7835 -0.0013 -0.0220
  113OSM   H15A11715   3.586   3.556  10.963  0.0181  0.9728  0.1502
  113OSM   H15B11716   3.437   3.556  10.876  0.4491 -0.9454 -1.4008
  113OSM   H15C11717   3.473   3.702  10.962 -1.1135  1.4456 -2.3633
  113OSM    C1411718   3.631   3.527  10.722  0.3281 -0.3632 -0.9278
  113OSM   H14A11719   3.692   3.532  10.633  1.6044 -1.9435 -0.2090
  113OSM   H14B11720   3.546   3.470  10.686 -0.1358  0.9646 -1.9993
  113OSM   H14C11721   3.676   3.459  10.793  0.3209  1.0589  0.4893
  113OSM    C1311722   3.494   3.727  10.693 -1.1222  0.2816  0.3624
  113OSM   H13A11723   3.460   3.818  10.740  1.0114  0.5186  1.5592
  113OSM   H13B11724   3.417   3.664  10.651 -0.6392 -0.4869  0.6140
  113OSM   H13C11725   3.557   3.761  10.612 -0.0747 -0.4822  0.8377
  113OSM    C1211726   3.708   3.754  10.816 -0.3678 -0.0944 -0.5142
  113OSM   H12A11727   3.776   3.713  10.889  0.7792 -0.4950 -1.7852
  113OSM   H12B11728   3.668   3.842  10.866 -2.2663  0.1209 -2.2787
  113OSM    C1111729   3.794   3.798  10.699  0.2261  1.0413 -0.0693
  113OSM   H11A11730   3.716   3.823  10.624 -0.2020  1.8361  0.6180
  113OSM   H11B11731   3.859   3.720  10.653  1.9410  3.6010 -2.3069
  113OSM      P11732   3.814   4.059  10.733 -0.2241 -0.3036  0.4046
  113OSM    O1311733   3.685   4.048  10.800 -0.2047  0.6736 -0.0873
  113OSM    O1411734   3.920   4.146  10.793 -0.2248 -0.2329 -0.6049
  113OSM    O1111735   3.797   4.103  10.575 -0.4689  0.3742 -0.7948
  113OSM    O1211736   3.874   3.908  10.732 -0.1643  0.8161  0.1785
  113OSM    C1S11737   3.891   4.074  10.477  0.0898  0.2236 -0.0439
  113OSM    H1S11738   3.890   3.968  10.445  0.0688 -1.2155  4.1063
  113OSM    H1T11739   3.995   4.078  10.515  0.3387 -1.5490 -0.4368
  113OSM     NF11740   3.918   4.091  10.223  0.4090  0.4711  0.0836
  113OSM    HNF11741   4.006   4.120  10.186  0.9017 -0.7183  0.2786
  113OSM    C2S11742   3.876   4.162  10.347  0.0507 -0.4793  0.3002
  113OSM    H2S11743   3.768   4.187  10.334  0.3004 -0.1309 -1.2463
  113OSM    C3S11744   3.949   4.293  10.370  0.5524  0.6040 -0.4298
  113OSM    H3S11745   4.057   4.268  10.368  0.8930  1.7508  1.5796
  113OSM     O311746   3.929   4.347  10.500 -0.1792 -0.2467  0.4477
  113OSM    HO311747   3.884   4.281  10.553  0.1882  0.2850  1.4512
  113OSM    C4S11748   3.916   4.393  10.270 -0.0747 -0.6133  0.0339
  113OSM    H4S11749   3.985   4.414  10.187 -1.4356  0.1288 -0.9553
  113OSM    C5S11750   3.814   4.484  10.272  0.5132  0.1628  0.7631
  113OSM    H5S11751   3.737   4.480  10.350  0.1334  1.0054  0.4405
  113OSM    C6S11752   3.793   4.597  10.165 -0.2002  0.2387 -0.7924
  113OSM    H6S11753   3.879   4.586  10.095  0.1079 -1.3715 -0.2063
  113OSM    H6T11754   3.799   4.697  10.213  2.0814 -0.4597  0.5120
  113OSM    C7S11755   3.655   4.591  10.086  0.0723 -0.0026  0.1996
  113OSM    H7S11756   3.572   4.643  10.139 -0.9421 -0.6470 -0.7320
  113OSM    H7T11757   3.623   4.490  10.053  3.4139 -0.6372 -1.5041
  113OSM    C8S11758   3.671   4.665   9.948  0.3284  0.2795 -0.3453
  113OSM    H8S11759   3.738   4.608   9.881 -0.5348  1.5625 -2.3922
  113OSM    H8T11760   3.724   4.759   9.974  1.2588 -0.0047 -1.1650
  113OSM    C9S11761   3.536   4.698   9.881 -0.1291 -0.1969  0.6087
  113OSM    H9S11762   3.474   4.738   9.965 -1.1227 -1.4001  0.4748
  113OSM    H9T11763   3.497   4.603   9.838  0.7268 -0.0829 -0.4628
  113OSM   C10S11764   3.551   4.808   9.774  0.0606 -0.3177 -0.4122
  113OSM   H10S11765   3.621   4.880   9.822  0.4612 -0.4613 -0.7752
  113OSM   H10T11766   3.452   4.859   9.773 -0.1841 -0.7364  0.7237
  113OSM   C11S11767   3.595   4.772   9.632  0.3383  0.3589 -0.5054
  113OSM   H11S11768   3.539   4.680   9.609  3.6605 -2.1637  0.6754
  113OSM   H11T11769   3.701   4.739   9.623  0.1748  0.0990 -1.5700
  113OSM   C12S11770   3.565   4.878   9.529 -0.5345  0.1441 -0.0341
  113OSM   H12S11771   3.484   4.948   9.560  1.4377  2.4507  0.1831
  113OSM   H12T11772   3.540   4.837   9.429  0.0691  0.7355 -0.4402
  113OSM   C13S11773   3.688   4.967   9.500 -0.4308 -0.4056 -0.0575
  113OSM   H13S11774   3.746   4.984   9.594 -0.2253 -2.8246  0.3249
  113OSM   H13T11775   3.654   5.058   9.448 -0.1451 -0.8381 -1.0207
  113OSM   C14S11776   3.791   4.899   9.406 -0.3364  0.1654  0.1074
  113OSM   H14S11777   3.731   4.842   9.331 -2.1063 -0.0313  1.5983
  113OSM   H14T11778   3.847   4.823   9.463 -0.2499  0.8825  0.9994
  113OSM   C15S11779   3.891   5.000   9.346  0.0625 -0.0742 -0.0197
  113OSM   H15S11780   3.976   5.021   9.415  0.0477  0.4342 -0.1466
  113OSM   H15T11781   3.833   5.094   9.331 -1.3132 -0.6365  1.5674
  113OSM   C16S11782   3.954   4.958   9.208  0.7113  0.2251  0.6563
  113OSM   H16S11783   3.993   4.856   9.231 -1.6472 -0.4401  1.9704
  113OSM   H16T11784   4.038   5.026   9.182  1.0719 -0.5438 -0.2416
  113OSM   C17S11785   3.848   4.968   9.092 -0.1901  0.1745 -0.1145
  113OSM   H17S11786   3.835   5.072   9.056 -0.3142 -0.2030 -1.1873
  113OSM   H17T11787   3.751   4.926   9.128 -0.0968  2.3424  3.1263
  113OSM   C18S11788   3.892   4.894   8.971  0.3567 -0.3225 -0.1151
  113OSM   H18S11789   3.811   4.884   8.896  1.1800 -1.6449 -0.8710
  113OSM   H18T11790   3.936   4.794   8.990  0.5693 -0.2090 -0.0092
  113OSM   H18U11791   3.966   4.956   8.916 -2.6496  2.5768 -1.2528
  113OSM    C1F11792   3.849   3.997  10.160 -0.3386  0.0725 -0.3720
  113OSM     OF11793   3.739   3.965  10.209 -0.3666  0.4335 -0.2163
  113OSM    C2F11794   3.914   3.928  10.046  0.3875  0.1365 -0.2380
  113OSM    H2F11795   4.004   3.874  10.082 -0.0680 -1.7624 -1.7702
  113OSM    H2G11796   3.950   4.005   9.974  2.4282 -0.4020  0.1263
  113OSM    C3F11797   3.817   3.830   9.978 -0.7848 -0.5164 -0.0049
  113OSM    H3F11798   3.729   3.889   9.943 -0.9440 -1.0640 -0.5386
  113OSM    H3G11799   3.792   3.750  10.052  1.8431 -0.7238  0.7634
  113OSM    C4F11800   3.890   3.758   9.864  0.0142  0.1863 -0.3429
  113OSM    H4F11801   3.815   3.693   9.814  0.0586  0.1495 -0.3612
  113OSM    H4G11802   3.979   3.708   9.907 -0.0424  2.1062  2.2750
  113OSM    C5F11803   3.936   3.857   9.749  0.2500  0.9731  0.4877
  113OSM    H5F11804   4.028   3.910   9.780  0.0527  2.3699 -1.1138
  113OSM    H5G11805   3.857   3.933   9.730 -0.3998 -0.2735 -2.5021
  113OSM    C6F11806   3.955   3.787   9.615 -0.3444 -0.1215  0.1539
  113OSM    H6F11807   3.859   3.743   9.584  0.9001 -1.3171 -2.2056
  113OSM    H6G11808   4.032   3.707   9.614  0.2834  0.4755 -0.9984
  113OSM    C7F11809   4.025   3.890   9.523  0.4413 -0.8346  0.9677
  113OSM    H7F11810   4.119   3.924   9.571  1.8218  0.1412 -2.1393
  113OSM    H7G11811   3.958   3.977   9.508  1.8802  0.3641  1.2688
  113OSM    C8F11812   4.065   3.830   9.387  0.7729 -0.0179  0.2976
  113OSM    H8F11813   3.979   3.779   9.337  1.8633 -1.3424 -0.3283
  113OSM    H8G11814   4.137   3.748   9.408 -0.2658 -1.0724 -0.1269
  113OSM    C9F11815   4.123   3.945   9.306 -0.3509  0.0375  0.1906
  113OSM    H9F11816   4.201   3.998   9.363 -0.7692  0.0343  0.7858
  113OSM   C10F11817   4.080   4.001   9.193  0.0748  0.1983 -0.3558
  113OSM   H10F11818   4.122   4.100   9.168 -0.4269  0.6295  0.4877
  113OSM   C11F11819   3.951   3.963   9.119  0.3673  0.4043 -0.1919
  113OSM   H11F11820   3.892   4.048   9.079 -1.3465 -0.9238 -0.5823
  113OSM   H11G11821   3.886   3.903   9.186 -0.9730  1.5225 -0.4670
  113OSM   C12F11822   3.992   3.872   9.001 -0.6461  0.2779 -0.7216
  113OSM   H12F11823   4.056   3.794   9.047 -1.6656 -0.0274  0.2310
  113OSM   H12G11824   4.059   3.919   8.926 -0.5410 -1.3201 -1.6589
  113OSM   C13F11825   3.879   3.787   8.943 -0.2432 -0.1440  0.2546
  113OSM   H13F11826   3.830   3.861   8.876  1.3100 -1.5800 -2.6109
  113OSM   H13G11827   3.816   3.751   9.028  0.8242  0.8245  1.5074
  113OSM   C14F11828   3.906   3.672   8.848 -0.1702  0.1018 -0.0604
  113OSM   H14F11829   3.968   3.591   8.894  0.9841  0.7257 -0.4855
  113OSM   H14G11830   3.947   3.703   8.750 -2.2775  1.3218 -0.5886
  113OSM   C15F11831   3.778   3.621   8.786  0.2131  0.5491 -0.5351
  113OSM   H15F11832   3.721   3.707   8.744  0.2592  0.8355 -0.0163
  113OSM   H15G11833   3.713   3.565   8.856  0.7444 -0.6568 -0.9768
  113OSM   C16F11834   3.802   3.521   8.677 -0.2906 -0.0167 -0.0020
  113OSM   H16F11835   3.837   3.426   8.722 -0.0195 -0.2957 -0.7787
  113OSM   H16G11836   3.869   3.569   8.601 -0.4339  0.8438  0.4047
  113OSM   C17F11837   3.682   3.465   8.601  0.0991  0.2433 -0.0813
  113OSM   H17F11838   3.627   3.550   8.554 -0.2223  1.0074  1.6145
  113OSM   H17G11839   3.598   3.423   8.661 -1.1147  0.5688 -1.4880
  113OSM   C18F11840   3.715   3.359   8.495 -0.3511 -0.2925  0.3566
  113OSM   H18F11841   3.631   3.354   8.423 -0.5921  0.5224  0.5687
  113OSM   H18G11842   3.747   3.258   8.529  0.9447  0.4879  1.5760
  113OSM   H18H11843   3.804   3.394   8.437 -1.7170  4.3770  0.6183
  114OSM      N11844   5.068   1.391  10.877  0.1571 -0.0991 -0.1405
  114OSM    C1511845   5.021   1.524  10.830 -0.0010 -0.4684 -0.2371
  114OSM   H15A11846   4.915   1.530  10.808 -0.4598 -0.7707  1.6925
  114OSM   H15B11847   5.075   1.552  10.742  0.8688 -1.3791 -0.0022
  114OSM   H15C11848   5.049   1.598  10.904  1.2588  0.6454 -1.7845
  114OSM    C1411849   4.997   1.350  11.005 -0.0341  0.2934  0.5459
  114OSM   H14A11850   5.033   1.254  11.039 -0.1173  0.7007  1.8210
  114OSM   H14B11851   4.890   1.357  10.990 -0.1728 -0.3085  1.1815
  114OSM   H14C11852   5.013   1.412  11.092 -0.1086  0.1988  0.6268
  114OSM    C1311853   5.037   1.294  10.773 -0.3394  0.1400  0.4945
  114OSM   H13A11854   5.072   1.328  10.677 -0.3967  2.2548  1.1742
  114OSM   H13B11855   4.930   1.286  10.759 -0.2978  1.5423 -0.9414
  114OSM   H13C11856   5.076   1.195  10.792 -0.3208  0.2293  0.9233
  114OSM    C1211857   5.217   1.402  10.901  0.3111 -0.1326 -0.5791
  114OSM   H12A11858   5.259   1.305  10.923 -0.1252 -0.7733 -2.4555
  114OSM   H12B11859   5.243   1.477  10.975 -2.0898  0.0279  0.2049
  114OSM    C1111860   5.300   1.434  10.779 -0.4967 -0.6456  0.8088
  114OSM   H11A11861   5.263   1.524  10.725 -1.2051 -2.0110 -1.1073
  114OSM   H11B11862   5.289   1.353  10.704  0.4143 -0.6866  0.7095
  114OSM      P11863   5.532   1.334  10.831  0.3997 -0.0943  0.0030
  114OSM    O1311864   5.616   1.346  10.947 -0.0184 -0.1255  0.0077
  114OSM    O1411865   5.454   1.207  10.815 -0.7988  0.0957 -0.3194
  114OSM    O1111866   5.622   1.354  10.699  1.2803 -0.3170 -0.4783
  114OSM    O1211867   5.429   1.451  10.821  0.2383  0.0095  0.1648
  114OSM    C1S11868   5.560   1.371  10.571 -0.4114  0.1767  0.6241
  114OSM    H1S11869   5.541   1.479  10.554  0.2789  0.0077 -1.5905
  114OSM    H1T11870   5.462   1.323  10.551  0.2433 -0.8758 -0.1958
  114OSM     NF11871   5.600   1.379  10.327 -0.2931 -0.3543  0.0418
  114OSM    HNF11872   5.519   1.341  10.283 -0.2915  1.3230 -1.5271
  114OSM    C2S11873   5.652   1.316  10.450 -0.5774 -0.1930  0.2501
  114OSM    H2S11874   5.760   1.342  10.455 -0.4668 -0.6362  0.1869
  114OSM    C3S11875   5.647   1.163  10.453  1.1063 -0.6754 -0.2606
  114OSM    H3S11876   5.541   1.130  10.447  0.8130 -0.2230  1.6745
  114OSM     O311877   5.711   1.115  10.566  0.0981 -0.2663  0.3126
  114OSM    HO311878   5.707   1.198  10.615  1.3188  1.1833 -1.8510
  114OSM    C4S11879   5.721   1.112  10.332 -0.1352  0.6120 -1.0731
  114OSM    H4S11880   5.831   1.114  10.340 -0.2119 -0.2349  0.9276
  114OSM    C5S11881   5.659   1.043  10.231  0.0930 -0.7021  0.0086
  114OSM    H5S11882   5.549   1.045  10.223  0.2127  1.1931 -2.4763
  114OSM    C6S11883   5.737   0.977  10.124 -0.0607 -0.2047  0.1061
  114OSM    H6S11884   5.671   0.892  10.095 -1.1491  0.0998  1.5730
  114OSM    H6T11885   5.836   0.939  10.159 -0.0044  0.6449  0.8883
  114OSM    C7S11886   5.755   1.078  10.019  0.2403 -0.1190  0.4139
  114OSM    H7S11887   5.807   1.160  10.073  0.2601  0.8667 -1.0333
  114OSM    H7T11888   5.668   1.140   9.987 -0.8014 -1.5709  0.3310
  114OSM    C8S11889   5.834   1.031   9.900  0.6401  0.9130  0.1019
  114OSM    H8S11890   5.779   0.962   9.834  5.0245 -0.5942 -2.4208
  114OSM    H8T11891   5.916   0.977   9.953 -1.9488  0.3209  3.9881
  114OSM    C9S11892   5.873   1.153   9.813 -0.3881 -0.2105  0.6291
  114OSM    H9S11893   5.951   1.208   9.869  1.0869  0.0509 -1.5521
  114OSM    H9T11894   5.786   1.221   9.804  0.6232  0.9900 -0.4324
  114OSM   C10S11895   5.927   1.105   9.676 -0.4754  0.3446  0.0059
  114OSM   H10S11896   5.992   1.014   9.679  0.9461  1.3432  0.5499
  114OSM   H10T11897   6.003   1.176   9.636  1.1854 -1.8107 -0.8962
  114OSM   C11S11898   5.811   1.103   9.576  0.2890 -0.6833  0.1204
  114OSM   H11S11899   5.756   1.198   9.590  1.4752 -0.0810  0.9407
  114OSM   H11T11900   5.738   1.019   9.582  1.8276 -2.2085 -1.3837
  114OSM   C12S11901   5.880   1.120   9.436  0.1065 -0.9326 -1.1353
  114OSM   H12S11902   5.962   1.045   9.429  2.3641  0.8033  2.8151
  114OSM   H12T11903   5.938   1.215   9.430 -1.1642 -0.0700 -0.1065
  114OSM   C13S11904   5.780   1.089   9.327 -0.6426 -0.7473 -0.3022
  114OSM   H13S11905   5.679   1.117   9.362  0.5297  0.7090  2.2643
  114OSM   H13T11906   5.773   0.979   9.315  0.6649 -0.9687  0.6635
  114OSM   C14S11907   5.803   1.145   9.184 -0.5716 -0.6064  0.0817
  114OSM   H14S11908   5.902   1.117   9.144 -0.2586 -2.1160  1.7749
  114OSM   H14T11909   5.804   1.256   9.189  2.1207 -0.3895 -2.5576
  114OSM   C15S11910   5.701   1.090   9.096  0.0528 -0.3129  0.8521
  114OSM   H15S11911   5.607   1.147   9.111  0.9030  2.1466 -1.9855
  114OSM   H15T11912   5.676   0.985   9.122  0.5272 -1.1096 -1.5754
  114OSM   C16S11913   5.736   1.077   8.946  0.7870 -0.0993 -0.0603
  114OSM   H16S11914   5.836   1.031   8.928  0.0859 -1.2473 -1.1290
  114OSM   H16T11915   5.749   1.172   8.890 -2.2770 -0.2395 -1.1939
  114OSM   C17S11916   5.627   0.994   8.874  0.0314 -0.2074 -0.2795
  114OSM   H17S11917   5.530   1.037   8.907  0.0974 -1.7335  2.1214
  114OSM   H17T11918   5.620   0.896   8.927 -1.4054  1.4846  2.9470
  114OSM   C18S11919   5.634   0.995   8.716 -0.0550  0.4076  0.1714
  114OSM   H18S11920   5.730   0.950   8.684 -0.7537  0.5248 -2.2421
  114OSM   H18T11921   5.624   1.093   8.664 -0.2534  1.0755  1.4181
  114OSM   H18U11922   5.548   0.941   8.672 -0.1444  0.8266 -0.1742
  114OSM    C1F11923   5.646   1.498  10.282  0.7758 -0.9623 -0.4500
  114OSM     OF11924   5.711   1.569  10.362 -0.2971  0.0729  0.0865
  114OSM    C2F11925   5.609   1.548  10.148  0.1991  0.5628 -0.7023
  114OSM    H2F11926   5.498   1.545  10.149  0.2147 -0.1469  0.1340
  114OSM    H2G11927   5.645   1.490  10.061 -1.6513  0.2638 -1.3150
  114OSM    C3F11928   5.654   1.692  10.138  0.8203  0.2105 -0.3856
  114OSM    H3F11929   5.761   1.714  10.159  0.1911  1.6466  1.6873
  114OSM    H3G11930   5.606   1.746  10.223 -0.2205 -1.0741 -0.1284
  114OSM    C4F11931   5.623   1.767  10.012  0.1023 -0.5190 -0.5051
  114OSM    H4F11932   5.654   1.712   9.920  2.6798 -1.0231  0.5849
  114OSM    H4G11933   5.698   1.848  10.016  0.1577 -0.5635 -0.6363
  114OSM    C5F11934   5.476   1.815   9.992 -0.1941  0.9075  0.2896
  114OSM    H5F11935   5.425   1.874  10.070 -4.2291 -0.2873 -1.1816
  114OSM    H5G11936   5.430   1.714   9.996  2.3422 -0.3989 -0.9889
  114OSM    C6F11937   5.452   1.880   9.852  0.2922  0.4444 -0.2665
  114OSM    H6F11938   5.440   1.801   9.775 -0.3336 -0.2892  0.5624
  114OSM    H6G11939   5.544   1.935   9.823  1.9892 -1.8029  0.5848
  114OSM    C7F11940   5.327   1.978   9.849 -0.1885 -0.0631  0.0304
  114OSM    H7F11941   5.317   2.043   9.939 -2.4189 -0.0987 -0.1405
  114OSM    H7G11942   5.238   1.912   9.844  1.7107 -2.7095 -2.4288
  114OSM    C8F11943   5.326   2.078   9.728  0.2868  0.1758  0.2919
  114OSM    H8F11944   5.418   2.140   9.731 -2.1600  4.1593  0.0922
  114OSM    H8G11945   5.234   2.138   9.741 -0.0169  0.0059 -0.9217
  114OSM    C9F11946   5.323   1.996   9.598 -0.0637 -0.5252 -0.3386
  114OSM    H9F11947   5.410   1.931   9.579  1.1219  1.1802 -1.0216
  114OSM   C10F11948   5.248   2.016   9.486 -0.4642 -0.1359  0.1093
  114OSM   H10F11949   5.278   1.965   9.393 -1.5669  2.4803 -1.7968
  114OSM   C11F11950   5.146   2.121   9.471  0.5852 -0.2089 -0.4445
  114OSM   H11F11951   5.135   2.172   9.570  1.9907 -1.0676  0.1942
  114OSM   H11G11952   5.046   2.078   9.450 -0.1401  0.0620  2.0202
  114OSM   C12F11953   5.176   2.232   9.372  0.8453  0.9175  0.1855
  114OSM   H12F11954   5.273   2.282   9.392  0.0992  1.7754  1.8720
  114OSM   H12G11955   5.095   2.305   9.391 -0.8179 -1.2825  2.2161
  114OSM   C13F11956   5.167   2.163   9.231 -0.1657 -1.7398 -0.2414
  114OSM   H13F11957   5.077   2.098   9.230  0.7562 -3.0517 -1.2550
  114OSM   H13G11958   5.251   2.093   9.208 -0.5084 -2.3766  0.4046
  114OSM   C14F11959   5.167   2.265   9.118  0.8563  1.0755  0.1437
  114OSM   H14F11960   5.268   2.306   9.097  0.6847  0.1398 -3.0203
  114OSM   H14G11961   5.105   2.353   9.142  0.6284  0.4995  1.8145
  114OSM   C15F11962   5.116   2.198   8.986 -0.6852 -0.6284 -0.5878
  114OSM   H15F11963   5.026   2.138   9.015 -0.4981 -0.1817  0.9736
  114OSM   H15G11964   5.205   2.143   8.949  1.4733  2.4915 -0.4247
  114OSM   C16F11965   5.065   2.299   8.881 -0.0582  0.0458 -0.0708
  114OSM   H16F11966   5.023   2.386   8.936  1.5702 -0.9527  2.9543
  114OSM   H16G11967   4.973   2.256   8.836  0.0425  1.5603 -1.8546
  114OSM   C17F11968   5.167   2.334   8.774  0.1621  0.0183  0.3257
  114OSM   H17F11969   5.213   2.248   8.720  1.4408  0.6671  0.3259
  114OSM   H17G11970   5.251   2.378   8.832  0.7309  1.4938 -1.5270
  114OSM   C18F11971   5.137   2.435   8.670  0.6301 -0.1264  0.4386
  114OSM   H18F11972   5.224   2.447   8.601  1.1891  0.2069  1.1835
  114OSM   H18G11973   5.102   2.530   8.716 -1.8903  1.1001 -3.5549
  114OSM   H18H11974   5.052   2.409   8.604 -0.4397  1.9335  0.9086
  115OSM      N11975   2.050   6.685  10.394  0.0058  0.1680 -0.1569
  115OSM    C1511976   1.941   6.718  10.302  0.0975  0.3761  0.5162
  115OSM   H15A11977   1.847   6.676  10.335  1.9901 -4.2413  0.7608
  115OSM   H15B11978   1.964   6.681  10.203  0.5148  2.4806 -0.2244
  115OSM   H15C11979   1.939   6.826  10.293 -2.3202  0.4435  1.1646
  115OSM    C1411980   2.010   6.740  10.527  0.0505  0.0942 -0.5508
  115OSM   H14A11981   2.017   6.848  10.517 -1.1929  0.1474 -1.0962
  115OSM   H14B11982   2.067   6.716  10.615 -2.4373  0.9149  1.4235
  115OSM   H14C11983   1.910   6.707  10.552 -0.3214  1.0346 -0.7156
  115OSM    C1311984   2.069   6.539  10.404 -0.0330 -0.0986  0.8330
  115OSM   H13A11985   1.980   6.481  10.422  0.1401 -1.4753 -2.1438
  115OSM   H13B11986   2.140   6.511  10.480  0.5645  2.5536  1.3695
  115OSM   H13C11987   2.111   6.505  10.310  0.8932  0.0140  1.1943
  115OSM    C1211988   2.180   6.745  10.338  0.3475  0.0182 -0.4285
  115OSM   H12A11989   2.194   6.704  10.239 -1.0570 -1.3802 -0.0970
  115OSM   H12B11990   2.264   6.703  10.392  0.4327 -2.0624 -2.0553
  115OSM    C1111991   2.202   6.900  10.340 -0.5138  0.1706  0.1123
  115OSM   H11A11992   2.290   6.936  10.283 -0.0549 -0.1446  0.6105
  115OSM   H11B11993   2.210   6.932  10.447 -1.2873 -0.6938  0.4430
  115OSM      P11994   2.043   7.099  10.338 -0.2036 -0.5025 -0.0379
  115OSM    O1311995   1.914   7.140  10.274 -0.0037  0.3561 -0.3383
  115OSM    O1411996   2.055   7.105  10.483 -0.2097 -0.6073  0.0610
  115OSM    O1111997   2.155   7.192  10.282  0.5276 -0.0392 -0.0424
  115OSM    O1211998   2.098   6.961  10.277 -0.0993 -0.2566  0.1131
  115OSM    C1S11999   2.189   7.195  10.144 -0.3504 -0.6253  0.0187
  115OSM    H1S12000   2.207   7.091  10.109  1.1338 -0.6665  0.8151
  115OSM    H1T12001   2.286   7.250  10.136 -0.9829  0.3259 -1.5135
  115OSM     NF12002   2.152   7.268   9.908  0.2244  0.6771  0.5315
  115OSM    HNF12003   2.197   7.349   9.873 -0.1833  1.1446  1.0704
  115OSM    C2S12004   2.096   7.283  10.047 -0.4264 -0.4683 -0.0712
  115OSM    H2S12005   1.993   7.243  10.050 -1.9644  2.9405 -1.3566
  115OSM    C3S12006   2.088   7.430  10.096  0.3068  1.1367 -0.0275
  115OSM    H3S12007   2.184   7.477  10.065  0.9457 -0.8300 -1.2353
  115OSM     O312008   2.080   7.439  10.245  0.3156 -0.0673  0.3909
  115OSM    HO312009   2.088   7.345  10.265 -0.9977 -0.3154 -0.0865
  115OSM    C4S12010   1.983   7.514  10.019  0.3482 -0.0086  0.0743
  115OSM    H4S12011   2.028   7.559   9.930  1.0462  1.0779  0.9531
  115OSM    C5S12012   1.860   7.547  10.059 -0.1977  0.1120  0.6207
  115OSM    H5S12013   1.830   7.516  10.160 -0.7701 -2.5813 -0.3014
  115OSM    C6S12014   1.763   7.637   9.992  0.4676 -0.2224  1.1906
  115OSM    H6S12015   1.741   7.723  10.059 -1.9769  1.0258 -1.0572
  115OSM    H6T12016   1.669   7.586   9.964  0.6088  0.0061  0.2771
  115OSM    C7S12017   1.810   7.709   9.857  0.3265  0.1559 -1.1055
  115OSM    H7S12018   1.915   7.744   9.870  0.5231 -0.0843 -1.9573
  115OSM    H7T12019   1.736   7.791   9.844 -2.0221 -1.7828 -0.6757
  115OSM    C8S12020   1.810   7.619   9.744 -0.6471  0.3184  0.2718
  115OSM    H8S12021   1.707   7.582   9.725 -0.2426 -0.8787  0.3764
  115OSM    H8T12022   1.889   7.541   9.749  0.9118  1.8143 -0.0200
  115OSM    C9S12023   1.844   7.698   9.616 -0.5597  0.0424  0.6526
  115OSM    H9S12024   1.952   7.723   9.613  0.1434 -2.7665 -0.0651
  115OSM    H9T12025   1.800   7.798   9.635  0.0778  0.2099  1.3024
  115OSM   C10S12026   1.800   7.647   9.474 -0.1247 -0.1551 -0.3626
  115OSM   H10S12027   1.829   7.706   9.384  0.4243 -1.9945 -1.4455
  115OSM   H10T12028   1.690   7.638   9.458 -0.0634 -2.6993  0.3192
  115OSM   C11S12029   1.851   7.500   9.465 -0.4372 -0.3664  0.3090
  115OSM   H11S12030   1.790   7.433   9.529 -2.2155  1.6619  0.8358
  115OSM   H11T12031   1.956   7.502   9.501  0.3907  2.0377 -1.9423
  115OSM   C12S12032   1.835   7.450   9.322  0.8704  0.3616  0.5601
  115OSM   H12S12033   1.728   7.474   9.300  0.5109 -1.2886  0.3605
  115OSM   H12T12034   1.844   7.340   9.330  2.4584  0.5313  1.3995
  115OSM   C13S12035   1.923   7.504   9.216 -0.9413  0.3549 -0.1507
  115OSM   H13S12036   2.016   7.443   9.207 -2.5298 -2.1750 -0.3357
  115OSM   H13T12037   1.970   7.595   9.259  0.2093 -0.1829 -0.2154
  115OSM   C14S12038   1.864   7.511   9.070  0.0409 -0.1930 -0.1358
  115OSM   H14S12039   1.928   7.562   8.995  0.1500 -2.9688 -2.0504
  115OSM   H14T12040   1.780   7.582   9.084  0.3310  0.0792  0.2647
  115OSM   C15S12041   1.801   7.381   9.009 -0.2817 -0.5551  0.0682
  115OSM   H15S12042   1.711   7.357   9.069  0.5046 -2.6413  0.4910
  115OSM   H15T12043   1.866   7.291   9.016 -0.5371 -0.8680 -1.3141
  115OSM   C16S12044   1.763   7.401   8.865 -0.1819  0.2147 -0.0092
  115OSM   H16S12045   1.850   7.442   8.809  0.1369 -1.4132 -0.7453
  115OSM   H16T12046   1.680   7.475   8.860 -1.0497 -0.6652  0.9262
  115OSM   C17S12047   1.730   7.269   8.804  0.3872  0.5476 -0.1929
  115OSM   H17S12048   1.657   7.204   8.857  1.3070 -1.2307 -1.0159
  115OSM   H17T12049   1.824   7.213   8.790  0.1888 -0.7358  2.9439
  115OSM   C18S12050   1.666   7.298   8.668  0.0702 -0.4246 -0.1404
  115OSM   H18S12051   1.705   7.394   8.628  1.0424 -1.6146 -2.1995
  115OSM   H18T12052   1.557   7.310   8.683 -0.1835 -2.0056 -0.6087
  115OSM   H18U12053   1.678   7.205   8.609 -1.7848 -1.2562  0.7394
  115OSM    C1F12054   2.149   7.157   9.838  0.5753  0.4741  0.2483
  115OSM     OF12055   2.108   7.049   9.882  0.0217  0.5355 -0.0645
  115OSM    C2F12056   2.196   7.177   9.695  0.1012  0.1798 -0.4713
  115OSM    H2F12057   2.307   7.185   9.688  0.1647 -0.7891 -0.6197
  115OSM    H2G12058   2.169   7.278   9.655 -0.1631  0.0942 -0.5116
  115OSM    C3F12059   2.138   7.073   9.601 -0.1267  0.0834 -0.0205
  115OSM    H3F12060   2.028   7.080   9.614 -0.0307  0.7203  0.4565
  115OSM    H3G12061   2.171   6.975   9.641  3.5705  1.9083  1.8573
  115OSM    C4F12062   2.177   7.096   9.457 -0.0216 -0.0551  0.3407
  115OSM    H4F12063   2.288   7.104   9.462  0.2792 -0.7243 -2.8214
  115OSM    H4G12064   2.124   7.189   9.429 -1.3709 -0.1548  2.4411
  115OSM    C5F12065   2.140   6.983   9.366  0.6982  0.3349 -0.4215
  115OSM    H5F12066   2.033   6.962   9.389  0.9468 -1.3658 -0.6540
  115OSM    H5G12067   2.197   6.889   9.387  0.9492  0.4294 -0.6736
  115OSM    C6F12068   2.143   7.005   9.217  0.4347 -0.5255 -0.2228
  115OSM    H6F12069   2.231   7.070   9.200 -0.4208  0.3157 -1.6468
  115OSM    H6G12070   2.051   7.066   9.200  0.0317 -0.7682  0.9431
  115OSM    C7F12071   2.143   6.877   9.135  0.4101  0.4345  0.0301
  115OSM    H7F12072   2.052   6.829   9.176 -1.0473  2.3977 -0.7442
  115OSM    H7G12073   2.228   6.806   9.136 -0.0062 -0.1268 -1.3732
  115OSM    C8F12074   2.114   6.895   8.976 -0.1560  0.4281 -0.1908
  115OSM    H8F12075   2.101   6.790   8.942 -0.8733  0.9488 -1.6036
  115OSM    H8G12076   2.205   6.939   8.930 -0.6084  1.4128 -0.1757
  115OSM    C9F12077   1.998   6.980   8.946 -0.2777  0.5800 -0.6418
  115OSM    H9F12078   2.012   7.086   8.973 -0.0509  0.2003  0.8009
  115OSM   C10F12079   1.878   6.956   8.889 -0.4480  1.3124  0.2508
  115OSM   H10F12080   1.801   7.033   8.879 -1.3414  0.5246  0.8805
  115OSM   C11F12081   1.869   6.826   8.808 -0.5350 -0.4199  0.3082
  115OSM   H11F12082   1.767   6.782   8.801 -0.6296  0.0606 -4.0491
  115OSM   H11G12083   1.931   6.741   8.843  2.2459  1.2381 -0.2748
  115OSM   C12F12084   1.916   6.855   8.662  0.2447  0.4661 -0.2807
  115OSM   H12F12085   2.017   6.900   8.671  0.7194 -0.6636  0.2435
  115OSM   H12G12086   1.846   6.920   8.606  0.1639 -1.8108 -3.0760
  115OSM   C13F12087   1.905   6.718   8.586  0.4870  0.0828 -0.2279
  115OSM   H13F12088   1.811   6.660   8.600 -2.6155  4.5765 -0.6003
  115OSM   H13G12089   1.974   6.655   8.647 -1.5774 -0.9951  1.1176
  115OSM   C14F12090   1.930   6.722   8.430 -0.1766  0.8103  0.2012
  115OSM   H14F12091   2.040   6.729   8.415 -0.3539  4.3173 -0.3280
  115OSM   H14G12092   1.888   6.817   8.390  2.7020  1.8787 -0.5215
  115OSM   C15F12093   1.871   6.602   8.358 -0.2824  0.4434  0.0146
  115OSM   H15F12094   1.761   6.609   8.375 -0.6405 -0.6885 -1.5385
  115OSM   H15G12095   1.913   6.512   8.409 -1.6539 -0.5533 -0.5378
  115OSM   C16F12096   1.921   6.592   8.214 -0.4135  0.4338  0.2722
  115OSM   H16F12097   2.032   6.584   8.208 -0.3655  0.4569  1.0091
  115OSM   H16G12098   1.900   6.676   8.145  2.4349 -0.4863 -1.9594
  115OSM   C17F12099   1.853   6.464   8.149  0.7576  0.2451  0.6520
  115OSM   H17F12100   1.858   6.485   8.040 -1.0672 -0.9964  0.2909
  115OSM   H17G12101   1.746   6.460   8.178  0.1222  0.0413 -1.5417
  115OSM   C18F12102   1.929   6.332   8.178  0.8899 -0.5786  0.1073
  115OSM   H18F12103   1.911   6.249   8.107  0.0497  0.2966 -0.7379
  115OSM   H18G12104   1.924   6.316   8.288  2.7419  2.5208  0.7615
  115OSM   H18H12105   2.038   6.353   8.175  0.8004 -0.1797 -0.5806
  116OSM      N12106   5.561   4.424  10.906 -0.3077  0.0167  0.2436
  116OSM    C1512107   5.519   4.285  10.935 -0.1662  0.0127  0.7085
  116OSM   H15A12108   5.591   4.213  10.897 -1.1735 -0.5087 -0.2859
  116OSM   H15B12109   5.425   4.251  10.895  0.6612 -0.9888 -0.5031
  116OSM   H15C12110   5.511   4.274  11.042  0.0073  0.4051  0.7620
  116OSM    C1412111   5.469   4.516  10.974  0.7379  0.1925  0.7519
  116OSM   H14A12112   5.458   4.499  11.081 -0.8908  2.3511  0.9935
  116OSM   H14B12113   5.371   4.510  10.929  1.5658  1.4988 -1.3530
  116OSM   H14C12114   5.508   4.617  10.972  0.6119  0.2566 -1.7810
  116OSM    C1312115   5.698   4.439  10.958  0.3630 -0.4559  0.3869
  116OSM   H13A12116   5.774   4.374  10.918 -0.2238 -0.4228 -0.8174
  116OSM   H13B12117   5.697   4.414  11.063  0.5750 -1.5662  0.1284
  116OSM   H13C12118   5.729   4.541  10.941 -1.9302  0.1261 -0.7524
  116OSM    C1212119   5.568   4.453  10.756  0.0447  0.6929 -0.6648
  116OSM   H12A12120   5.571   4.560  10.738  2.6789  0.7567 -0.1843
  116OSM   H12B12121   5.473   4.423  10.715 -0.9253 -0.1743  2.0042
  116OSM    C1112122   5.678   4.388  10.679 -0.2329  0.2308  1.1751
  116OSM   H11A12123   5.768   4.452  10.683 -0.7339  0.9991  0.4602
  116OSM   H11B12124   5.655   4.406  10.572  1.3339  1.4637  1.0226
  116OSM      P12125   5.641   4.127  10.643 -0.6462 -0.1862  0.0468
  116OSM    O1312126   5.736   4.016  10.663 -0.3950  0.1141  0.3821
  116OSM    O1412127   5.498   4.113  10.681 -0.3283 -0.0792 -0.0484
  116OSM    O1112128   5.651   4.168  10.494 -0.4831  0.6295 -0.1857
  116OSM    O1212129   5.703   4.254  10.711 -0.5068  0.1667  0.0421
  116OSM    C1S12130   5.773   4.180  10.426 -0.6498 -0.4849 -0.0377
  116OSM    H1S12131   5.853   4.109  10.455 -0.9750 -0.5680  0.7025
  116OSM    H1T12132   5.818   4.278  10.450 -1.6297 -0.1305  0.4266
  116OSM     NF12133   5.885   4.181  10.203 -0.2073  0.1233  0.2877
  116OSM    HNF12134   5.918   4.261  10.154 -0.3579  0.8401  1.3295
  116OSM    C2S12135   5.753   4.185  10.273 -0.0154 -0.0841  0.2013
  116OSM    H2S12136   5.707   4.090  10.239  1.6876 -0.4012 -1.4127
  116OSM    C3S12137   5.667   4.304  10.228 -0.3813  0.5244 -0.4419
  116OSM    H3S12138   5.718   4.401  10.246 -1.2597  0.6450  1.6706
  116OSM     O312139   5.538   4.315  10.287 -0.0344 -0.3291  0.6926
  116OSM    HO312140   5.546   4.258  10.363  0.5848  0.7259  1.4538
  116OSM    C4S12141   5.664   4.301  10.078 -0.5536  0.0046  0.2962
  116OSM    H4S12142   5.727   4.382  10.037  2.0715 -0.5933  2.7476
  116OSM    C5S12143   5.597   4.230   9.999 -0.0669 -0.0852 -0.4511
  116OSM    H5S12144   5.531   4.151  10.040 -0.5928  1.4178  1.7730
  116OSM    C6S12145   5.595   4.254   9.850 -0.3513 -0.2438 -0.5898
  116OSM    H6S12146   5.596   4.154   9.801 -1.4964  0.2905 -1.7399
  116OSM    H6T12147   5.682   4.320   9.830 -2.3340  2.9641  0.6878
  116OSM    C7S12148   5.478   4.333   9.793 -0.0848  0.1745 -0.9372
  116OSM    H7S12149   5.462   4.432   9.839  1.6627  0.5717 -1.1162
  116OSM    H7T12150   5.393   4.264   9.813 -0.4713  0.7620 -0.5186
  116OSM    C8S12151   5.491   4.346   9.643 -0.0918  0.9228  0.2572
  116OSM    H8S12152   5.498   4.247   9.592  1.0373  2.4605 -2.7707
  116OSM    H8T12153   5.588   4.393   9.615 -0.1618  1.0471  0.2284
  116OSM    C9S12154   5.371   4.417   9.576 -0.5862 -0.0947  0.5273
  116OSM    H9S12155   5.348   4.519   9.612  1.5750  0.2864  0.9934
  116OSM    H9T12156   5.278   4.359   9.594 -1.1524  0.3087 -0.9123
  116OSM   C10S12157   5.404   4.405   9.430  0.3644  0.3731  0.0372
  116OSM   H10S12158   5.419   4.299   9.402  2.1847  0.4059  0.7142
  116OSM   H10T12159   5.492   4.466   9.400  0.2765  0.5813  0.1994
  116OSM   C11S12160   5.287   4.459   9.353 -0.0053  1.2425  0.9259
  116OSM   H11S12161   5.275   4.568   9.371 -3.1283  1.3599 -1.0511
  116OSM   H11T12162   5.188   4.409   9.366  0.7291 -0.7095 -0.5020
  116OSM   C12S12163   5.325   4.451   9.202 -1.0613  0.8694 -0.1880
  116OSM   H12S12164   5.370   4.350   9.191  2.3642  2.0694  1.5485
  116OSM   H12T12165   5.408   4.518   9.173 -0.9003  0.6779 -0.1708
  116OSM   C13S12166   5.203   4.480   9.115 -0.1878  0.0052  0.0632
  116OSM   H13S12167   5.148   4.568   9.157  0.3412  1.1993 -1.6704
  116OSM   H13T12168   5.129   4.401   9.142 -2.4536  0.8760 -3.0620
  116OSM   C14S12169   5.227   4.483   8.965  0.2410 -0.5475 -0.0312
  116OSM   H14S12170   5.236   4.384   8.915 -0.3517 -0.4311 -0.3756
  116OSM   H14T12171   5.321   4.538   8.942  0.7145 -1.4910 -0.4094
  116OSM   C15S12172   5.108   4.546   8.889 -0.8373 -0.1922  0.5286
  116OSM   H15S12173   5.093   4.650   8.926  3.4444  0.1892  1.6649
  116OSM   H15T12174   5.018   4.483   8.906 -0.1218 -0.3092  5.0069
  116OSM   C16S12175   5.132   4.554   8.737  0.0624 -0.1082  0.5865
  116OSM   H16S12176   5.162   4.456   8.694 -1.7075 -0.7682  0.7881
  116OSM   H16T12177   5.209   4.631   8.714 -0.1838 -1.0750 -4.6368
  116OSM   C17S12178   5.004   4.598   8.670  0.2130  0.3000  0.0071
  116OSM   H17S12179   4.968   4.700   8.700 -1.3699  0.5234 -2.3638
  116OSM   H17T12180   4.926   4.526   8.704  0.2727  0.0307 -0.4277
  116OSM   C18S12181   5.016   4.595   8.519 -0.5052  0.1149 -0.1193
  116OSM   H18S12182   5.077   4.511   8.481 -0.7040  0.4031 -1.1022
  116OSM   H18T12183   5.075   4.685   8.489 -0.1696  0.3502  1.1967
  116OSM   H18U12184   4.919   4.600   8.465 -1.7348 -3.4770  1.4507
  116OSM    C1F12185   5.971   4.078  10.199  0.5458  0.2972  0.5707
  116OSM     OF12186   5.950   3.977  10.263 -0.0959 -0.4877  0.5897
  116OSM    C2F12187   6.072   4.086  10.085  0.3646 -0.1347 -0.9628
  116OSM    H2F12188   6.071   4.187  10.039 -0.7752 -0.2902 -1.3022
  116OSM    H2G12189   6.041   4.017  10.003 -1.5574  1.3189 -1.5288
  116OSM    C3F12190   6.211   4.061  10.148  0.3248 -0.0204  0.3623
  116OSM    H3F12191   6.228   3.956  10.181 -0.8315 -0.4816 -0.4733
  116OSM    H3G12192   6.219   4.131  10.234  0.9195 -1.1651  1.2719
  116OSM    C4F12193   6.308   4.117  10.044  0.6239  0.1229  0.1024
  116OSM    H4F12194   6.407   4.075  10.075  0.2486 -1.4322 -0.7172
  116OSM    H4G12195   6.308   4.228  10.054  0.8416  0.0694  0.8224
  116OSM    C5F12196   6.292   4.065   9.898 -0.6910  0.8900  0.1278
  116OSM    H5F12197   6.202   4.101   9.846 -1.9802 -1.9894  0.1730
  116OSM    H5G12198   6.299   3.955   9.887  0.9749  1.0059 -0.3343
  116OSM    C6F12199   6.421   4.113   9.821 -0.1446 -0.6182 -0.2248
  116OSM    H6F12200   6.512   4.055   9.847  0.6781  0.7247 -0.0379
  116OSM    H6G12201   6.442   4.217   9.854  0.7103 -1.6137  2.7328
  116OSM    C7F12202   6.407   4.110   9.668  0.3195  0.4358 -0.5271
  116OSM    H7F12203   6.500   4.153   9.625  0.5049  2.1532  1.4000
  116OSM    H7G12204   6.327   4.179   9.633  0.4177 -0.9329 -3.6991
  116OSM    C8F12205   6.360   3.977   9.597 -0.8578  0.1811 -0.4146
  116OSM    H8F12206   6.309   4.010   9.503 -0.7389 -1.7675 -1.2106
  116OSM    H8G12207   6.278   3.921   9.646 -1.6370 -0.7291 -2.6129
  116OSM    C9F12208   6.471   3.874   9.589 -0.4751 -0.0040  0.0489
  116OSM    H9F12209   6.536   3.873   9.678 -0.9112  1.0683  0.4035
  116OSM   C10F12210   6.491   3.789   9.484  0.5215 -0.0455 -0.0886
  116OSM   H10F12211   6.570   3.712   9.482 -0.6359 -1.2627 -0.2026
  116OSM   C11F12212   6.398   3.782   9.360 -0.1823 -0.5884 -0.7754
  116OSM   H11F12213   6.297   3.823   9.382  0.1454  0.1011 -0.4984
  116OSM   H11G12214   6.387   3.673   9.347  0.8961 -0.6085 -1.7047
  116OSM   C12F12215   6.466   3.838   9.233 -0.8822 -0.1019  0.4977
  116OSM   H12F12216   6.563   3.787   9.218  0.6367  2.2804  1.5760
  116OSM   H12G12217   6.477   3.949   9.236 -0.1196 -0.1877  1.7993
  116OSM   C13F12218   6.379   3.814   9.111 -0.7119 -0.2276 -0.6842
  116OSM   H13F12219   6.363   3.706   9.097 -4.5458  0.0537  0.4523
  116OSM   H13G12220   6.426   3.845   9.015 -0.3794 -1.2054 -0.8476
  116OSM   C14F12221   6.231   3.862   9.119 -0.5426  0.1500  0.2318
  116OSM   H14F12222   6.244   3.972   9.118 -1.7059  0.4966  4.3303
  116OSM   H14G12223   6.176   3.827   9.209  1.6157 -0.8499  1.2522
  116OSM   C15F12224   6.149   3.830   8.999  0.5482  0.2235  0.4263
  116OSM   H15F12225   6.132   3.721   8.992 -3.5898  0.7773 -0.7749
  116OSM   H15G12226   6.212   3.858   8.912 -1.4010 -1.5217 -1.6676
  116OSM   C16F12227   6.009   3.890   8.990  0.0969 -0.2348  0.4016
  116OSM   H16F12228   6.008   4.000   9.007  0.3663 -0.0643 -0.6288
  116OSM   H16G12229   5.942   3.854   9.071  3.1714 -3.2211  1.9081
  116OSM   C17F12230   5.927   3.839   8.864  0.2580 -0.1117  0.0161
  116OSM   H17F12231   5.907   3.730   8.870 -2.8663  0.4704  2.7804
  116OSM   H17G12232   5.992   3.861   8.776 -2.0279  1.6074 -1.3560
  116OSM   C18F12233   5.790   3.896   8.841  0.4077 -0.2100  0.6709
  116OSM   H18F12234   5.716   3.885   8.924  0.8925  0.4382  1.1994
  116OSM   H18G12235   5.744   3.863   8.745 -0.3194  3.0360 -0.1941
  116OSM   H18H12236   5.803   4.005   8.831 -1.4205  0.3178  3.1497
  117OSM      N12237   3.005   3.326  10.491 -0.4160  0.3996  0.2746
  117OSM    C1512238   3.052   3.405  10.604 -0.2641 -0.5304 -0.0844
  117OSM   H15A12239   2.978   3.423  10.681 -0.0342 -1.5275  0.3776
  117OSM   H15B12240   3.066   3.499  10.553  0.7801 -0.2657  0.6649
  117OSM   H15C12241   3.149   3.378  10.643  0.2324  0.7802 -0.3514
  117OSM    C1412242   2.996   3.184  10.539  0.3866 -0.4223  0.1400
  117OSM   H14A12243   2.944   3.175  10.633  1.7889 -1.5050  0.8465
  117OSM   H14B12244   3.089   3.133  10.558  1.0980  1.2132  1.3445
  117OSM   H14C12245   2.930   3.124  10.478 -0.2572 -3.4000  3.4363
  117OSM    C1312246   2.867   3.374  10.476 -0.2548  0.7032 -0.0594
  117OSM   H13A12247   2.807   3.353  10.563 -0.5599 -2.2456 -0.8855
  117OSM   H13B12248   2.821   3.330  10.388  0.3858 -0.0477 -0.0289
  117OSM   H13C12249   2.864   3.482  10.470  1.7520  0.7724 -0.3410
  117OSM    C1212250   3.093   3.339  10.364  0.1095 -0.3550 -0.6089
  117OSM   H12A12251   3.050   3.269  10.294  0.2309  0.4332 -1.4986
  117OSM   H12B12252   3.189   3.297  10.392 -1.5720 -2.9715  1.8276
  117OSM    C1112253   3.094   3.480  10.310 -0.6481 -1.0244  0.0481
  117OSM   H11A12254   2.992   3.508  10.277 -0.4639 -2.0157 -1.4790
  117OSM   H11B12255   3.144   3.477  10.211  0.2457 -3.2476  0.5016
  117OSM      P12256   3.091   3.726  10.411  0.1245  0.2880  0.4402
  117OSM    O1312257   2.955   3.710  10.461 -0.2969 -0.0703 -0.2129
  117OSM    O1412258   3.181   3.828  10.477  0.4768 -0.6880  0.0040
  117OSM    O1112259   3.076   3.760  10.260  0.6115  0.7353 -0.1085
  117OSM    O1212260   3.156   3.585  10.397 -0.0232  0.4895  0.8187
  117OSM    C1S12261   3.184   3.794  10.185 -0.0848  0.5601 -0.2756
  117OSM    H1S12262   3.254   3.708  10.183 -1.7346 -0.9009  1.2464
  117OSM    H1T12263   3.241   3.880  10.225  1.9576  0.0401 -1.8895
  117OSM     NF12264   3.264   3.851   9.962 -0.0865  0.5307  0.5551
  117OSM    HNF12265   3.317   3.936   9.968  3.2034 -1.4183  2.2894
  117OSM    C2S12266   3.148   3.836  10.043 -0.1160  0.2608 -0.6176
  117OSM    H2S12267   3.087   3.760   9.989 -0.0712  0.3690 -0.8238
  117OSM    C3S12268   3.058   3.968  10.052 -0.4047 -0.1654  0.5890
  117OSM    H3S12269   3.129   4.050  10.079 -1.8788  0.1769  3.9763
  117OSM     O312270   2.960   3.975  10.155  0.2107 -0.1945 -0.0965
  117OSM    HO312271   2.948   3.883  10.180 -0.5173 -0.8033 -2.4534
  117OSM    C4S12272   3.010   4.001   9.918  0.8449 -0.6322  0.9413
  117OSM    H4S12273   3.087   4.038   9.848 -0.7139 -2.6034 -2.0102
  117OSM    C5S12274   2.889   3.977   9.862  0.2437  1.0292  0.1521
  117OSM    H5S12275   2.828   3.909   9.922  1.5997 -0.8556 -0.4920
  117OSM    C6S12276   2.848   4.019   9.718 -0.0453  0.5059 -0.7598
  117OSM    H6S12277   2.747   4.065   9.732 -1.1834 -1.6837 -1.2928
  117OSM    H6T12278   2.830   3.928   9.657  2.9639 -0.7898  0.1075
  117OSM    C7S12279   2.944   4.119   9.650  0.1733  0.6599  0.1280
  117OSM    H7S12280   3.043   4.074   9.627  0.2610  1.3045 -0.7884
  117OSM    H7T12281   2.945   4.201   9.725 -2.4005 -0.5108  1.5570
  117OSM    C8S12282   2.892   4.162   9.514 -0.2677  0.0411 -0.7184
  117OSM    H8S12283   2.795   4.209   9.543 -0.2819  0.6341 -1.6935
  117OSM    H8T12284   2.871   4.078   9.444  0.3479  1.5062 -2.7302
  117OSM    C9S12285   2.991   4.256   9.445 -0.4787 -0.4657  0.9345
  117OSM    H9S12286   2.944   4.277   9.346 -1.4004 -0.3622  1.3850
  117OSM    H9T12287   3.087   4.205   9.423 -0.8987 -1.2448  0.8905
  117OSM   C10S12288   3.025   4.389   9.516 -0.1469  0.4874  0.4946
  117OSM   H10S12289   3.023   4.375   9.626  2.2758  3.4505  1.0559
  117OSM   H10T12290   2.951   4.470   9.497 -0.5435  0.9815  3.6465
  117OSM   C11S12291   3.167   4.442   9.483  0.0154 -0.0465  0.2829
  117OSM   H11S12292   3.240   4.361   9.502 -0.3220 -0.1367  1.2409
  117OSM   H11T12293   3.184   4.516   9.564 -1.6109 -0.4325  1.0261
  117OSM   C12S12294   3.176   4.515   9.351 -0.0180 -0.0829  0.5696
  117OSM   H12S12295   3.105   4.598   9.328  2.4955  1.5288 -2.2058
  117OSM   H12T12296   3.169   4.436   9.273 -0.3991  0.3432  0.1624
  117OSM   C13S12297   3.315   4.577   9.336 -0.3866 -0.1947 -0.1375
  117OSM   H13S12298   3.399   4.519   9.379 -1.4675 -0.5593  1.5508
  117OSM   H13T12299   3.307   4.672   9.394  1.9020 -0.1880  0.2579
  117OSM   C14S12300   3.345   4.621   9.194 -0.3519 -0.5418 -0.4590
  117OSM   H14S12301   3.424   4.699   9.199  0.2979 -1.2099 -0.0520
  117OSM   H14T12302   3.257   4.677   9.156 -1.2767  0.7979  3.3080
  117OSM   C15S12303   3.385   4.509   9.109  1.0888  0.0057  0.3957
  117OSM   H15S12304   3.308   4.429   9.112  0.3978  0.5745 -1.0479
  117OSM   H15T12305   3.483   4.477   9.151  1.8786  1.8033 -0.0013
  117OSM   C16S12306   3.419   4.559   8.972 -0.2340  0.5339  0.5138
  117OSM   H16S12307   3.501   4.633   8.964 -1.1254  1.6128  1.0297
  117OSM   H16T12308   3.331   4.596   8.914  0.0416  0.2711 -0.0781
  117OSM   C17S12309   3.464   4.434   8.880 -0.3835 -1.1566 -0.1491
  117OSM   H17S12310   3.399   4.349   8.909 -0.3635 -0.7344  1.1989
  117OSM   H17T12311   3.567   4.395   8.894 -0.6576 -2.4507 -1.5099
  117OSM   C18S12312   3.444   4.461   8.729  0.5560 -0.1529 -0.2960
  117OSM   H18S12313   3.343   4.506   8.714  0.5328  0.7732  2.2242
  117OSM   H18T12314   3.453   4.362   8.678 -1.5102 -0.0376 -0.9800
  117OSM   H18U12315   3.528   4.520   8.688  0.3271 -0.6077 -1.4554
  117OSM    C1F12316   3.327   3.740   9.919 -0.0526 -0.4110  0.3998
  117OSM     OF12317   3.273   3.627   9.920  0.0027 -0.1138  0.1150
  117OSM    C2F12318   3.469   3.763   9.876  0.1692  0.4623  0.7981
  117OSM    H2F12319   3.537   3.697   9.935  0.8700 -1.2358 -1.7614
  117OSM    H2G12320   3.504   3.865   9.901  0.1106  1.0261 -1.3088
  117OSM    C3F12321   3.493   3.729   9.727 -0.0611 -0.4942 -0.4328
  117OSM    H3F12322   3.440   3.636   9.697 -3.1013  0.4622  1.4888
  117OSM    H3G12323   3.603   3.718   9.725  0.3056  1.1807  3.1139
  117OSM    C4F12324   3.449   3.841   9.635 -0.0450 -0.2486 -0.3869
  117OSM    H4F12325   3.517   3.824   9.549  0.7106 -0.6650  0.2765
  117OSM    H4G12326   3.493   3.933   9.680 -0.7174  0.0757 -0.3911
  117OSM    C5F12327   3.302   3.848   9.591  0.0532  0.2811  0.0764
  117OSM    H5F12328   3.244   3.887   9.678  0.5016  0.1302  0.4471
  117OSM    H5G12329   3.261   3.748   9.566 -0.7920  0.3992  0.9359
  117OSM    C6F12330   3.281   3.946   9.479 -0.3938  0.3279 -0.4068
  117OSM    H6F12331   3.355   4.028   9.487  0.8092 -0.6547 -1.0885
  117OSM    H6G12332   3.181   3.994   9.486  1.1783  4.5172 -3.3186
  117OSM    C7F12333   3.304   3.880   9.347  0.0871  0.4691 -0.3083
  117OSM    H7F12334   3.262   3.777   9.345  0.5788  0.2342  0.7222
  117OSM    H7G12335   3.410   3.855   9.324 -0.7213 -1.7967 -1.9460
  117OSM    C8F12336   3.264   3.957   9.215 -0.2388 -0.3489 -0.0585
  117OSM    H8F12337   3.162   4.000   9.227 -1.0802 -1.9737 -0.9586
  117OSM    H8G12338   3.262   3.881   9.134  1.8178  2.1794 -2.6584
  117OSM    C9F12339   3.346   4.074   9.162  0.1984 -0.5892 -0.0610
  117OSM    H9F12340   3.308   4.170   9.200  0.2864 -1.1878  1.6269
  117OSM   C10F12341   3.460   4.070   9.084  0.5096 -0.5323  0.1694
  117OSM   H10F12342   3.490   4.174   9.062 -3.1039  0.3187 -1.4786
  117OSM   C11F12343   3.537   3.953   9.032  0.1796  0.2924 -0.4270
  117OSM   H11F12344   3.482   3.862   9.067 -0.2688  1.0667  0.9732
  117OSM   H11G12345   3.634   3.949   9.086 -0.9391 -0.7931  1.6452
  117OSM   C12F12346   3.559   3.961   8.885 -0.0024 -0.0361  0.1295
  117OSM   H12F12347   3.474   4.002   8.827  0.9726  0.9520 -0.6511
  117OSM   H12G12348   3.590   3.865   8.837 -3.6782 -0.7764 -1.1216
  117OSM   C13F12349   3.657   4.065   8.845  0.5609  0.2502 -0.8024
  117OSM   H13F12350   3.755   4.047   8.893  1.1309  1.5078 -1.4445
  117OSM   H13G12351   3.616   4.166   8.866  0.3183 -0.1810  0.9238
  117OSM   C14F12352   3.680   4.063   8.696 -0.0963 -0.7439  0.1183
  117OSM   H14F12353   3.584   4.060   8.640  0.7643  0.2521 -1.4686
  117OSM   H14G12354   3.721   3.964   8.667  1.4313  0.3323 -1.5803
  117OSM   C15F12355   3.757   4.182   8.646 -0.2997  0.0175  0.2722
  117OSM   H15F12356   3.856   4.179   8.697  0.2675 -2.8885 -0.8158
  117OSM   H15G12357   3.702   4.274   8.675 -0.1068  0.5364 -0.9405
  117OSM   C16F12358   3.763   4.178   8.490 -0.7010 -0.6564 -0.0474
  117OSM   H16F12359   3.662   4.207   8.452 -0.7368  1.4068  1.4657
  117OSM   H16G12360   3.797   4.075   8.466  1.4145  0.1423 -0.6548
  117OSM   C17F12361   3.858   4.287   8.440 -0.6700  0.0276 -0.0549
  117OSM   H17F12362   3.885   4.267   8.334  0.2831 -0.0872  0.2005
  117OSM   H17G12363   3.953   4.291   8.498  0.3144 -3.0693 -1.2584
  117OSM   C18F12364   3.800   4.425   8.446 -0.5352  0.2505 -0.2080
  117OSM   H18F12365   3.714   4.448   8.380  0.1567  0.6622 -0.9795
  117OSM   H18G12366   3.877   4.503   8.428 -1.2854  1.0666  0.0704
  117OSM   H18H12367   3.761   4.452   8.547  0.2976 -1.0197  0.4879
  118OSM      N12368   2.984   4.690  10.939 -0.4376 -0.4620 -0.2637
  118OSM    C1512369   3.052   4.804  11.014  0.4971 -0.2866 -0.5583
  118OSM   H15A12370   3.158   4.786  11.026  0.5655  0.8319  0.7866
  118OSM   H15B12371   3.004   4.827  11.108  0.3746 -1.0048 -0.4471
  118OSM   H15C12372   3.049   4.890  10.949 -1.4912 -0.0633 -0.2360
  118OSM    C1412373   3.003   4.556  11.008 -0.3735 -0.0825  0.5758
  118OSM   H14A12374   2.973   4.570  11.111  0.3010  0.6307  0.6819
  118OSM   H14B12375   3.098   4.508  10.992  0.0558  0.5340  1.2067
  118OSM   H14C12376   2.930   4.492  10.961 -0.8621  1.2199 -0.4999
  118OSM    C1312377   2.839   4.719  10.943 -0.3842 -0.0285  0.4967
  118OSM   H13A12378   2.804   4.706  11.044  0.5483 -1.7131  0.6430
  118OSM   H13B12379   2.792   4.643  10.882  1.8555 -1.5954  0.5829
  118OSM   H13C12380   2.811   4.818  10.911  0.7250 -0.1181 -0.8536
  118OSM    C1212381   3.027   4.683  10.795 -0.8755 -0.2446 -0.0973
  118OSM   H12A12382   2.966   4.601  10.759 -0.7907 -0.5309  0.3969
  118OSM   H12B12383   3.134   4.667  10.798 -0.8566 -0.0285  0.9882
  118OSM    C1112384   3.008   4.805  10.692 -0.1819 -0.2898  0.0899
  118OSM   H11A12385   2.903   4.838  10.706 -1.1059 -2.3154 -1.5854
  118OSM   H11B12386   3.021   4.770  10.588  0.2921  0.1135  0.0076
  118OSM      P12387   3.237   4.921  10.653  0.5061 -0.3220  0.1422
  118OSM    O1312388   3.292   5.059  10.671  0.0883  0.2761 -0.2190
  118OSM    O1412389   3.324   4.819  10.718  0.2395  0.3345 -0.7944
  118OSM    O1112390   3.209   4.883  10.499 -0.6031  0.1195 -0.1633
  118OSM    O1212391   3.091   4.917  10.716  0.0840 -0.2284  0.0020
  118OSM    C1S12392   3.262   4.973  10.401  0.2620  0.6241 -0.5638
  118OSM    H1S12393   3.369   4.992  10.423  0.1252  0.1232  0.6325
  118OSM    H1T12394   3.201   5.064  10.387 -0.0755  0.1719 -2.3107
  118OSM     NF12395   3.314   5.006  10.164 -0.4606  0.1859  0.7562
  118OSM    HNF12396   3.260   5.062  10.101  0.6119  1.1584  0.6681
  118OSM    C2S12397   3.261   4.908  10.252  0.6011  0.2975  0.2444
  118OSM    H2S12398   3.327   4.818  10.258 -0.5876 -0.8664 -2.4315
  118OSM    C3S12399   3.115   4.860  10.220 -0.0814  0.2737  0.4255
  118OSM    H3S12400   3.043   4.946  10.222  0.3675  0.6457  1.4553
  118OSM     O312401   3.062   4.762  10.313  0.3489 -0.1787 -0.0476
  118OSM    HO312402   3.093   4.792  10.399 -1.2852  1.5233  0.0262
  118OSM    C4S12403   3.117   4.812  10.071 -0.3373 -0.6986 -0.6510
  118OSM    H4S12404   3.185   4.726  10.062 -0.3775 -1.4594  3.8871
  118OSM    C5S12405   3.047   4.859   9.967 -0.0138  0.2403 -0.7046
  118OSM    H5S12406   2.972   4.939   9.979  0.4132  0.3359  1.7189
  118OSM    C6S12407   3.057   4.813   9.824  0.3085 -0.5166  0.4821
  118OSM    H6S12408   2.956   4.776   9.798  0.6408 -1.5388  0.6245
  118OSM    H6T12409   3.131   4.733   9.803  1.3870  0.6006 -0.1369
  118OSM    C7S12410   3.090   4.929   9.731  0.6165 -0.3969 -0.6937
  118OSM    H7S12411   3.187   4.972   9.763  0.3416 -2.0682  2.9088
  118OSM    H7T12412   3.015   5.010   9.736 -0.4563 -1.2260 -2.3400
  118OSM    C8S12413   3.098   4.883   9.592 -0.3414  0.3057  0.4740
  118OSM    H8S12414   2.999   4.834   9.575 -1.7145  2.8813  0.6054
  118OSM    H8T12415   3.181   4.809   9.594  0.6824  1.4349  0.8070
  118OSM    C9S12416   3.129   5.005   9.502  0.3899 -0.5238  0.5837
  118OSM    H9S12417   3.224   5.052   9.534 -0.3238  1.5501 -0.1655
  118OSM    H9T12418   3.046   5.078   9.505  0.0539 -0.8699  0.0115
  118OSM   C10S12419   3.147   4.966   9.356  0.8059  0.0841  0.0134
  118OSM   H10S12420   3.050   4.955   9.303  1.1180 -0.9612 -0.3647
  118OSM   H10T12421   3.187   4.863   9.349 -1.4582 -0.8333 -0.1530
  118OSM   C11S12422   3.233   5.057   9.264 -0.7230  0.1329  0.0017
  118OSM   H11S12423   3.310   5.107   9.327 -1.1785  0.7830  0.0592
  118OSM   H11T12424   3.169   5.141   9.228 -1.4066 -0.6920 -0.7313
  118OSM   C12S12425   3.288   4.975   9.145  0.4622  0.5835 -0.4215
  118OSM   H12S12426   3.206   4.924   9.092 -0.1666  0.8714  0.2617
  118OSM   H12T12427   3.351   4.889   9.178 -0.3718  0.2382  0.2896
  118OSM   C13S12428   3.366   5.066   9.045 -0.7224  0.0971 -0.3994
  118OSM   H13S12429   3.446   5.118   9.102 -2.0160  1.2860  0.4179
  118OSM   H13T12430   3.303   5.148   9.004  2.2950  3.1060  0.4988
  118OSM   C14S12431   3.411   4.981   8.922 -0.2719  0.2054  0.3042
  118OSM   H14S12432   3.324   4.927   8.878 -0.5637  0.2180  0.8585
  118OSM   H14T12433   3.479   4.900   8.956 -1.8107 -1.6286 -0.8094
  118OSM   C15S12434   3.477   5.070   8.809  0.1663 -0.0398  0.0095
  118OSM   H15S12435   3.579   5.103   8.838  0.3573 -0.0412 -0.6499
  118OSM   H15T12436   3.412   5.160   8.795  0.8575  0.3162 -1.0390
  118OSM   C16S12437   3.500   4.998   8.675  0.5964  0.6097  0.6152
  118OSM   H16S12438   3.570   5.068   8.625 -1.0434  0.2469 -2.3823
  118OSM   H16T12439   3.404   4.990   8.621  0.9686 -1.2976  0.1637
  118OSM   C17S12440   3.577   4.863   8.692 -1.0055  0.3559  0.5195
  118OSM   H17S12441   3.511   4.783   8.733  0.4213  0.2200  2.7177
  118OSM   H17T12442   3.651   4.887   8.771 -0.5323  0.7687 -0.0433
  118OSM   C18S12443   3.643   4.817   8.561  0.4909 -0.4940  0.7685
  118OSM   H18S12444   3.598   4.873   8.476 -1.3501 -4.0769 -0.7887
  118OSM   H18T12445   3.626   4.710   8.541  0.2840 -0.0901 -1.4232
  118OSM   H18U12446   3.754   4.825   8.561  0.4053  1.3021  0.1977
  118OSM    C1F12447   3.441   5.041  10.163  0.5008 -0.1268  0.1483
  118OSM     OF12448   3.516   5.033  10.257 -0.1010  0.0732 -0.0637
  118OSM    C2F12449   3.480   5.100  10.033 -0.3041 -0.1723  0.1023
  118OSM    H2F12450   3.407   5.070   9.954  0.5679 -3.4634  0.3757
  118OSM    H2G12451   3.570   5.041  10.005 -1.2113 -1.2469 -0.6993
  118OSM    C3F12452   3.509   5.251  10.043  0.2973 -0.1272  0.4779
  118OSM    H3F12453   3.604   5.271  10.097 -0.4746 -0.3007  1.9503
  118OSM    H3G12454   3.422   5.299  10.093  1.0288  1.0292  0.6994
  118OSM    C4F12455   3.517   5.303   9.901  0.1278 -0.0163 -0.5523
  118OSM    H4F12456   3.502   5.413   9.908  0.1422 -0.1012  0.9372
  118OSM    H4G12457   3.427   5.260   9.852 -0.3317 -0.2391  0.4726
  118OSM    C5F12458   3.642   5.271   9.824  0.1492  1.1368  0.5161
  118OSM    H5F12459   3.643   5.165   9.789  1.1281  1.5477 -0.8040
  118OSM    H5G12460   3.730   5.287   9.890  0.1470  2.6951  0.1899
  118OSM    C6F12461   3.656   5.356   9.698  0.2694  0.0626 -0.3933
  118OSM    H6F12462   3.646   5.463   9.724 -2.6027 -0.6109  1.9200
  118OSM    H6G12463   3.565   5.330   9.639 -0.7479  3.0240 -0.2612
  118OSM    C7F12464   3.780   5.325   9.617  0.0160  0.0110  0.0814
  118OSM    H7F12465   3.762   5.218   9.594 -1.4486  0.3317 -0.4296
  118OSM    H7G12466   3.872   5.333   9.679  0.3385  2.7194 -0.6077
  118OSM    C8F12467   3.794   5.398   9.484  0.7846  1.1032  0.9342
  118OSM    H8F12468   3.885   5.352   9.440 -1.6457 -2.1447 -1.1826
  118OSM    H8G12469   3.801   5.508   9.492 -1.8942  1.3278  1.3360
  118OSM    C9F12470   3.683   5.358   9.387 -0.1676  0.8936 -0.0363
  118OSM    H9F12471   3.600   5.304   9.434  1.1155 -0.1850  1.0463
  118OSM   C10F12472   3.689   5.372   9.254  0.7188 -0.5487 -0.7033
  118OSM   H10F12473   3.601   5.337   9.199 -1.6400 -0.1210  2.5340
  118OSM   C11F12474   3.800   5.433   9.177  0.6411 -0.3779 -0.3693
  118OSM   H11F12475   3.895   5.382   9.200  0.0952 -3.8907 -4.5759
  118OSM   H11G12476   3.802   5.544   9.188 -0.6447 -0.4528  0.8891
  118OSM   C12F12477   3.775   5.395   9.026 -0.2077 -0.3223 -0.1844
  118OSM   H12F12478   3.667   5.401   9.003 -1.0448 -3.2368  2.3335
  118OSM   H12G12479   3.810   5.290   9.011 -1.3017 -0.6552 -0.4613
  118OSM   C13F12480   3.841   5.493   8.934 -0.2622  0.2632  0.2168
  118OSM   H13F12481   3.935   5.529   8.982 -0.1409 -0.4339  0.5265
  118OSM   H13G12482   3.770   5.578   8.933 -3.1569 -2.0162 -0.0788
  118OSM   C14F12483   3.860   5.447   8.794  1.3525 -0.1294  0.4779
  118OSM   H14F12484   3.900   5.531   8.734 -1.1717  0.9538  0.1771
  118OSM   H14G12485   3.760   5.425   8.752  1.5250 -0.9114  0.4754
  118OSM   C15F12486   3.953   5.330   8.782 -0.0611 -0.1790  0.1213
  118OSM   H15F12487   3.898   5.250   8.836 -0.8832  0.6139  0.4966
  118OSM   H15G12488   4.045   5.364   8.833 -0.9256 -0.6273  2.1039
  118OSM   C16F12489   3.997   5.284   8.644  0.1588 -0.6315  0.6456
  118OSM   H16F12490   4.080   5.210   8.643 -0.9645 -1.9248 -0.1792
  118OSM   H16G12491   4.027   5.372   8.583 -2.7993  0.6242  0.8175
  118OSM   C17F12492   3.875   5.210   8.580  0.0022  0.2971  0.2946
  118OSM   H17F12493   3.798   5.286   8.555 -1.1495 -0.7458  0.6089
  118OSM   H17G12494   3.833   5.138   8.653 -0.9719  0.3755 -0.1806
  118OSM   C18F12495   3.888   5.128   8.448  0.0229  0.3121  0.9309
  118OSM   H18F12496   3.785   5.107   8.411  0.7701 -0.2782 -0.9399
  118OSM   H18G12497   3.936   5.034   8.485 -1.5990 -0.5246  1.0372
  118OSM   H18H12498   3.950   5.185   8.376  0.5122  0.0424  1.1300
  119OSM      N12499   4.055   5.612  11.016 -0.0095  0.3016 -0.1415
  119OSM    C1512500   3.981   5.485  11.056 -0.0888 -0.6035 -0.0125
  119OSM   H15A12501   4.041   5.412  11.109  0.2667 -1.3410 -1.4035
  119OSM   H15B12502   3.954   5.427  10.969  0.9292 -2.8821  1.1010
  119OSM   H15C12503   3.891   5.503  11.113 -0.8386  0.9952 -1.6272
  119OSM    C1412504   3.965   5.710  10.942  0.1813 -0.4111  0.5797
  119OSM   H14A12505   3.960   5.672  10.841  0.3370  0.0737  0.3885
  119OSM   H14B12506   4.013   5.807  10.936  1.7839 -1.1613  0.5993
  119OSM   H14C12507   3.866   5.720  10.982 -0.2711 -0.7431 -0.4112
  119OSM    C1312508   4.108   5.673  11.140  0.0412  0.4517 -0.4917
  119OSM   H13A12509   4.165   5.764  11.125  0.8618 -0.1447 -1.0251
  119OSM   H13B12510   4.177   5.604  11.186  0.2212  0.4786 -0.7190
  119OSM   H13C12511   4.033   5.701  11.213 -0.5079  0.2334 -0.9627
  119OSM    C1212512   4.169   5.577  10.934 -0.2092 -0.0732  0.2215
  119OSM   H12A12513   4.241   5.524  10.995 -0.6662 -1.3893 -0.3275
  119OSM   H12B12514   4.207   5.673  10.903 -1.6853 -0.0448 -1.7511
  119OSM    C1112515   4.133   5.489  10.804 -0.4205 -1.0340 -1.1943
  119OSM   H11A12516   4.073   5.400  10.832 -0.7788 -0.0720  1.4614
  119OSM   H11B12517   4.223   5.456  10.748  0.3730  1.9727 -1.8795
  119OSM      P12518   4.151   5.669  10.613  0.1123 -0.0545 -0.0118
  119OSM    O1312519   4.061   5.720  10.505 -0.1358 -0.3078 -0.5005
  119OSM    O1412520   4.224   5.764  10.707  0.1454  0.2614  0.1965
  119OSM    O1112521   4.258   5.578  10.549  0.0791  0.2445 -0.4886
  119OSM    O1212522   4.065   5.569  10.710 -0.5875 -1.1777 -0.2922
  119OSM    C1S12523   4.221   5.453  10.477 -0.0056  0.2411 -0.2117
  119OSM    H1S12524   4.115   5.450  10.443 -0.7408  0.6897  1.9105
  119OSM    H1T12525   4.242   5.376  10.554  0.4067  2.5984  2.1889
  119OSM     NF12526   4.254   5.318  10.261 -0.2721  0.0607 -0.1677
  119OSM    HNF12527   4.323   5.252  10.233  0.7106  0.3829  1.3499
  119OSM    C2S12528   4.311   5.429  10.346  0.5969  0.2934  0.3309
  119OSM    H2S12529   4.289   5.520  10.286 -0.5215  1.0702  1.8389
  119OSM    C3S12530   4.462   5.436  10.379  0.0838  0.7577  0.4494
  119OSM    H3S12531   4.495   5.348  10.439  1.1358  1.4011  0.8562
  119OSM     O312532   4.501   5.546  10.459 -0.9084 -0.3026  0.3321
  119OSM    HO312533   4.416   5.589  10.475 -1.0899  1.1940 -3.5631
  119OSM    C4S12534   4.545   5.441  10.253  0.1139 -0.3963  0.2504
  119OSM    H4S12535   4.541   5.542  10.210  1.1267 -0.2437  0.4695
  119OSM    C5S12536   4.617   5.348  10.187 -0.9670 -0.2329 -0.4650
  119OSM    H5S12537   4.609   5.243  10.220  2.3025 -0.3672  0.2391
  119OSM    C6S12538   4.699   5.379  10.061  0.1168  0.0601 -0.3174
  119OSM    H6S12539   4.806   5.391  10.086 -0.0590  0.9685  0.0654
  119OSM    H6T12540   4.674   5.472  10.006  1.1279  0.8260  0.4821
  119OSM    C7S12541   4.702   5.260   9.961  0.1793 -0.1577  0.3358
  119OSM    H7S12542   4.599   5.240   9.924  0.4227  1.1687 -1.1871
  119OSM    H7T12543   4.752   5.169  10.001 -0.1493 -0.5852 -0.2062
  119OSM    C8S12544   4.775   5.302   9.837  0.4269 -0.2697  0.6374
  119OSM    H8S12545   4.880   5.312   9.871  0.1582 -0.4519  1.5690
  119OSM    H8T12546   4.758   5.409   9.815 -1.9747 -0.4819  1.2066
  119OSM    C9S12547   4.759   5.196   9.723 -0.0384  0.6976 -0.2848
  119OSM    H9S12548   4.652   5.166   9.715 -0.0258  0.4348  0.4250
  119OSM    H9T12549   4.803   5.100   9.758 -1.3147 -0.7532 -2.3773
  119OSM   C10S12550   4.822   5.226   9.591 -0.3683 -0.0758 -0.5539
  119OSM   H10S12551   4.932   5.216   9.599 -0.3245 -1.2614 -2.1948
  119OSM   H10T12552   4.806   5.335   9.573 -1.4160 -0.3933 -1.6619
  119OSM   C11S12553   4.774   5.150   9.469  0.3154 -0.5684  0.0423
  119OSM   H11S12554   4.669   5.179   9.447  0.5315  0.0897 -0.1451
  119OSM   H11T12555   4.777   5.040   9.484  2.2546 -0.5749 -0.1019
  119OSM   C12S12556   4.869   5.170   9.354 -0.2183  0.6762 -0.0187
  119OSM   H12S12557   4.949   5.095   9.369 -2.6170 -2.3399 -1.1991
  119OSM   H12T12558   4.910   5.271   9.375 -0.4352  0.4517  1.5915
  119OSM   C13S12559   4.805   5.166   9.209  0.0724  0.0680 -0.2107
  119OSM   H13S12560   4.730   5.248   9.208 -0.6435 -0.5634 -0.0759
  119OSM   H13T12561   4.752   5.070   9.192 -0.9442  0.1298  2.2348
  119OSM   C14S12562   4.924   5.178   9.110  0.3780  0.3609  0.2323
  119OSM   H14S12563   4.987   5.088   9.119 -1.1953 -0.8309 -0.2072
  119OSM   H14T12564   4.985   5.266   9.142  0.1318  0.1516  1.3110
  119OSM   C15S12565   4.883   5.191   8.962  0.3474 -0.4009  0.0920
  119OSM   H15S12566   4.803   5.116   8.942  1.0496 -0.8660 -1.0315
  119OSM   H15T12567   4.966   5.167   8.893 -0.8239  0.6130 -1.7479
  119OSM   C16S12568   4.821   5.322   8.929  0.2859 -0.8154  0.0804
  119OSM   H16S12569   4.893   5.401   8.960  1.5809 -1.3067 -1.5251
  119OSM   H16T12570   4.731   5.353   8.985  0.9914 -0.1107  0.8510
  119OSM   C17S12571   4.778   5.345   8.775  0.2297 -0.5797  0.4410
  119OSM   H17S12572   4.715   5.256   8.751 -0.5978 -0.6681  2.6363
  119OSM   H17T12573   4.862   5.349   8.703 -0.6308  0.0120 -0.5669
  119OSM   C18S12574   4.699   5.471   8.742  0.0505 -0.3046  0.6919
  119OSM   H18S12575   4.769   5.557   8.743  2.1340 -1.8916 -1.0874
  119OSM   H18T12576   4.617   5.479   8.817 -0.0192  0.3898  0.5534
  119OSM   H18U12577   4.647   5.467   8.644  0.0930  0.4977  0.6313
  119OSM    C1F12578   4.133   5.306  10.215 -0.9198  0.0546 -0.2834
  119OSM     OF12579   4.053   5.393  10.242  0.6281  0.3947  0.9120
  119OSM    C2F12580   4.102   5.183  10.139 -0.3925  0.2973 -1.0424
  119OSM    H2F12581   4.108   5.098  10.211 -0.4011  0.7125 -0.5449
  119OSM    H2G12582   4.176   5.167  10.058 -1.0480 -4.1712 -1.0107
  119OSM    C3F12583   3.957   5.175  10.074 -1.0207  0.3180 -0.9115
  119OSM    H3F12584   3.937   5.269  10.019 -1.7169  1.5224  1.2452
  119OSM    H3G12585   3.885   5.181  10.158 -0.0132 -0.9178  0.0980
  119OSM    C4F12586   3.935   5.047   9.988 -0.5352 -0.1623 -0.2905
  119OSM    H4F12587   3.831   5.054   9.948 -0.4027 -2.3472 -1.1646
  119OSM    H4G12588   3.939   4.962  10.059 -1.3711 -0.9956 -1.2029
  119OSM    C5F12589   4.008   5.030   9.851 -0.6114  0.4283  0.2798
  119OSM    H5F12590   4.115   5.020   9.879 -0.3523 -0.2928 -0.9035
  119OSM    H5G12591   3.981   5.117   9.788  1.5138  1.0703  0.1867
  119OSM    C6F12592   3.969   4.898   9.779 -0.1905 -0.0902 -0.5842
  119OSM    H6F12593   4.002   4.908   9.674 -1.2520 -0.3965 -0.9668
  119OSM    H6G12594   3.858   4.887   9.779 -0.2490  0.1756 -2.5032
  119OSM    C7F12595   4.030   4.779   9.835 -0.4134  0.5609 -0.3140
  119OSM    H7F12596   3.990   4.776   9.939 -1.2481  1.4415 -0.5885
  119OSM    H7G12597   4.136   4.811   9.826 -0.4131  0.6171 -0.1253
  119OSM    C8F12598   4.021   4.643   9.775 -0.3111  0.6829  0.6712
  119OSM    H8F12599   4.101   4.623   9.700  1.0353 -2.0685  2.6636
  119OSM    H8G12600   3.924   4.621   9.726  0.7793 -0.9029 -0.8844
  119OSM    C9F12601   4.049   4.539   9.880 -0.3429 -0.1882  0.0947
  119OSM    H9F12602   4.127   4.558   9.955 -1.1564  2.1755  0.3988
  119OSM   C10F12603   3.977   4.422   9.895 -0.0604 -0.7272  0.1924
  119OSM   H10F12604   4.027   4.351   9.962  2.3755  0.5832 -0.1390
  119OSM   C11F12605   3.872   4.359   9.797  0.2765 -0.1063 -0.4631
  119OSM   H11F12606   3.830   4.434   9.726 -3.2809 -0.7963  0.6679
  119OSM   H11G12607   3.778   4.327   9.848  1.0887 -2.1552 -0.1680
  119OSM   C12F12608   3.927   4.229   9.738  0.1016 -0.0508  0.1153
  119OSM   H12F12609   3.854   4.168   9.680 -0.1750 -1.4769  1.8724
  119OSM   H12G12610   3.943   4.154   9.819 -0.2919  0.6467  0.8484
  119OSM   C13F12611   4.055   4.247   9.656  0.8687 -1.0037 -0.4325
  119OSM   H13F12612   4.110   4.156   9.624  3.0241 -0.9556  2.6683
  119OSM   H13G12613   4.122   4.308   9.721 -0.4259 -0.4256  0.4032
  119OSM   C14F12614   4.040   4.326   9.528  0.1705  0.8664 -0.6846
  119OSM   H14F12615   3.986   4.422   9.534 -2.4004 -0.5166 -0.2930
  119OSM   H14G12616   3.980   4.255   9.467 -0.5627 -0.8607  1.8573
  119OSM   C15F12617   4.168   4.343   9.449  0.3572  0.2644  0.0172
  119OSM   H15F12618   4.198   4.237   9.435 -0.9942  0.0461 -1.6636
  119OSM   H15G12619   4.243   4.395   9.512  0.7532 -1.0950  0.6942
  119OSM   C16F12620   4.143   4.420   9.328  0.4831  0.2311  0.0226
  119OSM   H16F12621   4.088   4.510   9.363 -1.0098 -0.6468 -0.0175
  119OSM   H16G12622   4.082   4.362   9.256  0.9168 -1.8925  1.2841
  119OSM   C17F12623   4.273   4.462   9.257 -1.1815 -0.1052  0.7048
  119OSM   H17F12624   4.309   4.367   9.211  0.3024  0.6720  0.2028
  119OSM   H17G12625   4.345   4.498   9.333 -1.2864  2.8758 -0.5030
  119OSM   C18F12626   4.255   4.583   9.165  0.0790 -0.0754  0.3758
  119OSM   H18F12627   4.175   4.562   9.090 -0.7867  1.4499  0.8379
  119OSM   H18G12628   4.354   4.617   9.127  1.5240 -2.0701  2.1077
  119OSM   H18H12629   4.223   4.663   9.235  0.2259  1.2897 -1.0665
  120OSM      N12630   4.484   2.024  11.006 -0.5063  0.8213  0.1320
  120OSM    C1512631   4.594   2.048  11.109  0.0257 -0.5311  0.1319
  120OSM   H15A12632   4.693   2.013  11.083  1.4094  1.9265  1.7688
  120OSM   H15B12633   4.570   2.007  11.206 -1.0101  0.8402  0.4786
  120OSM   H15C12634   4.590   2.155  11.121 -2.8903 -0.6805  1.3900
  120OSM    C1412635   4.454   1.873  10.995  0.1577 -0.0775  0.1524
  120OSM   H14A12636   4.394   1.860  10.906  1.1810  0.4145 -0.6311
  120OSM   H14B12637   4.400   1.839  11.083 -0.6865  1.8088  0.4086
  120OSM   H14C12638   4.544   1.813  10.990 -0.8756 -1.9729  2.0501
  120OSM    C1312639   4.359   2.098  11.046 -0.0491  0.0198  0.5114
  120OSM   H13A12640   4.278   2.090  10.975  0.7995  1.0028 -0.6296
  120OSM   H13B12641   4.384   2.203  11.057  0.7609  0.0088 -0.8973
  120OSM   H13C12642   4.321   2.059  11.139  2.4351 -2.7138  0.5204
  120OSM    C1212643   4.524   2.080  10.867  0.0828  0.0310 -0.9668
  120OSM   H12A12644   4.618   2.038  10.836  0.2957  0.1285 -0.4653
  120OSM   H12B12645   4.558   2.180  10.889  0.6631 -0.5146  0.7528
  120OSM    C1112646   4.410   2.081  10.756  0.1317 -0.6345  0.1074
  120OSM   H11A12647   4.477   2.097  10.668  1.4578  0.6765  1.2916
  120OSM   H11B12648   4.343   2.170  10.762  1.5979  0.6985 -1.8620
  120OSM      P12649   4.183   1.944  10.736  0.7326  0.1125 -0.1122
  120OSM    O1312650   4.153   1.808  10.681  0.4161  0.0897 -0.5780
  120OSM    O1412651   4.116   1.978  10.862  0.1649 -0.2916 -0.5357
  120OSM    O1112652   4.144   2.049  10.630 -0.3166 -0.4624 -0.3092
  120OSM    O1212653   4.337   1.955  10.746 -0.9557 -0.0815 -0.5840
  120OSM    C1S12654   4.159   2.019  10.486 -1.0819  0.7730  1.2166
  120OSM    H1S12655   4.089   1.938  10.457  0.1922  0.5935 -1.7570
  120OSM    H1T12656   4.263   1.993  10.456 -1.6734  0.3320 -0.5714
  120OSM     NF12657   4.155   2.114  10.254  0.7209  0.3426  0.2808
  120OSM    HNF12658   4.224   2.166  10.203  1.7273 -0.2502  0.9998
  120OSM    C2S12659   4.129   2.144  10.402 -0.4066  0.4879  0.3074
  120OSM    H2S12660   4.019   2.160  10.406 -0.6665  0.2861 -3.0407
  120OSM    C3S12661   4.206   2.270  10.456 -0.1060  0.5186  0.5939
  120OSM    H3S12662   4.316   2.263  10.449  0.1176  3.9363 -2.4971
  120OSM     O312663   4.159   2.289  10.593 -0.2775  0.5368 -0.0207
  120OSM    HO312664   4.139   2.198  10.619  0.1737  0.7540  1.1236
  120OSM    C4S12665   4.161   2.386  10.383  0.0688  0.3920 -0.4594
  120OSM    H4S12666   4.055   2.411  10.401  0.5420  0.6613  2.4153
  120OSM    C5S12667   4.236   2.474  10.313  0.7338 -0.0079  0.9716
  120OSM    H5S12668   4.346   2.468  10.310  0.6480 -1.8047 -1.8907
  120OSM    C6S12669   4.181   2.595  10.241  0.7103 -0.1070 -0.4996
  120OSM    H6S12670   4.206   2.688  10.296  0.3089 -1.7216  2.6184
  120OSM    H6T12671   4.073   2.583  10.218  0.9792 -3.4016 -0.4304
  120OSM    C7S12672   4.241   2.584  10.099 -0.0599 -0.4747  0.2715
  120OSM    H7S12673   4.221   2.487  10.048 -2.1052  0.5538 -1.0449
  120OSM    H7T12674   4.351   2.599  10.111 -0.3903  3.7464 -0.2060
  120OSM    C8S12675   4.198   2.695   9.999 -0.1067  0.7715  0.7323
  120OSM    H8S12676   4.202   2.795  10.047  1.2342  1.3283 -0.4610
  120OSM    H8T12677   4.092   2.679   9.972  0.4571 -1.3047 -0.4588
  120OSM    C9S12678   4.275   2.690   9.866  0.3055 -0.1640 -0.3326
  120OSM    H9S12679   4.237   2.609   9.800 -0.0052  1.0761 -1.7133
  120OSM    H9T12680   4.381   2.667   9.889  0.0378 -0.4480  0.6596
  120OSM   C10S12681   4.264   2.821   9.781 -0.0066 -0.1881 -0.0133
  120OSM   H10S12682   4.336   2.894   9.823 -0.4904 -0.4447  1.3041
  120OSM   H10T12683   4.157   2.850   9.786 -0.3072 -0.7272 -2.2379
  120OSM   C11S12684   4.300   2.796   9.639 -0.0628  0.2294  0.4899
  120OSM   H11S12685   4.231   2.731   9.581  2.9396 -1.9253 -0.9200
  120OSM   H11T12686   4.387   2.727   9.639 -0.6731 -0.6510  3.0297
  120OSM   C12S12687   4.342   2.925   9.558 -0.2226 -0.0130  0.0887
  120OSM   H12S12688   4.445   2.963   9.579  0.1047 -0.2723 -0.9679
  120OSM   H12T12689   4.272   3.005   9.590 -0.7539  0.3912 -1.9469
  120OSM   C13S12690   4.308   2.910   9.413 -0.1329 -0.1631  0.2085
  120OSM   H13S12691   4.343   3.004   9.365  1.4198 -1.4819 -1.4042
  120OSM   H13T12692   4.200   2.901   9.388 -0.3666 -2.2495  1.6660
  120OSM   C14S12693   4.379   2.793   9.338  0.7057  0.4297  0.6424
  120OSM   H14S12694   4.368   2.702   9.400 -0.8462  0.0454 -0.1366
  120OSM   H14T12695   4.487   2.818   9.330  0.7680 -0.3391 -1.8064
  120OSM   C15S12696   4.330   2.779   9.189 -0.4958  0.1209 -0.1981
  120OSM   H15S12697   4.221   2.788   9.168 -0.6004 -0.2989  0.1495
  120OSM   H15T12698   4.356   2.676   9.157 -0.9196  0.6366 -2.3810
  120OSM   C16S12699   4.401   2.878   9.091 -0.3771  0.2645  0.2771
  120OSM   H16S12700   4.509   2.869   9.111 -0.8173 -2.4179  1.9769
  120OSM   H16T12701   4.371   2.982   9.116  1.8783  0.7820  1.0222
  120OSM   C17S12702   4.379   2.831   8.944 -0.7225  0.0764 -0.5889
  120OSM   H17S12703   4.275   2.845   8.907 -1.4278  3.8014  2.1292
  120OSM   H17T12704   4.414   2.726   8.935 -2.0983 -0.4572 -0.0807
  120OSM   C18S12705   4.457   2.906   8.842  0.2896  0.3333 -0.0887
  120OSM   H18S12706   4.441   2.863   8.741 -1.1796  1.0102 -0.1600
  120OSM   H18T12707   4.566   2.914   8.861  0.5512  0.0263 -1.3626
  120OSM   H18U12708   4.421   3.010   8.828  0.1276  0.3342  0.3196
  120OSM    C1F12709   4.083   2.024  10.188  0.0889  0.5126  0.0001
  120OSM     OF12710   3.980   1.976  10.238  0.2026 -0.0644  0.1987
  120OSM    C2F12711   4.131   1.987  10.048 -0.5487 -0.4553 -0.6267
  120OSM    H2F12712   4.242   1.981  10.046 -0.2825  2.2335  0.8106
  120OSM    H2G12713   4.108   2.076   9.985 -1.3647  0.0321  0.3212
  120OSM    C3F12714   4.054   1.863   9.994 -0.0988  0.1205 -0.4100
  120OSM    H3F12715   3.945   1.883   9.999 -0.1122 -0.0681  0.0665
  120OSM    H3G12716   4.077   1.771  10.051  4.2565  0.8405 -0.6915
  120OSM    C4F12717   4.087   1.830   9.846  1.0231  0.0375 -0.4824
  120OSM    H4F12718   4.003   1.767   9.811  0.5097 -0.1908  1.0908
  120OSM    H4G12719   4.179   1.769   9.836  0.6266 -0.6872  0.2276
  120OSM    C5F12720   4.091   1.953   9.754  0.6239  0.0534 -0.3688
  120OSM    H5F12721   4.176   2.015   9.791  1.3774 -1.3074  0.2530
  120OSM    H5G12722   3.994   2.006   9.751  0.1640 -0.7840 -0.4039
  120OSM    C6F12723   4.117   1.896   9.614  0.0736  0.4101 -0.3952
  120OSM    H6F12724   4.073   1.794   9.609 -0.0487  0.4309  0.1677
  120OSM    H6G12725   4.227   1.886   9.602 -0.3772 -2.2208 -4.5584
  120OSM    C7F12726   4.065   2.005   9.508 -0.2295  0.6107 -0.3331
  120OSM    H7F12727   4.154   2.062   9.473 -0.0877  1.3581  1.1406
  120OSM    H7G12728   3.995   2.073   9.561 -1.7975 -0.9462 -0.3257
  120OSM    C8F12729   4.016   1.929   9.389 -0.1967  0.0317 -0.2131
  120OSM    H8F12730   3.971   1.996   9.312  0.8976  0.2441 -0.6786
  120OSM    H8G12731   3.933   1.862   9.421 -0.5393 -0.0709 -1.2867
  120OSM    C9F12732   4.112   1.845   9.309  0.2382 -0.3931  0.0698
  120OSM    H9F12733   4.155   1.763   9.369  2.1973 -2.0844 -3.3315
  120OSM   C10F12734   4.159   1.862   9.183  0.0628 -0.8871  0.1682
  120OSM   H10F12735   4.222   1.784   9.137 -0.1418 -0.5831 -0.6572
  120OSM   C11F12736   4.132   1.982   9.086  0.1649 -0.0377 -0.1621
  120OSM   H11F12737   4.071   2.066   9.125  1.9591  1.1710  0.1155
  120OSM   H11G12738   4.073   1.950   8.998 -0.8925  2.7029 -0.5420
  120OSM   C12F12739   4.269   2.032   9.037 -0.3008  0.3164  0.3242
  120OSM   H12F12740   4.341   1.948   9.025  0.1989  0.5960  1.2733
  120OSM   H12G12741   4.321   2.093   9.114  1.9482  0.7451 -1.4359
  120OSM   C13F12742   4.264   2.099   8.903  0.4993  0.3111 -0.0270
  120OSM   H13F12743   4.340   2.176   8.879  0.1773  0.0284 -2.2269
  120OSM   H13G12744   4.166   2.149   8.890  0.8209  0.4410 -2.4405
  120OSM   C14F12745   4.254   1.992   8.791 -0.7984  0.0072  0.0217
  120OSM   H14F12746   4.212   2.036   8.698 -0.3124 -1.1991 -0.7928
  120OSM   H14G12747   4.191   1.906   8.820 -1.1002  1.0608  2.8441
  120OSM   C15F12748   4.386   1.958   8.727 -0.9125 -0.3318  0.2154
  120OSM   H15F12749   4.470   1.986   8.795  0.3991  0.0961 -1.5089
  120OSM   H15G12750   4.413   2.015   8.636  1.1927 -0.5683  0.6239
  120OSM   C16F12751   4.405   1.813   8.691  0.3716  0.1949 -0.8239
  120OSM   H16F12752   4.509   1.819   8.651  1.3855 -1.0299  1.4594
  120OSM   H16G12753   4.339   1.801   8.602 -0.3761  0.8956 -0.3735
  120OSM   C17F12754   4.403   1.708   8.809 -0.3202  0.1935 -0.5685
  120OSM   H17F12755   4.300   1.720   8.850 -0.8661 -0.6342 -1.6463
  120OSM   H17G12756   4.486   1.729   8.879  0.1080  1.1620 -1.3420
  120OSM   C18F12757   4.413   1.565   8.758  0.1143  0.5367  0.1343
  120OSM   H18F12758   4.397   1.482   8.831  1.5763  1.6773  1.8422
  120OSM   H18G12759   4.521   1.558   8.732  0.3904  1.8458  0.8385
  120OSM   H18H12760   4.342   1.554   8.673  0.1272  0.0477  0.1837
  121OSM      N12761   2.424   5.212  10.687 -0.3261 -0.1334 -0.2596
  121OSM    C1512762   2.392   5.257  10.544  0.1858  0.2968 -0.2842
  121OSM   H15A12763   2.453   5.344  10.524  1.0128 -0.1373  0.2708
  121OSM   H15B12764   2.286   5.275  10.540  0.3054  1.3287  0.6756
  121OSM   H15C12765   2.424   5.180  10.475 -1.4572 -0.0155 -0.7315
  121OSM    C1412766   2.426   5.326  10.776 -0.0416  0.1043  0.8764
  121OSM   H14A12767   2.438   5.296  10.879  0.6223 -0.7738  0.5574
  121OSM   H14B12768   2.329   5.373  10.769 -0.4523 -0.8377  0.0386
  121OSM   H14C12769   2.510   5.387  10.749 -0.1053 -0.0896  0.2234
  121OSM    C1312770   2.318   5.116  10.736  0.4658  0.7042  0.3059
  121OSM   H13A12771   2.221   5.159  10.718  1.0482  1.2978 -1.7030
  121OSM   H13B12772   2.310   5.112  10.844 -2.3273  1.3255  0.1901
  121OSM   H13C12773   2.328   5.017  10.695 -1.5215  0.8089 -0.5316
  121OSM    C1212774   2.566   5.161  10.682 -0.0736 -0.0201  0.1798
  121OSM   H12A12775   2.595   5.131  10.782  2.5306  2.2974  0.2398
  121OSM   H12B12776   2.635   5.243  10.669 -3.1028  2.8030  0.4073
  121OSM    C1112777   2.597   5.039  10.586  0.4983  0.2220 -0.4574
  121OSM   H11A12778   2.702   5.006  10.600 -0.0358 -1.8670 -0.9791
  121OSM   H11B12779   2.580   5.069  10.480 -2.9675  2.5177  0.5753
  121OSM      P12780   2.542   4.825  10.721  0.3561  0.2047  0.0288
  121OSM    O1312781   2.621   4.902  10.819 -0.6841 -0.3130 -0.0369
  121OSM    O1412782   2.411   4.779  10.774  0.2527  0.1666 -0.4400
  121OSM    O1112783   2.619   4.700  10.661 -0.1525 -0.3316 -0.3918
  121OSM    O1212784   2.511   4.919  10.598  0.1056 -0.0577 -0.3668
  121OSM    C1S12785   2.543   4.606  10.574 -0.2871 -0.2601  0.2999
  121OSM    H1S12786   2.447   4.648  10.537 -0.2765 -0.7259 -0.2695
  121OSM    H1T12787   2.522   4.514  10.632 -0.3592  0.0741  0.8148
  121OSM     NF12788   2.523   4.506  10.341 -0.3956 -0.5411  0.7229
  121OSM    HNF12789   2.531   4.407  10.350  2.4452 -0.3220  1.6286
  121OSM    C2S12790   2.618   4.571  10.442  0.8814 -0.6692  0.5594
  121OSM    H2S12791   2.646   4.672  10.404  0.4604 -0.6716  0.2371
  121OSM    C3S12792   2.753   4.499  10.468 -0.3540  0.6176  0.5614
  121OSM    H3S12793   2.732   4.406  10.525  2.8130 -0.1982  0.5694
  121OSM     O312794   2.839   4.559  10.563 -0.3647  0.1109  0.1348
  121OSM    HO312795   2.779   4.622  10.603 -0.0492  0.3734  0.2035
  121OSM    C4S12796   2.833   4.481  10.338  0.4615  0.2244  0.0943
  121OSM    H4S12797   2.852   4.571  10.277 -1.3954  0.3798 -0.3329
  121OSM    C5S12798   2.893   4.364  10.305 -0.6802 -0.1836 -0.0473
  121OSM    H5S12799   2.896   4.276  10.370 -1.5824  0.2903  0.6537
  121OSM    C6S12800   2.973   4.336  10.175 -0.0191 -0.0044 -0.3902
  121OSM    H6S12801   2.917   4.277  10.100 -1.7774  0.2446  0.6458
  121OSM    H6T12802   3.049   4.260  10.200  0.4600  0.9403  1.2032
  121OSM    C7S12803   3.039   4.463  10.116 -0.0493  0.2390  0.3585
  121OSM    H7S12804   3.109   4.506  10.191  2.2602 -1.7391 -0.5365
  121OSM    H7T12805   2.962   4.542  10.100  0.8710  1.2590  0.8326
  121OSM    C8S12806   3.106   4.444   9.979  0.8878  0.1835  0.5963
  121OSM    H8S12807   3.131   4.550   9.957  0.9478  0.4490  1.8885
  121OSM    H8T12808   3.035   4.403   9.903  1.9414  0.1953 -0.4296
  121OSM    C9S12809   3.234   4.361   9.983  0.4391 -0.2828  0.3331
  121OSM    H9S12810   3.206   4.255  10.002  0.1745 -0.5948 -1.6271
  121OSM    H9T12811   3.304   4.404  10.058  0.9807 -1.8072  0.7434
  121OSM   C10S12812   3.307   4.361   9.845  0.1754  0.0276  0.4696
  121OSM   H10S12813   3.320   4.461   9.798 -2.4454 -0.5594 -1.7273
  121OSM   H10T12814   3.236   4.317   9.772 -1.5336  3.1717  0.0156
  121OSM   C11S12815   3.437   4.286   9.854 -0.3676 -0.5480  0.4923
  121OSM   H11S12816   3.413   4.196   9.914  0.4290 -1.4971 -0.5523
  121OSM   H11T12817   3.521   4.344   9.896 -1.4875  0.8783  0.8547
  121OSM   C12S12818   3.493   4.240   9.715  0.4067  0.0566  0.4545
  121OSM   H12S12819   3.410   4.188   9.663  0.9032 -0.3638  0.0638
  121OSM   H12T12820   3.571   4.165   9.742  1.7393  1.4202  0.4961
  121OSM   C13S12821   3.540   4.365   9.636  0.8059  0.6280 -0.3284
  121OSM   H13S12822   3.607   4.427   9.700  0.8681 -2.1855  2.6061
  121OSM   H13T12823   3.451   4.423   9.604 -0.6597 -1.1143  0.3920
  121OSM   C14S12824   3.610   4.326   9.503  0.0454 -0.3598 -0.8745
  121OSM   H14S12825   3.535   4.278   9.436 -2.3122  0.1581  1.2476
  121OSM   H14T12826   3.690   4.252   9.523 -0.5767 -0.5950  0.8980
  121OSM   C15S12827   3.671   4.444   9.427  0.0583 -1.0266 -0.5790
  121OSM   H15S12828   3.765   4.478   9.476  0.0358  1.0928 -1.9158
  121OSM   H15T12829   3.605   4.532   9.415  0.5932 -0.2683  1.6923
  121OSM   C16S12830   3.720   4.393   9.294  0.0040  0.0689  0.2508
  121OSM   H16S12831   3.642   4.342   9.234 -0.8993 -0.7870  2.0816
  121OSM   H16T12832   3.792   4.312   9.319  0.3056 -0.0469 -0.9651
  121OSM   C17S12833   3.787   4.497   9.209 -0.0072  0.3002  0.4315
  121OSM   H17S12834   3.866   4.546   9.270  1.1028 -1.1780  0.2455
  121OSM   H17T12835   3.715   4.576   9.182 -0.2839 -0.2168 -0.3934
  121OSM   C18S12836   3.847   4.449   9.075 -0.0909  0.4098  0.1508
  121OSM   H18S12837   3.783   4.367   9.034  0.2094  1.7589 -3.3495
  121OSM   H18T12838   3.949   4.407   9.089  0.0620 -0.0545 -1.9747
  121OSM   H18U12839   3.839   4.524   8.993  0.9685  1.6095  1.1144
  121OSM    C1F12840   2.421   4.568  10.287 -0.9834 -0.9073 -0.8650
  121OSM     OF12841   2.398   4.689  10.302  0.0799 -0.3507  0.0451
  121OSM    C2F12842   2.320   4.481  10.207 -0.3454  0.4634 -0.0154
  121OSM    H2F12843   2.231   4.468  10.273  1.0170 -2.0394  1.4914
  121OSM    H2G12844   2.380   4.389  10.192  0.1946  0.2178  3.0150
  121OSM    C3F12845   2.270   4.543  10.076  0.5658  0.3711  0.7139
  121OSM    H3F12846   2.358   4.583  10.021  1.4970 -2.8253 -0.3944
  121OSM    H3G12847   2.196   4.624  10.091  1.4195  1.0709  1.2520
  121OSM    C4F12848   2.215   4.430   9.984  0.3700  0.2977 -0.2718
  121OSM    H4F12849   2.135   4.370  10.032  0.6081 -1.4033 -1.8779
  121OSM    H4G12850   2.303   4.371   9.948 -0.1488  0.7856 -2.5350
  121OSM    C5F12851   2.149   4.493   9.867 -0.2258 -0.4414  0.2028
  121OSM    H5F12852   2.219   4.562   9.817 -0.2958 -0.1667  0.4780
  121OSM    H5G12853   2.060   4.553   9.896  0.6901  2.1222 -1.8906
  121OSM    C6F12854   2.132   4.395   9.753 -0.3641  0.7712 -0.6975
  121OSM    H6F12855   2.098   4.298   9.795  1.9537  0.0777 -0.2836
  121OSM    H6G12856   2.236   4.376   9.720  0.1610  0.7791  0.8907
  121OSM    C7F12857   2.032   4.456   9.648 -0.4884 -0.4972  0.1800
  121OSM    H7F12858   2.063   4.560   9.623 -1.3160 -0.7857 -2.2956
  121OSM    H7G12859   1.930   4.466   9.691  0.1696 -1.3020  2.0302
  121OSM    C8F12860   2.014   4.361   9.530  0.4126  0.4884 -0.5062
  121OSM    H8F12861   1.920   4.392   9.480 -0.6102  2.2348  2.2359
  121OSM    H8G12862   1.993   4.267   9.585  1.6902  0.5088  0.0399
  121OSM    C9F12863   2.135   4.365   9.443  0.2382 -0.2088 -0.7454
  121OSM    H9F12864   2.223   4.345   9.506 -0.2013  0.6049  0.1543
  121OSM   C10F12865   2.138   4.400   9.314 -0.5449  0.5139 -0.9696
  121OSM   H10F12866   2.238   4.396   9.267 -0.3674 -0.0569 -0.5497
  121OSM   C11F12867   2.021   4.432   9.221 -0.1555 -0.0030 -0.1623
  121OSM   H11F12868   1.934   4.474   9.275  1.4449  3.0584  0.2761
  121OSM   H11G12869   2.002   4.345   9.155  1.1691  0.5687 -1.3542
  121OSM   C12F12870   2.062   4.533   9.113 -0.6968 -0.7074  0.6080
  121OSM   H12F12871   2.076   4.626   9.172 -0.3867 -0.1843 -0.2722
  121OSM   H12G12872   1.982   4.550   9.039  0.7632 -1.3499 -1.1937
  121OSM   C13F12873   2.187   4.500   9.032 -0.3800  0.1879 -0.3108
  121OSM   H13F12874   2.187   4.404   8.977 -0.0216  0.6266 -1.1069
  121OSM   H13G12875   2.279   4.508   9.093  0.3444  0.7279 -1.4462
  121OSM   C14F12876   2.206   4.611   8.925 -0.1334  0.4296 -0.0885
  121OSM   H14F12877   2.210   4.710   8.975 -3.9139  0.2701  0.8350
  121OSM   H14G12878   2.117   4.612   8.858 -0.6516  1.6265  0.5875
  121OSM   C15F12879   2.327   4.599   8.835 -0.0211 -0.1722 -0.1886
  121OSM   H15F12880   2.320   4.508   8.772 -3.9920  0.4535 -0.9211
  121OSM   H15G12881   2.423   4.598   8.891 -0.6726 -0.8235  0.9488
  121OSM   C16F12882   2.336   4.719   8.742 -0.2522  0.4267 -0.2027
  121OSM   H16F12883   2.307   4.814   8.790 -0.7659 -1.2808  3.1700
  121OSM   H16G12884   2.264   4.706   8.659 -0.4211 -3.2745  0.3228
  121OSM   C17F12885   2.473   4.712   8.669 -0.4170 -0.5452  0.1399
  121OSM   H17F12886   2.556   4.732   8.740 -0.9867  2.2128  0.1413
  121OSM   H17G12887   2.467   4.798   8.598  0.7993 -0.4067  0.1882
  121OSM   C18F12888   2.506   4.582   8.594 -0.0201 -0.3599  0.6849
  121OSM   H18F12889   2.596   4.598   8.531  1.3261 -0.0630  2.6020
  121OSM   H18G12890   2.424   4.566   8.522  1.0747  3.3367 -1.6912
  121OSM   H18H12891   2.511   4.497   8.665 -0.4641 -0.0397  1.1146
  122OSM      N12892   3.185   1.872  10.802 -0.4158  0.3420  0.8220
  122OSM    C1512893   3.277   1.787  10.888 -0.1150  0.3052  0.0454
  122OSM   H15A12894   3.237   1.784  10.989  0.5999  1.8351  0.4009
  122OSM   H15B12895   3.380   1.818  10.878  0.4578 -1.1491  1.0705
  122OSM   H15C12896   3.272   1.687  10.846  1.0974  0.5989 -0.8307
  122OSM    C1412897   3.039   1.820  10.823 -1.0055 -0.5943  0.3819
  122OSM   H14A12898   3.025   1.806  10.929 -1.2283 -1.9388  0.1983
  122OSM   H14B12899   3.021   1.731  10.765 -0.7045 -0.7092  0.4597
  122OSM   H14C12900   2.964   1.891  10.794 -3.5000 -2.1984  2.4784
  122OSM    C1312901   3.175   2.014  10.847 -0.5887  0.8541 -0.7181
  122OSM   H13A12902   3.136   2.023  10.947 -0.2577  0.4967 -0.5520
  122OSM   H13B12903   3.106   2.071  10.787 -1.4837 -1.0860 -1.6095
  122OSM   H13C12904   3.270   2.065  10.860  1.5606 -2.7512 -0.9077
  122OSM    C1212905   3.229   1.849  10.650 -0.4054 -0.7036  0.3414
  122OSM   H12A12906   3.189   1.924  10.583  0.0516 -0.5031  0.2865
  122OSM   H12B12907   3.207   1.749  10.616  2.0647 -0.7952 -1.2238
  122OSM    C1112908   3.381   1.863  10.614  0.6419 -0.1513 -0.6626
  122OSM   H11A12909   3.401   1.969  10.640 -2.9112  0.5204 -0.0994
  122OSM   H11B12910   3.386   1.857  10.503 -1.6658  0.7575 -0.8780
  122OSM      P12911   3.590   1.822  10.754 -0.5139  0.0158  0.1098
  122OSM    O1312912   3.547   1.913  10.859  0.4091  0.3099 -0.0564
  122OSM    O1412913   3.680   1.706  10.799  0.8635 -0.1141  0.5259
  122OSM    O1112914   3.667   1.924  10.656 -0.2349 -0.8880 -0.1990
  122OSM    O1212915   3.468   1.767  10.676  0.0910  0.2372 -0.3639
  122OSM    C1S12916   3.797   1.884  10.597 -0.2880  0.8979  0.8177
  122OSM    H1S12917   3.842   1.795  10.648 -3.8580 -1.3284  0.4241
  122OSM    H1T12918   3.874   1.963  10.585  2.1799 -1.4002  0.4131
  122OSM     NF12919   3.888   1.787  10.392  0.0053  0.1136 -0.0893
  122OSM    HNF12920   3.946   1.847  10.338 -1.2108  1.8022  0.4226
  122OSM    C2S12921   3.774   1.843  10.447  0.3927 -0.0944  0.4021
  122OSM    H2S12922   3.703   1.758  10.452  0.3886 -0.0706  0.8260
  122OSM    C3S12923   3.697   1.950  10.361 -0.3834  0.3470  0.7037
  122OSM    H3S12924   3.765   2.034  10.337 -2.4867  1.5303 -1.4986
  122OSM     O312925   3.593   2.026  10.418  0.1261  0.2361 -0.2180
  122OSM    HO312926   3.595   1.993  10.508  0.7793 -0.0341 -0.3244
  122OSM    C4S12927   3.646   1.899  10.227  0.4779 -0.4173  0.5995
  122OSM    H4S12928   3.579   1.811  10.230 -0.5437  0.3446  3.0521
  122OSM    C5S12929   3.678   1.944  10.105 -0.1653  0.1528 -0.8189
  122OSM    H5S12930   3.749   2.028  10.100 -1.2414  1.1810  0.5418
  122OSM    C6S12931   3.618   1.912   9.968 -0.2744 -0.9709 -0.3786
  122OSM    H6S12932   3.511   1.937   9.950 -0.1031 -0.7170 -1.0953
  122OSM    H6T12933   3.628   1.805   9.939 -2.3897 -1.6723  1.1783
  122OSM    C7S12934   3.682   2.000   9.854 -0.1120  0.2792  0.3249
  122OSM    H7S12935   3.786   1.968   9.832 -0.5264 -1.2609  0.4695
  122OSM    H7T12936   3.671   2.105   9.890  0.2272  0.5479 -0.3491
  122OSM    C8S12937   3.613   2.009   9.718  0.4823  0.8089  0.0642
  122OSM    H8S12938   3.510   2.042   9.744 -0.3453  0.1896 -2.1887
  122OSM    H8T12939   3.600   1.912   9.665  2.2395  0.4378  0.2726
  122OSM    C9S12940   3.665   2.110   9.625  0.5923 -0.1363  0.2963
  122OSM    H9S12941   3.775   2.102   9.620  1.0307  3.4289  1.3769
  122OSM    H9T12942   3.642   2.207   9.675  1.3053  1.2671 -1.9203
  122OSM   C10S12943   3.588   2.128   9.493 -0.8463 -0.1943  0.1438
  122OSM   H10S12944   3.478   2.114   9.507 -1.4848  0.9110 -2.8797
  122OSM   H10T12945   3.620   2.049   9.423 -0.7435  0.4688 -0.5796
  122OSM   C11S12946   3.622   2.261   9.409  0.3013  0.0204 -0.6255
  122OSM   H11S12947   3.726   2.252   9.371  1.7933 -0.1235  3.0818
  122OSM   H11T12948   3.635   2.348   9.477 -0.9217  0.0990 -0.4718
  122OSM   C12S12949   3.524   2.294   9.300 -0.5793 -0.2473  0.0078
  122OSM   H12S12950   3.421   2.317   9.335 -1.3106 -2.2275 -0.6452
  122OSM   H12T12951   3.505   2.194   9.254 -1.2338  0.0138 -0.3081
  122OSM   C13S12952   3.569   2.387   9.192 -0.4126 -0.7555 -0.1261
  122OSM   H13S12953   3.673   2.358   9.167 -0.4285 -1.4762  0.6176
  122OSM   H13T12954   3.570   2.493   9.226 -1.0509 -0.3546 -1.3038
  122OSM   C14S12955   3.482   2.360   9.069  0.2786  0.2221 -0.7476
  122OSM   H14S12956   3.381   2.402   9.086 -1.1279 -2.0640 -2.7579
  122OSM   H14T12957   3.481   2.249   9.058 -1.0504 -0.2357  2.6715
  122OSM   C15S12958   3.543   2.415   8.945  0.7386 -0.2174 -0.4487
  122OSM   H15S12959   3.635   2.360   8.917  0.5290 -1.1356  0.6216
  122OSM   H15T12960   3.579   2.516   8.974  1.4943 -0.6934  0.3286
  122OSM   C16S12961   3.443   2.421   8.836 -0.9020  0.3082 -0.0777
  122OSM   H16S12962   3.366   2.501   8.848 -1.1806 -0.1065  1.0103
  122OSM   H16T12963   3.381   2.329   8.843  0.4399 -0.6389 -0.4011
  122OSM   C17S12964   3.499   2.445   8.694 -0.9234  0.1974 -0.1693
  122OSM   H17S12965   3.406   2.434   8.634 -0.3587 -2.1944 -0.6803
  122OSM   H17T12966   3.559   2.354   8.676 -0.0085  0.7626 -0.0233
  122OSM   C18S12967   3.577   2.572   8.655 -0.1063 -0.3647 -0.6195
  122OSM   H18S12968   3.666   2.593   8.719 -0.2844  0.9551 -0.7861
  122OSM   H18T12969   3.509   2.660   8.649 -1.9004 -1.7768 -2.3951
  122OSM   H18U12970   3.622   2.568   8.554 -2.1042  1.5750 -1.6710
  122OSM    C1F12971   3.946   1.672  10.440  0.3031 -0.4512  1.1929
  122OSM     OF12972   3.898   1.599  10.529 -0.2381  0.5123  0.0295
  122OSM    C2F12973   4.082   1.634  10.387  0.3393 -0.1191  0.2312
  122OSM    H2F12974   4.141   1.592  10.471 -2.0240 -0.8456  1.6254
  122OSM    H2G12975   4.144   1.716  10.344 -0.4256 -0.2368 -1.1539
  122OSM    C3F12976   4.071   1.533  10.271 -0.2764  0.2678  0.1049
  122OSM    H3F12977   4.043   1.592  10.181 -0.3834 -0.9784 -0.6994
  122OSM    H3G12978   3.995   1.454  10.288  0.0021 -0.0494 -0.1098
  122OSM    C4F12979   4.204   1.458  10.243 -1.2331  0.1989  0.6339
  122OSM    H4F12980   4.208   1.378  10.320 -1.2986  1.6341  2.1860
  122OSM    H4G12981   4.291   1.521  10.272 -0.0433 -0.6225 -0.9713
  122OSM    C5F12982   4.218   1.396  10.102  0.3512  0.0249 -0.3737
  122OSM    H5F12983   4.145   1.313  10.097 -1.3462  1.4216  0.2164
  122OSM    H5G12984   4.316   1.344  10.099 -0.0325 -0.6702 -2.7374
  122OSM    C6F12985   4.214   1.509   9.993  0.6333 -0.2018 -0.1047
  122OSM    H6F12986   4.300   1.579   9.999 -0.8980  1.7493 -0.0516
  122OSM    H6G12987   4.120   1.568   9.991  0.7114 -0.0607  0.2525
  122OSM    C7F12988   4.238   1.443   9.859  0.5261 -0.1977 -0.5526
  122OSM    H7F12989   4.147   1.383   9.838  1.2520 -2.0963  1.3860
  122OSM    H7G12990   4.309   1.358   9.858  0.4751 -0.2473 -0.0812
  122OSM    C8F12991   4.275   1.546   9.736  0.2014  0.4779 -0.5725
  122OSM    H8F12992   4.365   1.605   9.764  0.0830  0.8341 -0.9333
  122OSM    H8G12993   4.188   1.611   9.713 -1.0404 -1.2253 -0.8883
  122OSM    C9F12994   4.310   1.458   9.615 -0.0627 -0.0503 -0.4445
  122OSM    H9F12995   4.245   1.370   9.607 -0.2493  0.0315  0.1474
  122OSM   C10F12996   4.410   1.463   9.525  0.4167  0.5408  0.1420
  122OSM   H10F12997   4.426   1.380   9.455  1.7631  1.6523 -0.9168
  122OSM   C11F12998   4.516   1.569   9.520 -0.2179  0.1106 -0.3437
  122OSM   H11F12999   4.621   1.534   9.521  0.4384  1.7521 -2.7693
  122OSM   H11G13000   4.520   1.648   9.599  0.2522  1.2926 -1.5168
  122OSM   C12F13001   4.513   1.630   9.386 -0.2273 -0.6122 -0.2012
  122OSM   H12F13002   4.415   1.677   9.365  1.1137  2.5145 -0.1435
  122OSM   H12G13003   4.534   1.552   9.309  0.7449 -1.3017  0.7402
  122OSM   C13F13004   4.626   1.743   9.384 -0.4201 -0.0688  0.5456
  122OSM   H13F13005   4.727   1.708   9.414  0.1186 -0.2388 -1.3751
  122OSM   H13G13006   4.597   1.821   9.458 -3.3374 -0.6101  0.1152
  122OSM   C14F13007   4.644   1.801   9.243  0.4601  0.6948  0.5440
  122OSM   H14F13008   4.545   1.840   9.210 -0.0821 -1.8367 -1.0730
  122OSM   H14G13009   4.663   1.725   9.164  1.3889  0.2315  1.1888
  122OSM   C15F13010   4.750   1.901   9.230 -0.5629 -0.7973 -0.2819
  122OSM   H15F13011   4.823   1.877   9.310 -1.0796 -1.5383 -0.0184
  122OSM   H15G13012   4.728   2.009   9.238 -2.3127 -1.1520  0.0741
  122OSM   C16F13013   4.826   1.897   9.094  0.5960  0.2210  0.0384
  122OSM   H16F13014   4.873   1.799   9.074 -1.2904 -1.0350  1.3274
  122OSM   H16G13015   4.910   1.968   9.105 -0.0698  0.7349  2.4487
  122OSM   C17F13016   4.730   1.952   8.973 -0.1764 -0.5330 -0.1627
  122OSM   H17F13017   4.714   2.062   8.983  1.2152 -0.2219 -1.0397
  122OSM   H17G13018   4.628   1.908   8.968 -0.8211  0.8495  0.1163
  122OSM   C18F13019   4.804   1.934   8.837  0.0854  0.3299  0.4525
  122OSM   H18F13020   4.896   1.997   8.833 -1.2959  2.4556  0.4940
  122OSM   H18G13021   4.746   1.961   8.747  0.6614 -0.0250 -0.0343
  122OSM   H18H13022   4.829   1.827   8.823 -0.0752  0.1701  1.3271
  123OSM      N13023   1.794   1.999   6.426 -0.5680 -0.5667  0.3171
  123OSM    C1513024   1.742   1.883   6.507 -0.7055 -0.6176  0.0278
  123OSM   H15A13025   1.656   1.832   6.466 -0.7886  1.2847 -2.4245
  123OSM   H15B13026   1.704   1.929   6.597  0.8091 -1.3409  1.0608
  123OSM   H15C13027   1.816   1.809   6.532 -1.7910 -1.6241  0.3515
  123OSM    C1413028   1.849   1.942   6.297 -0.3273  0.2500 -0.5192
  123OSM   H14A13029   1.786   1.866   6.252 -0.7580  0.5630 -0.4536
  123OSM   H14B13030   1.944   1.903   6.330 -0.0769  0.5615 -0.8724
  123OSM   H14C13031   1.892   2.019   6.235  1.0547  0.3472  0.5150
  123OSM    C1313032   1.674   2.078   6.386  0.2100 -0.3569 -0.8034
  123OSM   H13A13033   1.630   2.139   6.463 -1.2396 -1.0941 -1.0110
  123OSM   H13B13034   1.598   2.008   6.355 -0.3566 -0.1827  0.1439
  123OSM   H13C13035   1.700   2.139   6.301  0.2495 -2.5647 -2.4539
  123OSM    C1213036   1.893   2.095   6.497  0.3123 -0.0441 -0.2412
  123OSM   H12A13037   1.837   2.146   6.575 -0.1398 -1.5556  0.4549
  123OSM   H12B13038   1.916   2.173   6.426  0.3109  1.5357  1.4311
  123OSM    C1113039   2.019   2.023   6.543 -0.6531  0.5553  0.1414
  123OSM   H11A13040   1.992   1.939   6.610  0.4171 -0.6575 -0.8940
  123OSM   H11B13041   2.073   2.094   6.610 -0.6202  1.0541 -0.4048
  123OSM      P13042   2.216   2.059   6.364 -0.0457  0.1303  0.5498
  123OSM    O1313043   2.197   2.054   6.216  0.6809 -0.0847  0.0611
  123OSM    O1413044   2.238   2.192   6.419  0.7906  0.2839 -0.6600
  123OSM    O1113045   2.343   1.970   6.405 -0.1935 -0.0277 -0.7778
  123OSM    O1213046   2.103   1.979   6.434  0.0545  0.2955 -0.2070
  123OSM    C1S13047   2.404   2.011   6.535  0.3323  0.2719  0.4836
  123OSM    H1S13048   2.325   2.024   6.612 -0.5417 -0.7446 -0.2126
  123OSM    H1T13049   2.453   2.107   6.510 -2.4359  1.3641 -1.1868
  123OSM     NF13050   2.557   1.948   6.713 -0.4953 -0.6170  0.3353
  123OSM    HNF13051   2.637   2.007   6.710 -0.4785 -0.6786 -0.5899
  123OSM    C2S13052   2.521   1.919   6.582  0.1068  0.6805  0.7510
  123OSM    H2S13053   2.470   1.820   6.576 -1.3899  1.5169 -1.3569
  123OSM    C3S13054   2.636   1.908   6.467  0.3775 -0.1799 -0.0293
  123OSM    H3S13055   2.682   2.009   6.473 -1.0191  0.4422  0.3773
  123OSM     O313056   2.596   1.886   6.328 -0.6216  0.0497 -0.1706
  123OSM    HO313057   2.501   1.903   6.333 -0.2015  3.2738 -0.8268
  123OSM    C4S13058   2.739   1.795   6.499  0.7994  0.0378 -0.2343
  123OSM    H4S13059   2.701   1.691   6.496 -0.3404  0.2650  2.6893
  123OSM    C5S13060   2.858   1.817   6.555  0.3292  0.6090  0.3378
  123OSM    H5S13061   2.899   1.916   6.579 -0.1061  1.0971 -0.8399
  123OSM    C6S13062   2.942   1.701   6.602  0.9682  0.0643  0.4988
  123OSM    H6S13063   3.048   1.707   6.570  1.3136 -0.4156  1.4822
  123OSM    H6T13064   2.898   1.605   6.567 -0.9053  1.1061 -0.1757
  123OSM    C7S13065   2.949   1.677   6.757 -0.3481 -0.3560  0.8639
  123OSM    H7S13066   3.016   1.751   6.804 -0.8082  1.0476 -0.6046
  123OSM    H7T13067   2.994   1.576   6.772  2.8008  0.5367 -1.5152
  123OSM    C8S13068   2.811   1.678   6.820 -0.0788  0.3227  0.0163
  123OSM    H8S13069   2.759   1.589   6.779 -0.0778  0.0902  0.5141
  123OSM    H8T13070   2.750   1.768   6.796 -0.3202  0.0794 -0.2863
  123OSM    C9S13071   2.816   1.654   6.969 -0.0580  0.0084 -0.4749
  123OSM    H9S13072   2.835   1.745   7.029 -0.7294 -1.1432  1.5726
  123OSM    H9T13073   2.896   1.579   6.986 -0.7504 -0.0360  3.6255
  123OSM   C10S13074   2.689   1.580   7.027 -1.1243 -0.1918  0.1788
  123OSM   H10S13075   2.698   1.470   7.014  2.3848 -0.0046  0.1381
  123OSM   H10T13076   2.599   1.617   6.973 -0.7151  0.6316  0.0451
  123OSM   C11S13077   2.669   1.606   7.173 -0.3964  0.1699  0.2830
  123OSM   H11S13078   2.580   1.561   7.222  0.6362 -1.3239  0.8610
  123OSM   H11T13079   2.669   1.716   7.189  0.6297  0.9963 -4.0846
  123OSM   C12S13080   2.786   1.550   7.255  0.1500  0.0479  0.1849
  123OSM   H12S13081   2.881   1.584   7.209  0.6072 -1.2669  0.1170
  123OSM   H12T13082   2.782   1.439   7.243  1.9783  0.1400 -1.7015
  123OSM   C13S13083   2.780   1.584   7.406  0.0853 -0.0984  0.8141
  123OSM   H13S13084   2.781   1.694   7.422  0.2576  0.0209  0.0381
  123OSM   H13T13085   2.866   1.540   7.460 -1.6360 -0.5183  3.3932
  123OSM   C14S13086   2.659   1.533   7.483 -0.2202  0.5013  0.2896
  123OSM   H14S13087   2.655   1.422   7.477  1.6364  0.4994 -1.8576
  123OSM   H14T13088   2.570   1.584   7.440  0.3158  0.2712 -1.1510
  123OSM   C15S13089   2.662   1.580   7.630 -0.4801 -0.2766  0.4097
  123OSM   H15S13090   2.648   1.690   7.629 -1.2456 -0.3692 -0.0163
  123OSM   H15T13091   2.765   1.554   7.662 -0.4338 -2.4125 -1.2358
  123OSM   C16S13092   2.558   1.511   7.725  0.3358 -0.0547 -0.1402
  123OSM   H16S13093   2.557   1.401   7.714  1.8019  0.0441 -1.6831
  123OSM   H16T13094   2.458   1.543   7.688 -0.3809 -2.1695 -0.1184
  123OSM   C17S13095   2.572   1.546   7.871 -0.4348  0.7058 -0.6847
  123OSM   H17S13096   2.575   1.654   7.897 -2.5692  1.1650 -2.0645
  123OSM   H17T13097   2.668   1.513   7.915 -0.8139  1.2029  0.5798
  123OSM   C18S13098   2.451   1.481   7.941  0.4565  0.0644  0.1136
  123OSM   H18S13099   2.356   1.494   7.886  0.8854 -2.5000 -1.4090
  123OSM   H18T13100   2.441   1.511   8.048  1.7392 -1.4246  0.6899
  123OSM   H18U13101   2.458   1.370   7.942 -0.3039  0.0068 -0.2382
  123OSM    C1F13102   2.481   1.930   6.819 -0.4496  0.3717 -1.3898
  123OSM     OF13103   2.380   1.859   6.813  0.0972 -0.0280 -0.5556
  123OSM    C2F13104   2.527   1.982   6.956  0.3658 -0.0667 -0.3847
  123OSM    H2F13105   2.498   2.089   6.966  1.6418  0.2426  0.3360
  123OSM    H2G13106   2.637   1.966   6.967  0.3086 -1.7355 -1.7824
  123OSM    C3F13107   2.465   1.899   7.073 -0.1474  0.1095 -0.5982
  123OSM    H3F13108   2.511   1.798   7.067  0.2006  0.2254  0.0047
  123OSM    H3G13109   2.355   1.896   7.065 -0.2558  1.9096 -0.1226
  123OSM    C4F13110   2.506   1.945   7.212 -0.0625  0.0265  0.6365
  123OSM    H4F13111   2.483   2.052   7.230 -1.7556 -0.2937  0.4698
  123OSM    H4G13112   2.617   1.939   7.223  0.0106 -0.3158 -0.2223
  123OSM    C5F13113   2.432   1.868   7.328 -0.1723 -0.6374 -0.2391
  123OSM    H5F13114   2.457   1.759   7.325  1.8950 -0.2872  1.9095
  123OSM    H5G13115   2.324   1.882   7.307  0.2867  3.2119 -0.6655
  123OSM    C6F13116   2.471   1.919   7.462 -0.1238  0.0972 -0.3888
  123OSM    H6F13117   2.457   2.029   7.468  0.8057  0.2316 -0.4313
  123OSM    H6G13118   2.579   1.897   7.478 -0.4047 -0.0826  1.5624
  123OSM    C7F13119   2.392   1.857   7.574 -0.2120  0.9624 -0.1617
  123OSM    H7F13120   2.386   1.746   7.570 -0.1776  0.9730 -0.5320
  123OSM    H7G13121   2.284   1.882   7.563 -1.1716 -2.1895  1.0061
  123OSM    C8F13122   2.440   1.901   7.720  0.0492 -0.2185 -0.0096
  123OSM    H8F13123   2.450   2.007   7.749  1.5029  0.4383 -2.6094
  123OSM    H8G13124   2.537   1.846   7.731  0.0160 -0.1603  0.5861
  123OSM    C9F13125   2.346   1.845   7.823 -0.0046  0.7529  0.2313
  123OSM    H9F13126   2.351   1.737   7.839  3.6219  0.9416  1.0917
  123OSM   C10F13127   2.258   1.917   7.890  0.2033  0.3848 -0.8201
  123OSM   H10F13128   2.197   1.867   7.966  1.7911 -2.3348 -1.1921
  123OSM   C11F13129   2.221   2.062   7.882 -0.0224  0.3537  0.2063
  123OSM   H11F13130   2.114   2.080   7.858  0.0337  0.6591  0.1715
  123OSM   H11G13131   2.281   2.117   7.805 -1.4770  0.4800 -0.8733
  123OSM   C12F13132   2.231   2.144   8.018  0.3573 -0.2305  0.1319
  123OSM   H12F13133   2.169   2.092   8.094  0.9850 -3.0179 -1.1184
  123OSM   H12G13134   2.176   2.240   8.011  1.5896  0.3763 -1.9158
  123OSM   C13F13135   2.376   2.153   8.071  0.4281 -0.5044 -0.1439
  123OSM   H13F13136   2.437   2.192   7.987  1.9363  0.2011  1.2203
  123OSM   H13G13137   2.413   2.052   8.098  2.5177 -0.4761 -2.5168
  123OSM   C14F13138   2.415   2.255   8.187 -0.0289 -0.0013  0.5767
  123OSM   H14F13139   2.344   2.239   8.271  0.3233  1.1413  1.1067
  123OSM   H14G13140   2.400   2.354   8.139 -1.4959 -0.0246  0.9355
  123OSM   C15F13141   2.560   2.232   8.241 -0.2745  0.8350 -0.2564
  123OSM   H15F13142   2.640   2.266   8.171  0.5081  0.1636  0.2956
  123OSM   H15G13143   2.574   2.122   8.249 -0.7793  0.7537 -0.4782
  123OSM   C16F13144   2.587   2.294   8.380 -0.1174  0.1885  0.0029
  123OSM   H16F13145   2.506   2.251   8.443  0.4698  1.0109  1.3689
  123OSM   H16G13146   2.562   2.402   8.377  1.5185  0.6856  1.8877
  123OSM   C17F13147   2.723   2.263   8.449 -0.8288 -0.0032  0.7817
  123OSM   H17F13148   2.746   2.322   8.541  4.2877 -0.7417  0.2378
  123OSM   H17G13149   2.800   2.271   8.369 -2.5475 -0.3177 -0.9861
  123OSM   C18F13150   2.729   2.113   8.491  0.1001  0.1798  0.7009
  123OSM   H18F13151   2.650   2.104   8.569 -0.8349  1.6675 -0.0250
  123OSM   H18G13152   2.825   2.081   8.538  1.0970  0.0128 -1.3422
  123OSM   H18H13153   2.722   2.037   8.411  0.9384  1.5870 -0.7738
  124OSM      N13154   4.780   5.875   6.023 -0.3246  0.2681  0.1432
  124OSM    C1513155   4.797   6.018   5.977 -0.1395 -0.2565 -0.3032
  124OSM   H15A13156   4.839   6.023   5.877  0.1494  0.4095 -0.1552
  124OSM   H15B13157   4.869   6.063   6.044 -0.6020  0.4981 -0.2972
  124OSM   H15C13158   4.707   6.077   5.976  0.7976  1.2720 -1.9281
  124OSM    C1413159   4.716   5.793   5.913  0.3553  0.3184 -0.7018
  124OSM   H14A13160   4.681   5.696   5.947  3.2592 -0.3684  0.5633
  124OSM   H14B13161   4.780   5.765   5.830 -1.2882 -1.7202 -1.3833
  124OSM   H14C13162   4.625   5.845   5.886 -1.0514  0.3343  3.3388
  124OSM    C1313163   4.922   5.817   6.042  0.2372 -0.3179  0.9195
  124OSM   H13A13164   4.972   5.893   6.101 -0.0775  0.8488 -0.2524
  124OSM   H13B13165   4.974   5.806   5.948 -0.3898  1.2162  0.3420
  124OSM   H13C13166   4.921   5.719   6.087 -0.8356 -0.5592  0.3999
  124OSM    C1213167   4.698   5.863   6.149  0.0039  0.4902  0.8234
  124OSM   H12A13168   4.597   5.899   6.137 -0.3174 -0.4851  0.5242
  124OSM   H12B13169   4.742   5.937   6.216  0.0505  1.9156 -0.7262
  124OSM    C1113170   4.698   5.725   6.226  0.0527  0.3304  0.0879
  124OSM   H11A13171   4.675   5.747   6.333  2.3773 -3.1351  1.4590
  124OSM   H11B13172   4.800   5.681   6.222  0.1933  0.3516  2.1784
  124OSM      P13173   4.442   5.673   6.198  0.4267 -0.1445 -0.4385
  124OSM    O1313174   4.402   5.809   6.158  0.9442  0.2718  0.1563
  124OSM    O1413175   4.360   5.560   6.141 -0.4715 -0.5824 -0.9181
  124OSM    O1113176   4.439   5.675   6.362  0.3863  0.1276  0.2597
  124OSM    O1213177   4.595   5.644   6.166  0.0726  0.4503  0.0359
  124OSM    C1S13178   4.451   5.538   6.410  0.3895  0.4030  0.4427
  124OSM    H1S13179   4.557   5.502   6.406 -0.5956 -3.1918  2.0574
  124OSM    H1T13180   4.392   5.457   6.362  3.0077 -2.0026  1.0143
  124OSM     NF13181   4.467   5.382   6.607 -0.4823 -0.0865 -0.3917
  124OSM    HNF13182   4.409   5.301   6.609  0.3883 -0.7203  1.6321
  124OSM    C2S13183   4.417   5.516   6.569 -0.8437 -0.0017  0.9085
  124OSM    H2S13184   4.486   5.590   6.614  0.0130  0.0850 -0.4796
  124OSM    C3S13185   4.270   5.544   6.605  0.1533  0.6339  0.5166
  124OSM    H3S13186   4.207   5.469   6.551 -1.4260  1.7793  0.6869
  124OSM     O313187   4.219   5.677   6.575 -0.1176 -0.3042  0.7749
  124OSM    HO313188   4.268   5.702   6.496 -0.9093 -1.0448  0.0268
  124OSM    C4S13189   4.265   5.521   6.755 -0.2542  0.1857  0.1866
  124OSM    H4S13190   4.213   5.428   6.780 -3.3269  0.9597 -2.5372
  124OSM    C5S13191   4.314   5.606   6.844 -0.2031  1.1760  1.1857
  124OSM    H5S13192   4.365   5.695   6.804  0.3907  1.0638  1.6817
  124OSM    C6S13193   4.289   5.607   6.991 -0.0973  0.0392  0.8186
  124OSM    H6S13194   4.224   5.692   7.022  0.3836  1.1582 -1.1117
  124OSM    H6T13195   4.388   5.628   7.036  0.8494 -0.0508 -1.1555
  124OSM    C7S13196   4.251   5.473   7.066  0.7711 -0.3183  0.5189
  124OSM    H7S13197   4.324   5.397   7.032  3.0171  1.2770  1.5475
  124OSM    H7T13198   4.144   5.446   7.050  0.5180  0.6328  0.4886
  124OSM    C8S13199   4.268   5.477   7.212 -0.5859 -0.4140 -0.0979
  124OSM    H8S13200   4.214   5.552   7.272  0.3905 -0.6335  1.1036
  124OSM    H8T13201   4.377   5.495   7.228 -1.0493  4.5529 -0.8995
  124OSM    C9S13202   4.236   5.341   7.281  0.0644  0.1380 -0.3044
  124OSM    H9S13203   4.296   5.264   7.228 -0.0639 -1.1692  1.3651
  124OSM    H9T13204   4.126   5.323   7.281  0.4193 -3.5330  3.3759
  124OSM   C10S13205   4.269   5.342   7.427  0.7465  0.2108 -0.2313
  124OSM   H10S13206   4.230   5.431   7.479 -1.7328 -2.0374  2.0482
  124OSM   H10T13207   4.380   5.351   7.432  0.6958  0.2727  0.9330
  124OSM   C11S13208   4.229   5.220   7.507 -0.2878 -0.0601 -0.1323
  124OSM   H11S13209   4.255   5.123   7.459 -0.4888 -0.0938 -0.1755
  124OSM   H11T13210   4.118   5.233   7.504 -0.2802  0.3031  0.8097
  124OSM   C12S13211   4.283   5.215   7.653 -0.0789 -0.6958 -0.7003
  124OSM   H12S13212   4.232   5.292   7.715  1.6375 -1.6202  2.0608
  124OSM   H12T13213   4.391   5.240   7.648 -0.1219  0.1048  1.2501
  124OSM   C13S13214   4.267   5.078   7.715 -0.4283  0.2708 -0.5012
  124OSM   H13S13215   4.321   5.004   7.652 -1.7873 -1.2960  0.0926
  124OSM   H13T13216   4.161   5.048   7.705 -0.2412 -0.9519  0.8341
  124OSM   C14S13217   4.317   5.067   7.861  0.5003  0.2317 -0.9675
  124OSM   H14S13218   4.303   5.166   7.912 -2.4856 -1.6513  2.3665
  124OSM   H14T13219   4.422   5.034   7.868  0.8131  1.3740  0.2990
  124OSM   C15S13220   4.219   4.976   7.949  0.2915 -1.2463  1.1040
  124OSM   H15S13221   4.220   4.880   7.892 -3.4165 -1.1704  0.7078
  124OSM   H15T13222   4.120   5.025   7.948  1.5320  1.5138 -1.1599
  124OSM   C16S13223   4.272   4.953   8.092  0.7023  0.5179  1.0471
  124OSM   H16S13224   4.291   5.052   8.138 -0.5926  1.4178 -0.2218
  124OSM   H16T13225   4.368   4.898   8.087  0.4869 -0.0372  2.6667
  124OSM   C17S13226   4.170   4.875   8.183 -0.4269 -0.2790  0.0966
  124OSM   H17S13227   4.154   4.774   8.142 -1.9406  0.4733 -1.2654
  124OSM   H17T13228   4.071   4.924   8.174  0.5495  1.4934 -2.1955
  124OSM   C18S13229   4.228   4.861   8.319  0.1207  0.1235 -0.5928
  124OSM   H18S13230   4.153   4.805   8.379 -0.9955 -0.0011 -2.0411
  124OSM   H18T13231   4.243   4.961   8.365  1.8942 -0.9987  1.4434
  124OSM   H18U13232   4.327   4.813   8.330  0.5527  1.0719 -0.1774
  124OSM    C1F13233   4.594   5.355   6.614  0.5194 -0.3930  0.0098
  124OSM     OF13234   4.674   5.449   6.603 -0.4892 -0.0255  0.0646
  124OSM    C2F13235   4.629   5.217   6.641  0.0894  0.9652 -0.0627
  124OSM    H2F13236   4.672   5.177   6.547 -0.0501  1.7460 -0.4663
  124OSM    H2G13237   4.542   5.158   6.677  0.7685 -0.2872 -0.4262
  124OSM    C3F13238   4.739   5.204   6.748 -0.0327  0.2439 -0.5272
  124OSM    H3F13239   4.819   5.277   6.723  0.6701 -0.8710 -1.6907
  124OSM    H3G13240   4.767   5.096   6.749 -2.7629 -0.5311 -0.1851
  124OSM    C4F13241   4.693   5.245   6.890  0.0554  0.3685 -0.3158
  124OSM    H4F13242   4.665   5.352   6.901  2.6461  1.5206 -3.4160
  124OSM    H4G13243   4.786   5.226   6.947  0.1953 -1.9336 -1.1846
  124OSM    C5F13244   4.585   5.149   6.942  0.1476  0.3924 -0.7339
  124OSM    H5F13245   4.614   5.044   6.922 -1.8780 -0.5914  1.1023
  124OSM    H5G13246   4.490   5.174   6.890 -0.4674  0.0792  0.2250
  124OSM    C6F13247   4.555   5.152   7.087  0.2034  0.4694  0.0426
  124OSM    H6F13248   4.464   5.090   7.101  0.3413  0.4790  1.0555
  124OSM    H6G13249   4.519   5.256   7.104  0.6198  0.6036  0.1086
  124OSM    C7F13250   4.657   5.115   7.186 -0.2280 -0.2959  0.0738
  124OSM    H7F13251   4.743   5.182   7.164 -1.4304  0.7746 -1.6389
  124OSM    H7G13252   4.692   5.009   7.179  0.1804 -0.1680  0.1842
  124OSM    C8F13253   4.609   5.120   7.334 -0.1161 -0.2934 -0.1897
  124OSM    H8F13254   4.529   5.043   7.338  0.6891 -1.1398 -0.0398
  124OSM    H8G13255   4.575   5.221   7.367  0.8792  0.2855 -0.8773
  124OSM    C9F13256   4.721   5.074   7.425 -0.3611 -0.8845  0.1580
  124OSM    H9F13257   4.809   5.141   7.420 -1.5981  0.9213  1.1734
  124OSM   C10F13258   4.716   4.971   7.513  0.8320 -0.6389 -0.2172
  124OSM   H10F13259   4.799   4.952   7.583 -1.1330 -1.7902  1.9779
  124OSM   C11F13260   4.604   4.873   7.526 -0.3452 -0.0543 -0.6865
  124OSM   H11F13261   4.620   4.792   7.451 -1.2259 -2.6991  1.7880
  124OSM   H11G13262   4.504   4.916   7.502  0.3649  0.8163 -2.2558
  124OSM   C12F13263   4.592   4.790   7.658 -0.3508  0.0778 -0.4600
  124OSM   H12F13264   4.489   4.748   7.656 -0.0831 -1.0260  2.8516
  124OSM   H12G13265   4.602   4.853   7.749  0.0881  0.7730 -0.9818
  124OSM   C13F13266   4.694   4.668   7.678  0.0250 -0.6262  1.0252
  124OSM   H13F13267   4.803   4.687   7.681  0.1287 -0.6664 -1.0155
  124OSM   H13G13268   4.674   4.604   7.590 -0.7053 -2.3155  2.3782
  124OSM   C14F13269   4.659   4.588   7.801  0.3242 -0.1543 -0.0712
  124OSM   H14F13270   4.558   4.548   7.778 -0.1332  1.2356 -0.5572
  124OSM   H14G13271   4.660   4.645   7.896  0.7337 -0.2386 -0.0229
  124OSM   C15F13272   4.757   4.470   7.812  0.0995 -0.1776  0.0301
  124OSM   H15F13273   4.854   4.518   7.833  0.6904 -1.4332  0.2801
  124OSM   H15G13274   4.765   4.406   7.722  1.4087  0.5327 -0.3761
  124OSM   C16F13275   4.728   4.374   7.933  0.6091  0.8354 -1.1139
  124OSM   H16F13276   4.640   4.313   7.903  0.1820  0.8810 -0.0268
  124OSM   H16G13277   4.714   4.434   8.025 -2.2850 -0.7256 -0.4216
  124OSM   C17F13278   4.841   4.268   7.951 -0.6626 -0.2013 -0.3064
  124OSM   H17F13279   4.936   4.326   7.941  0.0898 -1.0967  1.1831
  124OSM   H17G13280   4.844   4.198   7.865 -0.4285 -1.4946  0.7159
  124OSM   C18F13281   4.852   4.183   8.079 -0.2920 -0.4078  1.1445
  124OSM   H18F13282   4.843   4.249   8.168 -2.5876 -0.4853  1.0473
  124OSM   H18G13283   4.944   4.121   8.083 -1.0154 -1.8603 -1.9766
  124OSM   H18H13284   4.762   4.117   8.081 -0.9959  0.4718 -0.2844
  125OSM      N13285   4.754   6.605   6.296 -0.2103  0.1028  0.0486
  125OSM    C1513286   4.865   6.573   6.390 -0.7315  0.8482  0.0361
  125OSM   H15A13287   4.836   6.490   6.453  1.1109  0.0330 -0.1153
  125OSM   H15B13288   4.889   6.659   6.451  1.3769  0.1016  0.3567
  125OSM   H15C13289   4.959   6.542   6.347 -0.5854  1.4697 -0.1043
  125OSM    C1413290   4.657   6.685   6.376  0.6568  0.1273  0.2217
  125OSM   H14A13291   4.627   6.619   6.456  0.2127  2.5937  2.1989
  125OSM   H14B13292   4.572   6.725   6.323  0.2355  2.2750  2.3559
  125OSM   H14C13293   4.699   6.772   6.425 -1.7881  1.7855 -0.4414
  125OSM    C1313294   4.814   6.694   6.194 -0.1646  0.3765  0.7322
  125OSM   H13A13295   4.891   6.646   6.136 -0.6276  0.3021  0.1783
  125OSM   H13B13296   4.859   6.776   6.249 -0.9984  1.5157 -0.2265
  125OSM   H13C13297   4.750   6.735   6.117  0.4580  0.0925  0.0577
  125OSM    C1213298   4.682   6.486   6.243 -0.4246  0.4712  0.1506
  125OSM   H12A13299   4.749   6.457   6.163 -0.3176 -0.5981  0.6146
  125OSM   H12B13300   4.595   6.534   6.200  0.8083  1.5843 -1.2569
  125OSM    C1113301   4.650   6.365   6.336  0.2440 -0.1879 -0.0238
  125OSM   H11A13302   4.600   6.280   6.284  2.1570 -1.4023 -0.0143
  125OSM   H11B13303   4.586   6.398   6.420  0.4745  1.5135 -0.4730
  125OSM      P13304   4.881   6.229   6.315  0.1416  0.0914  0.1460
  125OSM    O1313305   4.867   6.250   6.167 -0.5731 -0.0791  0.0109
  125OSM    O1413306   5.008   6.259   6.375 -0.0727 -0.2251 -0.2390
  125OSM    O1113307   4.844   6.079   6.359 -0.7000  0.8282 -0.2649
  125OSM    O1213308   4.769   6.309   6.390 -0.1913  0.0094 -0.0303
  125OSM    C1S13309   4.866   6.029   6.494 -0.3568  0.6478 -0.2567
  125OSM    H1S13310   4.971   6.056   6.520  0.8919 -1.6018 -2.4658
  125OSM    H1T13311   4.879   5.919   6.484  0.9602  0.7540  0.0634
  125OSM     NF13312   4.807   6.001   6.728  0.3140  0.5244  0.2909
  125OSM    HNF13313   4.751   5.934   6.777 -0.1079  2.9012  3.3214
  125OSM    C2S13314   4.765   6.054   6.602 -0.2772  0.4686  0.2815
  125OSM    H2S13315   4.758   6.165   6.612  0.7978  0.5560  0.1732
  125OSM    C3S13316   4.629   6.002   6.560 -0.4073 -0.4181 -0.1091
  125OSM    H3S13317   4.623   5.893   6.540  0.4041 -0.2699 -1.2594
  125OSM     O313318   4.583   6.060   6.442 -0.0446 -0.4271  0.3581
  125OSM    HO313319   4.650   6.117   6.403 -0.7945 -0.3397 -0.8525
  125OSM    C4S13320   4.530   6.018   6.677 -0.0764 -0.0143 -0.2238
  125OSM    H4S13321   4.544   5.946   6.759  2.0180  0.2328 -0.3253
  125OSM    C5S13322   4.423   6.101   6.680  0.1358  0.0476  0.4617
  125OSM    H5S13323   4.410   6.163   6.590 -2.2263  0.3051  0.9148
  125OSM    C6S13324   4.323   6.115   6.789  0.1434  0.0678 -0.3446
  125OSM    H6S13325   4.247   6.194   6.775 -0.2933 -0.5894 -1.8709
  125OSM    H6T13326   4.382   6.134   6.882  0.0572 -0.7486 -0.1123
  125OSM    C7S13327   4.243   5.988   6.821  0.2270 -0.1311  0.3986
  125OSM    H7S13328   4.303   5.902   6.857 -2.2878 -2.1101  0.1996
  125OSM    H7T13329   4.201   5.949   6.726  1.5237 -1.3790  0.2988
  125OSM    C8S13330   4.133   6.015   6.929 -0.8035 -0.0089 -0.3872
  125OSM    H8S13331   4.053   5.938   6.922 -0.2870 -0.4946 -1.0100
  125OSM    H8T13332   4.074   6.102   6.891 -4.7498 -0.9874  2.7487
  125OSM    C9S13333   4.199   6.021   7.068  0.2184 -0.0799  0.1999
  125OSM    H9S13334   4.217   6.129   7.083  0.1925 -0.0511  0.0252
  125OSM    H9T13335   4.298   5.972   7.059  0.1966  0.2338 -2.6397
  125OSM   C10S13336   4.101   5.969   7.170  0.2501  0.2005 -0.1365
  125OSM   H10S13337   4.104   5.858   7.171 -2.1199  0.0740 -1.2531
  125OSM   H10T13338   3.999   6.008   7.150  0.7185  0.8560 -1.3769
  125OSM   C11S13339   4.133   6.023   7.315  0.4295  0.3636 -0.4387
  125OSM   H11S13340   4.093   6.126   7.323 -0.0842  0.1826 -0.6570
  125OSM   H11T13341   4.244   6.023   7.324  0.3759 -1.7684  0.7568
  125OSM   C12S13342   4.060   5.949   7.427  0.4383 -0.1343 -0.3995
  125OSM   H12S13343   4.079   5.842   7.403 -0.1883 -0.1812 -0.6985
  125OSM   H12T13344   3.953   5.977   7.419 -0.1694 -1.9973  0.5800
  125OSM   C13S13345   4.118   5.974   7.559  0.1537 -0.1446 -0.8138
  125OSM   H13S13346   4.105   6.079   7.594  2.5676 -0.7564  2.3353
  125OSM   H13T13347   4.227   5.956   7.572  0.1091  0.6924  0.9527
  125OSM   C14S13348   4.051   5.872   7.660 -0.7488 -0.1822  0.8807
  125OSM   H14S13349   4.110   5.778   7.649 -3.6069 -1.9354 -0.8987
  125OSM   H14T13350   3.948   5.842   7.632 -0.2610 -0.4395 -0.7409
  125OSM   C15S13351   4.050   5.910   7.805 -0.7732  0.7046 -0.1796
  125OSM   H15S13352   3.991   5.831   7.857  0.2840  0.2171  0.3162
  125OSM   H15T13353   4.003   6.009   7.820  2.4227  2.3545 -0.1310
  125OSM   C16S13354   4.195   5.914   7.869 -0.3186  0.1265 -0.5964
  125OSM   H16S13355   4.260   5.983   7.811 -1.3836  0.7277 -1.1193
  125OSM   H16T13356   4.234   5.811   7.857  0.1183  0.3745 -1.3689
  125OSM   C17S13357   4.200   5.973   8.010 -0.1450  0.1449  0.1128
  125OSM   H17S13358   4.145   6.069   8.020  0.9860  0.6627  1.6167
  125OSM   H17T13359   4.307   5.994   8.032  0.2966  0.6980 -2.2995
  125OSM   C18S13360   4.152   5.877   8.120 -1.0085 -0.2414 -0.5261
  125OSM   H18S13361   4.114   5.933   8.207 -0.0661  1.2792 -1.0451
  125OSM   H18T13362   4.240   5.815   8.148  0.2554  0.1072 -3.3896
  125OSM   H18U13363   4.067   5.819   8.079 -0.1332 -2.6227  0.8661
  125OSM    C1F13364   4.909   6.050   6.797  0.2953 -0.8948 -0.2722
  125OSM     OF13365   4.980   6.133   6.752 -0.3225 -0.1527  0.0235
  125OSM    C2F13366   4.932   6.011   6.943  0.6118 -0.4300 -0.1757
  125OSM    H2F13367   4.953   5.902   6.945 -1.1751 -0.8759 -1.7345
  125OSM    H2G13368   4.838   6.028   7.001 -1.6710  3.1492 -4.2810
  125OSM    C3F13369   5.046   6.093   7.017 -0.1724  0.6378  0.8637
  125OSM    H3F13370   5.032   6.202   6.999 -1.0143  0.3115 -0.6053
  125OSM    H3G13371   5.139   6.069   6.962 -0.0942 -3.3807  2.4137
  125OSM    C4F13372   5.062   6.048   7.167  0.3170  0.5214  0.6058
  125OSM    H4F13373   5.080   5.938   7.173 -1.0499  0.2535  0.0710
  125OSM    H4G13374   4.968   6.068   7.222 -0.6710  0.4045 -0.9727
  125OSM    C5F13375   5.176   6.109   7.245 -0.0464 -0.5111  0.1030
  125OSM    H5F13376   5.193   6.212   7.208 -1.5810 -0.1265  0.4119
  125OSM    H5G13377   5.262   6.044   7.218  1.2015  1.1359 -0.0564
  125OSM    C6F13378   5.152   6.113   7.397 -0.1029 -0.0624 -0.8990
  125OSM    H6F13379   5.064   6.175   7.427  0.7814  0.3754  0.9591
  125OSM    H6G13380   5.238   6.168   7.442 -1.3956  1.2704  0.0499
  125OSM    C7F13381   5.154   5.977   7.466  0.0455 -0.4173 -0.0967
  125OSM    H7F13382   5.244   5.924   7.429 -0.3152 -0.6624 -0.6364
  125OSM    H7G13383   5.072   5.909   7.437 -0.3718 -0.3165  0.8109
  125OSM    C8F13384   5.163   5.996   7.616 -0.8791 -0.0441  0.1066
  125OSM    H8F13385   5.252   6.051   7.654 -0.7375 -1.4488  1.9445
  125OSM    H8G13386   5.178   5.890   7.644 -0.1733 -0.2288 -0.9039
  125OSM    C9F13387   5.039   6.038   7.690  0.3085 -0.1200 -0.4768
  125OSM    H9F13388   4.948   6.028   7.628  0.0197 -0.2299 -0.0419
  125OSM   C10F13389   5.021   6.027   7.824 -0.7973 -0.6100  0.2583
  125OSM   H10F13390   4.928   6.060   7.873 -0.4251  0.3309  0.3540
  125OSM   C11F13391   5.133   6.015   7.920 -0.4804 -0.0477  0.4794
  125OSM   H11F13392   5.134   6.118   7.961 -0.7759 -0.0252  0.4294
  125OSM   H11G13393   5.234   5.988   7.881 -1.3263 -2.3950 -0.2479
  125OSM   C12F13394   5.104   5.925   8.041  0.2438  0.4733  0.1755
  125OSM   H12F13395   5.051   5.834   8.004  2.6425 -1.0897  0.3619
  125OSM   H12G13396   5.020   5.974   8.094 -1.4425  0.0179 -1.9210
  125OSM   C13F13397   5.216   5.900   8.145 -0.1453  0.1869  0.6672
  125OSM   H13F13398   5.292   5.840   8.090 -1.8715  0.4574 -2.1917
  125OSM   H13G13399   5.185   5.822   8.218  1.1170  0.6171  1.6991
  125OSM   C14F13400   5.273   6.026   8.207 -0.3697  0.0568 -1.0247
  125OSM   H14F13401   5.194   6.065   8.274  0.6439  1.1616 -0.4365
  125OSM   H14G13402   5.294   6.098   8.125 -0.4918  0.0598 -1.0530
  125OSM   C15F13403   5.407   6.005   8.291 -0.3063  0.2086  0.2525
  125OSM   H15F13404   5.428   6.107   8.331  2.0473  0.4772 -1.4188
  125OSM   H15G13405   5.483   5.981   8.214 -1.1950 -1.7360 -0.0787
  125OSM   C16F13406   5.388   5.899   8.399 -0.2791 -0.9323  0.1147
  125OSM   H16F13407   5.371   5.796   8.361 -0.5498 -0.9410  0.2555
  125OSM   H16G13408   5.302   5.924   8.466 -2.8585 -2.0551 -2.5530
  125OSM   C17F13409   5.516   5.905   8.486 -1.1109 -0.3065  0.1564
  125OSM   H17F13410   5.532   6.014   8.497 -1.9983  0.3658 -3.8604
  125OSM   H17G13411   5.597   5.859   8.426 -0.3242  3.4146 -1.9316
  125OSM   C18F13412   5.504   5.831   8.619 -0.3023 -0.1179  0.4089
  125OSM   H18F13413   5.452   5.735   8.599 -1.5817  0.9070 -1.5082
  125OSM   H18G13414   5.444   5.899   8.683  0.4292 -0.0094  1.0023
  125OSM   H18H13415   5.600   5.813   8.672 -0.2847  2.0297  1.2104
  126OSM      N13416   2.471   1.419   6.195 -0.0021  0.1909  0.5402
  126OSM    C1513417   2.339   1.477   6.162  0.4272 -0.2297 -0.3349
  126OSM   H15A13418   2.297   1.445   6.068  1.1356  0.4295 -0.8956
  126OSM   H15B13419   2.341   1.585   6.155 -0.8919  0.0067  1.9089
  126OSM   H15C13420   2.278   1.443   6.244  0.2060  0.6250 -0.1322
  126OSM    C1413421   2.567   1.457   6.089 -0.0849 -0.3525  0.1049
  126OSM   H14A13422   2.666   1.417   6.105 -0.0536  0.1831  1.3139
  126OSM   H14B13423   2.574   1.564   6.078  1.2843 -0.4456 -0.1163
  126OSM   H14C13424   2.545   1.431   5.986 -3.3382  3.4201 -0.3952
  126OSM    C1313425   2.521   1.471   6.320 -0.0368 -0.0657  0.7508
  126OSM   H13A13426   2.438   1.471   6.389 -1.4207 -1.9074 -0.7822
  126OSM   H13B13427   2.552   1.574   6.318  2.2807 -0.7230  0.1225
  126OSM   H13C13428   2.600   1.413   6.366  3.1682  2.7287 -0.7766
  126OSM    C1213429   2.467   1.270   6.195 -0.2593 -0.1359 -0.3291
  126OSM   H12A13430   2.569   1.247   6.221 -0.5652 -2.5655 -1.0891
  126OSM   H12B13431   2.463   1.231   6.095  2.0250  1.5372 -1.1802
  126OSM    C1113432   2.372   1.191   6.281 -0.4799 -0.3640  0.2325
  126OSM   H11A13433   2.399   1.225   6.383 -3.1906  0.0184  0.9049
  126OSM   H11B13434   2.393   1.082   6.279 -0.5639 -0.4387  1.9225
  126OSM      P13435   2.148   1.133   6.153  0.2592  0.1727  0.7517
  126OSM    O1313436   2.016   1.197   6.139  0.0868  0.0869  0.3488
  126OSM    O1413437   2.214   1.104   6.023 -0.2534  0.1521  0.3326
  126OSM    O1113438   2.137   0.991   6.220 -0.1403  0.0062 -0.5646
  126OSM    O1213439   2.234   1.219   6.256  0.1030 -0.2624  0.0031
  126OSM    C1S13440   2.139   0.969   6.362 -0.3977 -0.2367 -0.0925
  126OSM    H1S13441   2.054   1.022   6.410 -1.9772 -3.2610  0.6782
  126OSM    H1T13442   2.239   0.987   6.405 -1.5107  0.1843  2.4918
  126OSM     NF13443   2.128   0.808   6.540  0.4523 -0.1747 -0.3201
  126OSM    HNF13444   2.213   0.766   6.572 -0.4577 -1.7258  0.1499
  126OSM    C2S13445   2.112   0.823   6.398 -0.0937 -0.3692  0.3416
  126OSM    H2S13446   2.004   0.807   6.373  0.2882 -1.0832 -0.9775
  126OSM    C3S13447   2.198   0.729   6.316  0.4536 -0.3787  0.2766
  126OSM    H3S13448   2.303   0.746   6.349  0.6871  0.7379 -0.9577
  126OSM     O313449   2.216   0.765   6.175 -0.2046  0.3109  0.0184
  126OSM    HO313450   2.193   0.858   6.175  0.3944  0.4769 -1.6854
  126OSM    C4S13451   2.152   0.583   6.329 -0.2615  0.0384 -0.7935
  126OSM    H4S13452   2.191   0.541   6.423  0.4145  0.5955 -0.8200
  126OSM    C5S13453   2.072   0.512   6.254 -0.1465  0.0810  0.1345
  126OSM    H5S13454   2.017   0.562   6.173 -2.5257 -0.5623  1.2707
  126OSM    C6S13455   2.025   0.371   6.270  0.4404  0.0935  0.5950
  126OSM    H6S13456   2.062   0.307   6.188  0.3454 -1.8386  1.9911
  126OSM    H6T13457   1.914   0.367   6.274  0.4159  1.0303  1.5491
  126OSM    C7S13458   2.070   0.289   6.394 -0.2168  0.4740 -0.4173
  126OSM    H7S13459   2.177   0.304   6.415 -0.4528  1.2861  0.2399
  126OSM    H7T13460   2.055   0.183   6.364 -0.7396 -0.2034  2.0056
  126OSM    C8S13461   1.988   0.342   6.512 -0.7098 -0.1579 -0.7762
  126OSM    H8S13462   1.884   0.304   6.504 -1.0692  1.0452 -2.8004
  126OSM    H8T13463   1.983   0.453   6.519  1.8087 -0.0856  1.5629
  126OSM    C9S13464   2.057   0.298   6.638 -0.7028 -0.8848 -0.4737
  126OSM    H9S13465   2.155   0.349   6.634 -1.6636  0.9792 -1.9361
  126OSM    H9T13466   2.082   0.190   6.638  1.2968 -0.4762 -2.2172
  126OSM   C10S13467   1.981   0.327   6.771 -0.5161  0.0034  0.5690
  126OSM   H10S13468   1.879   0.287   6.753  0.3917 -2.5277  0.6796
  126OSM   H10T13469   1.975   0.437   6.789 -1.0145  0.1553 -0.4691
  126OSM   C11S13470   2.052   0.260   6.884 -0.0794 -0.0491  0.2126
  126OSM   H11S13471   2.151   0.310   6.898 -0.0054 -0.4931  1.3731
  126OSM   H11T13472   2.064   0.155   6.851  0.5498  0.3831 -0.9804
  126OSM   C12S13473   1.969   0.275   7.013  0.5209  0.5918  0.1841
  126OSM   H12S13474   1.867   0.235   6.999  0.3210 -0.0332  2.8824
  126OSM   H12T13475   1.950   0.381   7.041 -0.4949  0.5600 -0.3598
  126OSM   C13S13476   2.042   0.192   7.126 -0.1448 -0.5844  0.7492
  126OSM   H13S13477   2.141   0.241   7.139  0.3622 -0.2788 -3.0951
  126OSM   H13T13478   2.065   0.097   7.073  1.5840 -1.4192  2.8558
  126OSM   C14S13479   1.957   0.150   7.246 -0.0750  0.4370 -0.2979
  126OSM   H14S13480   1.912   0.229   7.310  1.1091  1.3227 -0.5251
  126OSM   H14T13481   2.029   0.085   7.301 -1.4276 -1.3437 -0.5569
  126OSM   C15S13482   1.846   0.052   7.207 -0.3352  0.1340  0.1241
  126OSM   H15S13483   1.864   0.005   7.108  0.2179  0.5300  0.0311
  126OSM   H15T13484   1.744   0.096   7.205  0.1856  1.4155  0.7659
  126OSM   C16S13485   1.844  -0.068   7.298 -0.4133 -0.4577 -0.2631
  126OSM   H16S13486   1.940  -0.121   7.286 -1.0043 -0.8577 -4.8409
  126OSM   H16T13487   1.766  -0.138   7.259 -0.0460 -0.2309 -1.4188
  126OSM   C17S13488   1.809  -0.046   7.445  0.3587 -0.2473  0.2833
  126OSM   H17S13489   1.849   0.055   7.471  0.8495 -0.7464  1.5792
  126OSM   H17T13490   1.864  -0.111   7.516 -1.8499 -2.7335 -0.1201
  126OSM   C18S13491   1.657  -0.053   7.475  0.8105 -0.1901 -0.5263
  126OSM   H18S13492   1.593   0.022   7.425 -1.1396 -1.7448 -0.4801
  126OSM   H18T13493   1.651  -0.035   7.584  4.1525 -1.8440  0.0601
  126OSM   H18U13494   1.627  -0.158   7.453 -1.8809  0.1303  1.1749
  126OSM    C1F13495   2.038   0.844   6.623  0.0850  0.1409 -0.2296
  126OSM     OF13496   1.938   0.896   6.587 -0.3713  0.5959 -0.5230
  126OSM    C2F13497   2.064   0.816   6.772 -0.2943 -0.4640 -0.1198
  126OSM    H2F13498   2.162   0.863   6.794  0.9281 -2.8751 -0.0305
  126OSM    H2G13499   2.086   0.707   6.771 -0.7834 -0.5714  0.3842
  126OSM    C3F13500   1.944   0.832   6.863  0.4901 -0.5323  0.3391
  126OSM    H3F13501   1.858   0.773   6.825  0.4161  0.2400 -0.7325
  126OSM    H3G13502   1.904   0.934   6.846  2.0130 -0.3129 -2.5715
  126OSM    C4F13503   1.975   0.784   7.002 -0.3755 -0.2294 -0.3505
  126OSM    H4F13504   2.073   0.822   7.035  1.3528 -3.6336 -1.0468
  126OSM    H4G13505   1.986   0.673   7.003  1.7517 -0.0434  0.1934
  126OSM    C5F13506   1.871   0.838   7.103  0.0136 -0.3815  0.9768
  126OSM    H5F13507   1.779   0.784   7.072  1.2915 -0.8987 -2.3496
  126OSM    H5G13508   1.859   0.948   7.094  1.7689 -0.1040  1.6373
  126OSM    C6F13509   1.908   0.804   7.251 -0.3860  0.3328  0.1309
  126OSM    H6F13510   2.016   0.826   7.263 -0.0997 -1.1123  0.3976
  126OSM    H6G13511   1.899   0.695   7.270 -1.2436  0.4969  0.7361
  126OSM    C7F13512   1.830   0.883   7.364  0.0566 -0.1516 -0.2357
  126OSM    H7F13513   1.721   0.862   7.353  0.3240 -1.4589 -0.5501
  126OSM    H7G13514   1.846   0.993   7.361  1.8249 -0.3749  0.2264
  126OSM    C8F13515   1.857   0.844   7.512  0.6028  0.1694  0.2368
  126OSM    H8F13516   1.803   0.918   7.574 -1.7870 -4.3067  4.0968
  126OSM    H8G13517   1.963   0.867   7.535  0.7567 -0.1149 -0.1719
  126OSM    C9F13518   1.818   0.706   7.555  0.1997  0.6683 -0.6997
  126OSM    H9F13519   1.868   0.626   7.500 -0.7463  0.1821 -0.8786
  126OSM   C10F13520   1.737   0.678   7.660  0.2121  0.0520 -0.2555
  126OSM   H10F13521   1.727   0.570   7.681 -0.1721 -0.2240 -1.7505
  126OSM   C11F13522   1.688   0.775   7.763 -0.3042 -0.1674 -0.5335
  126OSM   H11F13523   1.629   0.723   7.842 -0.0105 -0.4317 -0.4859
  126OSM   H11G13524   1.634   0.860   7.715  0.4556  1.5027  1.4361
  126OSM   C12F13525   1.806   0.850   7.832  1.0423 -0.9640 -0.1524
  126OSM   H12F13526   1.767   0.931   7.897  3.4068  0.0224  0.1139
  126OSM   H12G13527   1.850   0.926   7.764  0.4947  3.0766  3.5704
  126OSM   C13F13528   1.903   0.762   7.910  0.3337  0.6906  0.1492
  126OSM   H13F13529   1.995   0.820   7.930  1.7110 -1.2055 -0.3238
  126OSM   H13G13530   1.939   0.675   7.850 -2.5977  0.7634 -1.9442
  126OSM   C14F13531   1.836   0.694   8.036 -0.3443 -0.3753  0.2744
  126OSM   H14F13532   1.734   0.651   8.024 -0.7781  0.3274  1.3676
  126OSM   H14G13533   1.840   0.768   8.118 -2.7544 -0.4049  0.4717
  126OSM   C15F13534   1.923   0.579   8.086  0.3467 -0.1794 -0.2554
  126OSM   H15F13535   2.030   0.604   8.103 -0.2369  1.6119  1.0772
  126OSM   H15G13536   1.920   0.495   8.014  3.7022  0.4974 -1.3291
  126OSM   C16F13537   1.878   0.515   8.223 -0.1858  0.1561  0.1129
  126OSM   H16F13538   1.779   0.465   8.212  1.4431 -2.9145 -2.1375
  126OSM   H16G13539   1.866   0.588   8.306  0.6602 -0.1585  0.5170
  126OSM   C17F13540   1.980   0.413   8.273  0.2902 -0.0894  0.7408
  126OSM   H17F13541   2.075   0.464   8.300  0.8394 -0.0612 -1.0887
  126OSM   H17G13542   2.011   0.343   8.192 -1.1188  0.3116 -0.1893
  126OSM   C18F13543   1.938   0.331   8.402  0.0842  0.3244  0.0635
  126OSM   H18F13544   1.844   0.276   8.381  0.8768  0.2212 -4.1019
  126OSM   H18G13545   1.915   0.402   8.484 -2.5460 -0.5454  0.1708
  126OSM   H18H13546   2.014   0.255   8.432  1.2422  1.0552 -0.8997
  127OSM      N13547   4.024   4.859   6.108 -0.3131  0.1838  0.4274
  127OSM    C1513548   3.915   4.839   6.006  0.4215 -0.3676  1.1303
  127OSM   H15A13549   3.832   4.904   6.031 -0.4974  0.0681 -2.4685
  127OSM   H15B13550   3.892   4.733   6.005 -2.5257  0.1602  2.0319
  127OSM   H15C13551   3.956   4.855   5.908  2.2676 -2.6306  1.4379
  127OSM    C1413552   4.131   4.763   6.081 -0.0463 -0.3549  0.2308
  127OSM   H14A13553   4.214   4.772   6.149  0.4988 -2.1511 -0.1411
  127OSM   H14B13554   4.157   4.772   5.976  1.2309  1.7445  0.6747
  127OSM   H14C13555   4.092   4.662   6.086 -0.3747 -0.2573 -0.2776
  127OSM    C1313556   4.082   5.002   6.101 -0.1500 -0.6203 -0.0220
  127OSM   H13A13557   4.010   5.071   6.143 -0.4357 -1.2921  0.6150
  127OSM   H13B13558   4.098   5.048   6.005  2.5709  1.3424  1.2392
  127OSM   H13C13559   4.168   5.011   6.165 -0.4982 -4.4000  1.2523
  127OSM    C1213560   3.979   4.848   6.255 -0.0558 -0.3556  0.3043
  127OSM   H12A13561   4.072   4.841   6.310  1.7816  0.4877 -2.5132
  127OSM   H12B13562   3.937   4.749   6.259 -0.3461 -0.2110  1.0721
  127OSM    C1113563   3.865   4.945   6.308  0.2162 -0.0685  0.0824
  127OSM   H11A13564   3.918   5.042   6.315  0.1652  0.1184 -1.6473
  127OSM   H11B13565   3.843   4.902   6.409 -0.0129 -1.3696 -0.5013
  127OSM      P13566   3.620   4.851   6.262 -0.0168 -0.0064  0.2282
  127OSM    O1313567   3.519   4.871   6.157 -0.3460  0.5182  1.8683
  127OSM    O1413568   3.650   4.705   6.280  0.6874 -0.0387 -0.6306
  127OSM    O1113569   3.582   4.896   6.408  0.2183 -0.0953 -0.0210
  127OSM    O1213570   3.750   4.937   6.228 -0.1829  0.1195 -0.3191
  127OSM    C1S13571   3.491   5.006   6.419 -0.9035 -0.3128  0.1284
  127OSM    H1S13572   3.394   4.978   6.372  0.7062 -3.3198 -1.7235
  127OSM    H1T13573   3.533   5.100   6.379 -1.2327  0.5046  1.6189
  127OSM     NF13574   3.359   5.149   6.579  0.1307  0.6255  0.4610
  127OSM    HNF13575   3.384   5.246   6.577 -0.1177  0.7560  2.0007
  127OSM    C2S13576   3.458   5.052   6.566 -0.6325 -0.3666  0.3802
  127OSM    H2S13577   3.429   4.967   6.631 -2.4212  0.8464  1.2689
  127OSM    C3S13578   3.592   5.096   6.632 -0.0758 -0.1084  0.0119
  127OSM    H3S13579   3.637   5.170   6.563 -0.2772 -0.4475 -0.4894
  127OSM     O313580   3.695   4.996   6.640  0.4571  0.5244 -0.4785
  127OSM    HO313581   3.659   4.916   6.600 -0.1010  0.1071  0.8139
  127OSM    C4S13582   3.573   5.142   6.776  0.6292 -0.2746  0.8177
  127OSM    H4S13583   3.519   5.075   6.845  1.9955 -1.5452  0.6994
  127OSM    C5S13584   3.613   5.255   6.825 -0.4432 -0.6497 -0.1753
  127OSM    H5S13585   3.670   5.328   6.766  0.8745 -3.1942 -2.2176
  127OSM    C6S13586   3.589   5.298   6.967 -0.0157  0.3735 -0.1254
  127OSM    H6S13587   3.483   5.319   6.992  0.1028 -0.7974  1.4672
  127OSM    H6T13588   3.636   5.394   6.996 -1.8172  1.4185 -0.4747
  127OSM    C7S13589   3.634   5.206   7.088 -0.1076 -0.8482 -0.4655
  127OSM    H7S13590   3.745   5.197   7.086 -0.0235  0.2290 -1.0417
  127OSM    H7T13591   3.585   5.106   7.079 -0.6045 -0.5470 -1.2568
  127OSM    C8S13592   3.595   5.265   7.223  0.2869 -0.0436  0.2312
  127OSM    H8S13593   3.486   5.285   7.215  0.1353 -1.4601 -1.8920
  127OSM    H8T13594   3.661   5.354   7.233  0.2454  0.0069  0.0451
  127OSM    C9S13595   3.614   5.177   7.342 -0.2847  0.4481 -0.7044
  127OSM    H9S13596   3.536   5.098   7.343  0.1263  0.0279 -1.0811
  127OSM    H9T13597   3.591   5.245   7.427  2.0659  0.9556 -0.4123
  127OSM   C10S13598   3.760   5.115   7.361  0.0040  0.6505 -0.6643
  127OSM   H10S13599   3.830   5.201   7.355 -0.4212  0.9558 -1.3946
  127OSM   H10T13600   3.785   5.063   7.266 -2.2051  1.2694 -1.6473
  127OSM   C11S13601   3.774   5.035   7.493  0.7719  0.6152  0.8178
  127OSM   H11S13602   3.859   4.963   7.490  0.4240  0.2365 -0.3267
  127OSM   H11T13603   3.677   4.985   7.513 -0.1732  2.0775  0.0245
  127OSM   C12S13604   3.797   5.135   7.610 -0.2016  0.9227  0.1874
  127OSM   H12S13605   3.708   5.200   7.625 -1.3257 -0.7387  0.9340
  127OSM   H12T13606   3.884   5.196   7.577  1.2525 -1.2629 -0.2038
  127OSM   C13S13607   3.821   5.070   7.747  0.3639 -0.2485  0.1488
  127OSM   H13S13608   3.859   5.149   7.815  1.1752 -0.0618 -0.4979
  127OSM   H13T13609   3.900   4.991   7.751 -0.5341 -1.1921 -0.2974
  127OSM   C14S13610   3.684   5.014   7.798 -0.0058  0.2322 -0.4816
  127OSM   H14S13611   3.632   4.959   7.717 -1.1806 -0.0655  0.4604
  127OSM   H14T13612   3.616   5.092   7.838 -0.1265 -0.2247  0.2235
  127OSM   C15S13613   3.707   4.910   7.897 -0.7415 -0.0198 -0.3601
  127OSM   H15S13614   3.788   4.844   7.859 -0.4570  0.0253  0.1578
  127OSM   H15T13615   3.619   4.847   7.925  0.0870 -0.4924  1.3495
  127OSM   C16S13616   3.753   4.964   8.039  0.0761  0.2918 -0.0552
  127OSM   H16S13617   3.664   5.013   8.085  1.9391  1.9002  2.0462
  127OSM   H16T13618   3.836   5.037   8.029  0.6991 -0.5366 -1.0920
  127OSM   C17S13619   3.802   4.851   8.138 -0.1897  0.5256 -0.2264
  127OSM   H17S13620   3.838   4.892   8.235  1.5732 -2.5266  0.5387
  127OSM   H17T13621   3.894   4.809   8.093 -1.3379 -1.2196 -1.0537
  127OSM   C18S13622   3.697   4.739   8.150  0.0101  0.0807 -0.1542
  127OSM   H18S13623   3.707   4.690   8.250  2.2555  2.2928  0.8236
  127OSM   H18T13624   3.705   4.668   8.066 -2.1185 -2.3354  1.5213
  127OSM   H18U13625   3.600   4.793   8.148  0.3171  0.9180  2.6974
  127OSM    C1F13626   3.233   5.104   6.563  0.6382  0.3050 -0.1198
  127OSM     OF13627   3.204   4.990   6.588 -0.4033  0.1056 -0.4735
  127OSM    C2F13628   3.129   5.204   6.513 -0.0937 -0.9910 -0.6718
  127OSM    H2F13629   3.120   5.182   6.405 -0.0656 -0.0224 -0.8757
  127OSM    H2G13630   3.169   5.305   6.535 -0.8912 -0.5018 -1.4176
  127OSM    C3F13631   2.998   5.189   6.585  0.0535  0.2518 -0.4407
  127OSM    H3F13632   2.960   5.085   6.577  0.7015  0.1583 -3.5295
  127OSM    H3G13633   2.931   5.260   6.532  0.9809  2.4275  1.1263
  127OSM    C4F13634   2.998   5.229   6.738 -0.5565 -0.0634  0.0911
  127OSM    H4F13635   3.086   5.188   6.791  0.5275 -0.8351 -2.1753
  127OSM    H4G13636   2.904   5.196   6.788 -0.2930 -0.0330  0.6130
  127OSM    C5F13637   3.006   5.387   6.754 -0.1803  0.8766 -0.1596
  127OSM    H5F13638   2.935   5.422   6.675  0.9698  0.9368 -1.2005
  127OSM    H5G13639   3.103   5.434   6.731  0.5011 -0.8739 -1.0611
  127OSM    C6F13640   2.957   5.453   6.888 -0.3307  0.0816  0.7700
  127OSM    H6F13641   3.026   5.429   6.973  1.4659 -1.1591 -0.9419
  127OSM    H6G13642   2.852   5.429   6.914 -0.5313  0.2911  0.1695
  127OSM    C7F13643   2.954   5.607   6.870  0.1056 -0.2047 -0.3964
  127OSM    H7F13644   2.881   5.606   6.787 -0.7459 -1.0014  0.3387
  127OSM    H7G13645   3.042   5.655   6.821  1.3797 -0.5561  1.4180
  127OSM    C8F13646   2.891   5.680   6.994 -0.4299  0.0763 -0.9101
  127OSM    H8F13647   2.797   5.627   7.017 -0.3408 -1.3966 -3.5327
  127OSM    H8G13648   2.857   5.783   6.971  2.3556  0.7885 -2.3321
  127OSM    C9F13649   2.982   5.687   7.119  0.3575  0.3951 -0.3667
  127OSM    H9F13650   3.092   5.678   7.109  0.3486 -1.6009  0.7070
  127OSM   C10F13651   2.941   5.691   7.245  0.4532 -0.3688  0.3632
  127OSM   H10F13652   3.002   5.696   7.337 -1.2296 -2.0287  1.6556
  127OSM   C11F13653   2.797   5.695   7.291  0.1376  0.0869  0.7223
  127OSM   H11F13654   2.730   5.730   7.210  1.5927 -1.7494 -1.4228
  127OSM   H11G13655   2.776   5.767   7.373 -2.0984 -0.3972  0.6345
  127OSM   C12F13656   2.742   5.560   7.349 -0.4547  0.5021  0.1535
  127OSM   H12F13657   2.637   5.584   7.376 -0.1502  1.3397  0.6371
  127OSM   H12G13658   2.799   5.523   7.436  1.3133 -0.3690 -1.3167
  127OSM   C13F13659   2.717   5.461   7.227  0.0376  0.9671 -0.0014
  127OSM   H13F13660   2.815   5.434   7.182  0.4114  2.2261  0.0176
  127OSM   H13G13661   2.659   5.503   7.142 -0.6918 -2.0016 -1.0981
  127OSM   C14F13662   2.631   5.346   7.257 -0.4307  0.4310  0.7304
  127OSM   H14F13663   2.533   5.383   7.294 -1.3165 -1.0360 -0.0517
  127OSM   H14G13664   2.668   5.297   7.350 -0.9387  0.1660  0.7917
  127OSM   C15F13665   2.625   5.242   7.142  0.0077  0.3836  0.3400
  127OSM   H15F13666   2.546   5.166   7.162 -1.2782  0.7769 -2.6516
  127OSM   H15G13667   2.722   5.188   7.134 -1.0378 -1.4622 -0.3683
  127OSM   C16F13668   2.596   5.304   7.008 -0.6148 -0.0904  0.1045
  127OSM   H16F13669   2.661   5.388   6.976 -0.4649  0.4781  1.7741
  127OSM   H16G13670   2.493   5.345   7.018 -0.4960 -0.0163  1.1153
  127OSM   C17F13671   2.602   5.205   6.893 -0.1932  0.2086  0.0037
  127OSM   H17F13672   2.520   5.132   6.906  0.3129 -0.3143  0.2680
  127OSM   H17G13673   2.701   5.159   6.873 -1.8390 -3.0760 -1.3326
  127OSM   C18F13674   2.559   5.274   6.765 -0.0787 -0.2769  0.2745
  127OSM   H18F13675   2.449   5.292   6.761 -0.0707 -0.3608 -0.3840
  127OSM   H18G13676   2.603   5.217   6.681  1.3884 -0.4760  1.1415
  127OSM   H18H13677   2.608   5.373   6.763 -0.3599 -0.1453 -0.4128
  128OSM      N13678   6.688   1.067   6.302  0.2858  0.5224 -0.2667
  128OSM    C1513679   6.669   0.956   6.208  0.3221  0.2753 -0.0822
  128OSM   H15A13680   6.628   0.996   6.116  0.6864  2.3075  0.5820
  128OSM   H15B13681   6.598   0.882   6.241  1.0295 -0.7837 -0.8286
  128OSM   H15C13682   6.755   0.899   6.174 -0.5088 -2.1031  1.5403
  128OSM    C1413683   6.554   1.113   6.345 -0.5684  0.1771 -0.2777
  128OSM   H14A13684   6.503   1.163   6.264  1.3324  1.4779 -0.7484
  128OSM   H14B13685   6.551   1.193   6.418 -0.3093  0.2199 -0.3134
  128OSM   H14C13686   6.496   1.044   6.404 -0.6061  0.6453  0.2357
  128OSM    C1313687   6.765   1.020   6.419 -0.5268  0.2171  0.4001
  128OSM   H13A13688   6.791   1.103   6.484 -0.8523  0.3387  0.3793
  128OSM   H13B13689   6.857   0.967   6.398 -1.8558 -1.6969 -0.8781
  128OSM   H13C13690   6.711   0.949   6.480  0.1499  0.1507  0.9351
  128OSM    C1213691   6.770   1.176   6.228  0.8358 -0.2300 -0.3054
  128OSM   H12A13692   6.709   1.208   6.145  0.6385 -1.6461 -0.7389
  128OSM   H12B13693   6.845   1.123   6.172 -0.0004 -0.1649 -1.5423
  128OSM    C1113694   6.825   1.295   6.301  0.0557  0.6387  0.2389
  128OSM   H11A13695   6.893   1.343   6.227  0.2604 -2.3557 -1.6865
  128OSM   H11B13696   6.893   1.265   6.384  0.9430  0.3392 -0.5732
  128OSM      P13697   6.618   1.466   6.239 -0.1528 -0.0616  0.3794
  128OSM    O1313698   6.697   1.531   6.134  0.3480 -0.8706  0.4496
  128OSM    O1413699   6.515   1.368   6.193 -0.3789  0.3583 -0.5637
  128OSM    O1113700   6.553   1.567   6.340 -0.4921  0.1690  0.3193
  128OSM    O1213701   6.718   1.385   6.340 -0.1792 -0.0574  0.3578
  128OSM    C1S13702   6.460   1.523   6.442 -0.1933 -0.3462  0.7972
  128OSM    H1S13703   6.480   1.415   6.461  0.7002 -1.1289 -3.4703
  128OSM    H1T13704   6.355   1.524   6.408  0.0928  3.0611 -0.3669
  128OSM     NF13705   6.347   1.580   6.645  0.4434  0.4199  0.2140
  128OSM    HNF13706   6.279   1.652   6.644  0.0180  0.0305  0.7077
  128OSM    C2S13707   6.460   1.615   6.567 -0.2617  0.0427 -0.4950
  128OSM    H2S13708   6.557   1.604   6.621 -0.8076  1.1342  0.7545
  128OSM    C3S13709   6.444   1.767   6.526 -1.0431  0.0395  0.1888
  128OSM    H3S13710   6.350   1.783   6.469 -1.1626  0.3848  0.4756
  128OSM     O313711   6.544   1.809   6.434 -0.0067  0.7949  0.2433
  128OSM    HO313712   6.572   1.726   6.396  1.0209  0.3712  1.8311
  128OSM    C4S13713   6.438   1.870   6.643  0.8192  0.1933  0.4349
  128OSM    H4S13714   6.343   1.923   6.660 -0.1463 -1.0875 -0.7278
  128OSM    C5S13715   6.539   1.912   6.719 -0.1764  0.3051  0.2867
  128OSM    H5S13716   6.642   1.876   6.700  0.5273  0.6615  2.9697
  128OSM    C6S13717   6.542   2.017   6.826 -0.5034  0.4485  0.1997
  128OSM    H6S13718   6.449   2.076   6.812 -1.9301 -2.0422 -1.6070
  128OSM    H6T13719   6.613   2.098   6.802 -0.2893  0.1723 -0.1049
  128OSM    C7S13720   6.545   1.946   6.958  0.3471 -0.1400  0.2931
  128OSM    H7S13721   6.643   1.896   6.974  1.3419  1.6624  0.1408
  128OSM    H7T13722   6.464   1.871   6.965  0.4865 -0.1071  3.0225
  128OSM    C8S13723   6.525   2.051   7.063  0.4900  0.3047 -0.5437
  128OSM    H8S13724   6.426   2.101   7.052  1.7325  2.7040 -1.2377
  128OSM    H8T13725   6.597   2.134   7.052  2.0427 -1.1018 -1.5564
  128OSM    C9S13726   6.515   1.996   7.212 -0.1891 -0.2455  0.3068
  128OSM    H9S13727   6.605   1.930   7.216  0.2232  0.3467  0.9949
  128OSM    H9T13728   6.425   1.932   7.222  0.0730 -0.9664 -1.4792
  128OSM   C10S13729   6.510   2.107   7.312  0.0751 -0.5995  0.1592
  128OSM   H10S13730   6.408   2.152   7.310  0.4741  0.2991 -1.1320
  128OSM   H10T13731   6.585   2.188   7.301 -0.0978 -0.4864 -0.2147
  128OSM   C11S13732   6.519   2.049   7.452  0.5729 -0.4141 -0.2800
  128OSM   H11S13733   6.624   2.023   7.476  0.0329 -0.4784  2.2319
  128OSM   H11T13734   6.468   1.950   7.457 -2.0276  0.8876  1.2679
  128OSM   C12S13735   6.467   2.135   7.572  0.0301 -0.0916 -0.4291
  128OSM   H12S13736   6.386   2.199   7.531  0.1895  0.7960  0.6072
  128OSM   H12T13737   6.531   2.215   7.615 -1.7865  0.1033  2.1151
  128OSM   C13S13738   6.421   2.058   7.690 -0.5206 -0.0184 -0.8825
  128OSM   H13S13739   6.508   1.992   7.712  0.0457  1.0471  0.2314
  128OSM   H13T13740   6.336   1.988   7.674  0.1774 -1.2382  0.4718
  128OSM   C14S13741   6.407   2.151   7.812  0.2348  0.4038  0.5200
  128OSM   H14S13742   6.315   2.211   7.800  0.7605  1.3819  1.1730
  128OSM   H14T13743   6.497   2.215   7.830  0.2916 -0.4903  4.5114
  128OSM   C15S13744   6.389   2.058   7.933  0.4626 -0.0551  0.2731
  128OSM   H15S13745   6.473   1.994   7.967 -0.1116  0.2809  2.4920
  128OSM   H15T13746   6.310   1.981   7.920 -0.3941  0.7817  0.3942
  128OSM   C16S13747   6.360   2.140   8.070  0.0377  0.9358 -0.3987
  128OSM   H16S13748   6.264   2.192   8.047 -0.1013  2.1241  2.4431
  128OSM   H16T13749   6.432   2.224   8.082  1.7306 -0.1020 -2.5701
  128OSM   C17S13750   6.352   2.057   8.201 -0.1490 -0.5027  0.4543
  128OSM   H17S13751   6.307   1.958   8.182 -2.7886  0.9568 -1.6162
  128OSM   H17T13752   6.277   2.104   8.268 -1.2446 -1.8199  0.1849
  128OSM   C18S13753   6.482   2.036   8.283 -0.5178  0.0178  0.4820
  128OSM   H18S13754   6.530   2.130   8.318  2.1860 -0.2976 -1.9524
  128OSM   H18T13755   6.561   1.989   8.220  1.1957  1.1145  1.7195
  128OSM   H18U13756   6.455   1.966   8.364 -1.0737 -1.8248 -1.2023
  128OSM    C1F13757   6.343   1.463   6.712  0.2266  0.3705 -0.5847
  128OSM     OF13758   6.443   1.394   6.718 -0.2098 -0.3451  0.0216
  128OSM    C2F13759   6.212   1.435   6.788 -0.2969  0.6583 -0.2318
  128OSM    H2F13760   6.169   1.350   6.732  0.4706 -1.4403  2.1887
  128OSM    H2G13761   6.154   1.528   6.767  1.5699  1.5951 -1.6530
  128OSM    C3F13762   6.236   1.408   6.931 -0.4099 -0.1987 -0.4600
  128OSM    H3F13763   6.303   1.320   6.943 -1.0640 -0.8516 -1.4476
  128OSM    H3G13764   6.133   1.384   6.967 -1.1621 -0.7385 -2.7990
  128OSM    C4F13765   6.294   1.533   7.005  1.1112  0.0795  0.2884
  128OSM    H4F13766   6.227   1.618   6.980 -0.2274 -1.4960 -1.7123
  128OSM    H4G13767   6.396   1.552   6.964  0.7516  2.0444  0.2073
  128OSM    C5F13768   6.305   1.502   7.157 -0.6666 -0.2322  0.1096
  128OSM    H5F13769   6.368   1.590   7.186  0.1068 -0.4499 -0.8536
  128OSM    H5G13770   6.380   1.422   7.173  1.1030  0.6154 -2.9725
  128OSM    C6F13771   6.184   1.501   7.246  0.3411 -0.0712  0.0684
  128OSM    H6F13772   6.132   1.403   7.241 -1.0874  0.5113  2.0140
  128OSM    H6G13773   6.106   1.577   7.224  1.4431  1.0155 -0.1895
  128OSM    C7F13774   6.219   1.524   7.400  0.3677 -0.2449  0.2303
  128OSM    H7F13775   6.285   1.613   7.410  1.1763 -0.7027 -0.7259
  128OSM    H7G13776   6.261   1.425   7.429  0.4096 -0.6259 -1.0386
  128OSM    C8F13777   6.090   1.547   7.486  0.3606 -0.0344 -0.0351
  128OSM    H8F13778   6.011   1.473   7.463  1.8770 -1.7381 -0.0030
  128OSM    H8G13779   6.051   1.643   7.446 -2.6460 -1.2636 -0.2932
  128OSM    C9F13780   6.131   1.550   7.624  0.8745  0.9890  0.2622
  128OSM    H9F13781   6.234   1.585   7.640  0.8768  0.3765  1.7217
  128OSM   C10F13782   6.074   1.493   7.729 -0.1780 -0.0245  0.0016
  128OSM   H10F13783   6.120   1.510   7.827  2.1789 -6.2817  0.4343
  128OSM   C11F13784   5.941   1.422   7.740  0.3066  0.4441 -0.2608
  128OSM   H11F13785   5.916   1.384   7.638  0.2153  1.9345 -0.8172
  128OSM   H11G13786   5.872   1.502   7.774 -1.1059 -1.6608  2.1847
  128OSM   C12F13787   5.939   1.301   7.836  0.2131  0.0781 -0.8656
  128OSM   H12F13788   6.030   1.239   7.824  0.3387 -0.1653  1.1069
  128OSM   H12G13789   5.855   1.230   7.816 -0.4552  0.4245  0.5966
  128OSM   C13F13790   5.931   1.351   7.981 -0.3425 -0.1390  0.1427
  128OSM   H13F13791   5.841   1.410   8.008 -0.6246 -0.0728 -0.8942
  128OSM   H13G13792   6.027   1.407   7.989 -0.6357  0.8994 -2.5027
  128OSM   C14F13793   5.939   1.233   8.070  0.2254  0.2355 -0.1953
  128OSM   H14F13794   5.984   1.264   8.167  2.3488 -1.3691 -0.5743
  128OSM   H14G13795   5.997   1.153   8.019 -1.7703 -0.0437 -2.1780
  128OSM   C15F13796   5.798   1.188   8.112 -0.2407  0.4014  0.6960
  128OSM   H15F13797   5.736   1.172   8.021  2.0800 -0.7010 -0.7963
  128OSM   H15G13798   5.752   1.273   8.166 -2.3724 -0.7140  0.7392
  128OSM   C16F13799   5.809   1.061   8.201 -0.0178  0.4053 -0.4070
  128OSM   H16F13800   5.887   1.087   8.276 -0.8443  3.5035 -0.4810
  128OSM   H16G13801   5.847   0.979   8.136 -1.4137  1.3816 -2.5976
  128OSM   C17F13802   5.688   1.018   8.280 -0.2068  0.4407 -0.4617
  128OSM   H17F13803   5.602   1.011   8.210 -0.3590  0.2941 -0.2630
  128OSM   H17G13804   5.672   1.105   8.346  1.9442 -0.2426  1.0839
  128OSM   C18F13805   5.707   0.890   8.362 -1.4784  0.2456  0.1717
  128OSM   H18F13806   5.618   0.862   8.423 -1.6052 -0.7242 -0.4420
  128OSM   H18G13807   5.797   0.913   8.424  0.1319  2.7526 -2.8158
  128OSM   H18H13808   5.729   0.804   8.296  1.1134 -0.2799  1.6032
  129OSM      N13809   2.432   6.214   5.338  0.0050 -0.2895  0.9151
  129OSM    C1513810   2.426   6.235   5.184 -0.0998  1.4589 -0.3573
  129OSM   H15A13811   2.409   6.339   5.163  0.4460  1.2809 -1.8071
  129OSM   H15B13812   2.351   6.169   5.142  1.5055 -1.0085  0.4193
  129OSM   H15C13813   2.514   6.202   5.130 -0.3889  0.8337 -0.4649
  129OSM    C1413814   2.529   6.322   5.374 -0.7851  0.5247  0.5626
  129OSM   H14A13815   2.502   6.411   5.318 -2.3863  0.9315  1.9196
  129OSM   H14B13816   2.634   6.304   5.360 -0.9014 -0.9140  1.3103
  129OSM   H14C13817   2.531   6.345   5.479  1.1281  1.7783  0.3103
  129OSM    C1313818   2.302   6.246   5.389  0.0963 -0.0697 -0.0851
  129OSM   H13A13819   2.305   6.236   5.497 -1.7254 -0.1492 -0.0108
  129OSM   H13B13820   2.222   6.180   5.358  0.3956 -0.2776 -0.4164
  129OSM   H13C13821   2.268   6.345   5.363  0.9043  0.9903  2.4999
  129OSM    C1213822   2.479   6.077   5.370  0.5950  0.3969 -1.1030
  129OSM   H12A13823   2.582   6.076   5.336  0.6680 -2.9888 -1.1640
  129OSM   H12B13824   2.432   6.003   5.307  1.5306 -0.0557 -1.2900
  129OSM    C1113825   2.487   6.044   5.522  0.4853  0.0846  0.2648
  129OSM   H11A13826   2.531   6.137   5.564 -1.3879  0.6593  1.0661
  129OSM   H11B13827   2.549   5.957   5.552 -0.5984 -0.6560  0.4494
  129OSM      P13828   2.283   5.898   5.559  0.3485 -0.6646  0.4183
  129OSM    O1313829   2.133   5.916   5.564  0.8526  0.4625  0.7530
  129OSM    O1413830   2.338   5.835   5.438  0.3132  0.1962 -0.4590
  129OSM    O1113831   2.333   5.816   5.677 -0.0134  0.0626 -0.4177
  129OSM    O1213832   2.359   6.040   5.586  0.5988  0.8727 -0.0716
  129OSM    C1S13833   2.360   5.867   5.806  0.1944 -0.3739  0.1524
  129OSM    H1S13834   2.300   5.957   5.830 -2.9250 -2.1380 -0.4315
  129OSM    H1T13835   2.468   5.892   5.821  0.0319 -0.6504  1.9902
  129OSM     NF13836   2.368   5.829   6.051  0.5358  0.2434 -0.3309
  129OSM    HNF13837   2.466   5.825   6.070  0.2563 -1.4467  0.9629
  129OSM    C2S13838   2.329   5.766   5.921 -0.2493  0.0428  0.0898
  129OSM    H2S13839   2.218   5.758   5.922 -0.1691 -1.2277  1.0902
  129OSM    C3S13840   2.393   5.630   5.900 -0.4748  0.1364 -0.1023
  129OSM    H3S13841   2.502   5.641   5.883 -0.2959  1.1277  1.4119
  129OSM     O313842   2.350   5.554   5.784 -0.1824  0.0220 -0.0551
  129OSM    HO313843   2.328   5.630   5.729 -0.9188 -0.8416 -1.0099
  129OSM    C4S13844   2.376   5.540   6.014 -0.0357 -0.5930 -0.0815
  129OSM    H4S13845   2.475   5.514   6.053 -0.7168 -0.4667  1.8499
  129OSM    C5S13846   2.266   5.468   6.046 -0.0076 -0.7623 -0.6788
  129OSM    H5S13847   2.175   5.464   5.983 -1.5369 -0.7949  1.4096
  129OSM    C6S13848   2.259   5.377   6.164 -0.4902 -0.6656  0.0355
  129OSM    H6S13849   2.362   5.368   6.203 -0.0021  1.3554 -0.6682
  129OSM    H6T13850   2.233   5.272   6.139 -0.2624 -0.9322  0.8947
  129OSM    C7S13851   2.162   5.413   6.277 -0.5335  1.2788  0.8693
  129OSM    H7S13852   2.055   5.405   6.247 -0.1861  1.1985 -0.4011
  129OSM    H7T13853   2.187   5.519   6.303  2.9073  0.7496  0.2349
  129OSM    C8S13854   2.185   5.319   6.397 -0.2326 -0.2437 -0.1313
  129OSM    H8S13855   2.293   5.309   6.420  0.0126  1.2072 -0.5200
  129OSM    H8T13856   2.145   5.221   6.363  1.3512 -0.5657 -1.2005
  129OSM    C9S13857   2.107   5.353   6.521  0.6278 -0.0300 -0.0317
  129OSM    H9S13858   1.999   5.377   6.509  0.4569 -1.3175 -1.4741
  129OSM    H9T13859   2.141   5.458   6.533 -2.5078  1.2007 -0.6933
  129OSM   C10S13860   2.150   5.281   6.645 -0.1223 -0.0863 -0.6787
  129OSM   H10S13861   2.124   5.348   6.729 -1.6227 -1.2606 -0.1543
  129OSM   H10T13862   2.259   5.262   6.643 -0.1417 -0.4285  0.8075
  129OSM   C11S13863   2.091   5.140   6.684 -1.0208  0.5102  0.2481
  129OSM   H11S13864   2.114   5.071   6.600 -1.8875 -0.5631  0.8666
  129OSM   H11T13865   1.980   5.147   6.690 -1.1587  0.6951 -1.8308
  129OSM   C12S13866   2.165   5.092   6.806 -0.3356 -0.5424  0.1693
  129OSM   H12S13867   2.275   5.101   6.796 -0.3705  1.3280  0.9423
  129OSM   H12T13868   2.140   4.985   6.821 -1.1328 -0.2602  1.0174
  129OSM   C13S13869   2.130   5.169   6.933 -0.0634 -0.5798  0.0711
  129OSM   H13S13870   2.020   5.156   6.940 -0.4330  2.2090  0.5358
  129OSM   H13T13871   2.171   5.272   6.921  1.1548 -1.0235  0.2761
  129OSM   C14S13872   2.204   5.113   7.062 -0.3483  1.0155  0.1997
  129OSM   H14S13873   2.311   5.131   7.038 -1.0770  2.4966 -2.4174
  129OSM   H14T13874   2.165   5.009   7.062 -0.1151  0.8512 -2.2189
  129OSM   C15S13875   2.177   5.177   7.198 -0.1795  0.7474 -0.3192
  129OSM   H15S13876   2.075   5.208   7.227  0.3150 -0.4162  3.1060
  129OSM   H15T13877   2.239   5.268   7.182  1.8235 -0.4806 -0.0009
  129OSM   C16S13878   2.242   5.104   7.315 -0.1776  1.5471  0.2220
  129OSM   H16S13879   2.351   5.090   7.298 -0.1547  1.6428  0.2901
  129OSM   H16T13880   2.198   5.006   7.341 -0.7036  1.2592 -1.5864
  129OSM   C17S13881   2.256   5.173   7.450  0.0051 -0.7920 -0.4492
  129OSM   H17S13882   2.268   5.281   7.426 -0.2310 -0.2591  1.6413
  129OSM   H17T13883   2.351   5.147   7.502 -0.5349  1.0442  1.5781
  129OSM   C18S13884   2.140   5.138   7.543  0.1972 -0.7002 -1.2962
  129OSM   H18S13885   2.129   5.028   7.549  0.9944 -0.7766 -1.0921
  129OSM   H18T13886   2.046   5.176   7.499 -1.8068 -0.5026  2.7201
  129OSM   H18U13887   2.151   5.187   7.641 -3.2547  0.2653 -1.2626
  129OSM    C1F13888   2.289   5.917   6.107 -0.4340 -0.4988  0.6968
  129OSM     OF13889   2.196   5.969   6.044 -0.3794 -0.6736 -0.7496
  129OSM    C2F13890   2.315   5.945   6.245  0.5435 -0.2135 -0.5164
  129OSM    H2F13891   2.422   5.929   6.272  0.1242  1.1837  2.3508
  129OSM    H2G13892   2.249   5.886   6.311 -1.3699  2.0073 -0.3046
  129OSM    C3F13893   2.268   6.089   6.289 -0.7029 -0.5238 -0.1815
  129OSM    H3F13894   2.164   6.111   6.258 -0.6095  0.0321 -0.1165
  129OSM    H3G13895   2.334   6.164   6.239 -0.9291 -0.8574 -0.9917
  129OSM    C4F13896   2.270   6.116   6.442  0.2681 -0.0848 -0.6976
  129OSM    H4F13897   2.205   6.039   6.487  1.0858 -1.8524 -2.4238
  129OSM    H4G13898   2.240   6.221   6.463  0.7233 -0.3513  1.4751
  129OSM    C5F13899   2.405   6.097   6.508  0.5189  0.4262  0.3998
  129OSM    H5F13900   2.487   6.145   6.450  2.2387 -1.3741  1.2027
  129OSM    H5G13901   2.436   5.990   6.511  1.8795  0.8319  1.8278
  129OSM    C6F13902   2.402   6.145   6.650 -0.0072 -0.4352 -0.8330
  129OSM    H6F13903   2.323   6.102   6.715  0.1292 -0.3485 -0.6064
  129OSM    H6G13904   2.383   6.255   6.644  0.6616 -0.3973 -2.7150
  129OSM    C7F13905   2.538   6.132   6.727 -0.9333  0.1703  0.5396
  129OSM    H7F13906   2.617   6.172   6.660  0.8405 -0.7550  2.0293
  129OSM    H7G13907   2.555   6.023   6.733  2.7627  0.5940 -0.0786
  129OSM    C8F13908   2.535   6.200   6.868 -0.5622 -0.4982  0.3531
  129OSM    H8F13909   2.507   6.307   6.852  2.1916  0.0356 -1.5632
  129OSM    H8G13910   2.640   6.203   6.904 -0.1539 -2.5338 -0.5245
  129OSM    C9F13911   2.446   6.144   6.969 -0.0552  0.7485  0.6265
  129OSM    H9F13912   2.339   6.168   6.964 -0.4967 -0.9289  1.3829
  129OSM   C10F13913   2.477   6.065   7.072 -0.0625  0.2798  0.4219
  129OSM   H10F13914   2.400   6.012   7.129 -0.3378  0.4363  0.1980
  129OSM   C11F13915   2.614   6.019   7.118 -0.4104  0.3411  0.5574
  129OSM   H11F13916   2.689   6.069   7.053 -0.7370 -0.1823 -0.2318
  129OSM   H11G13917   2.633   5.911   7.101  0.3076  0.7325 -1.4578
  129OSM   C12F13918   2.646   6.062   7.266  0.4217 -0.3066 -0.3387
  129OSM   H12F13919   2.640   6.173   7.269 -0.3449 -0.3649  0.4073
  129OSM   H12G13920   2.754   6.036   7.271  0.8193  0.8107 -2.0906
  129OSM   C13F13921   2.567   5.998   7.382  0.0419  0.2360  0.0725
  129OSM   H13F13922   2.570   5.887   7.373  1.9186 -0.1770  3.7301
  129OSM   H13G13923   2.463   6.038   7.375 -0.4268 -0.7402  1.1657
  129OSM   C14F13924   2.616   6.034   7.527 -0.5283 -0.1936  0.4483
  129OSM   H14F13925   2.640   6.142   7.536 -2.0069  0.2875 -0.9080
  129OSM   H14G13926   2.714   5.982   7.530  0.4126  1.2272 -2.0012
  129OSM   C15F13927   2.518   5.993   7.646  0.0394  0.0403  0.7285
  129OSM   H15F13928   2.420   6.044   7.636 -1.1337 -2.3682 -0.9035
  129OSM   H15G13929   2.564   6.039   7.736  2.7433 -1.2719  0.1170
  129OSM   C16F13930   2.508   5.847   7.679 -0.0545  0.2696 -0.4652
  129OSM   H16F13931   2.436   5.796   7.611 -0.0150 -0.6386  0.1552
  129OSM   H16G13932   2.476   5.828   7.783  0.2954  0.3683 -0.3399
  129OSM   C17F13933   2.637   5.767   7.668 -0.3869 -0.0680 -0.2821
  129OSM   H17F13934   2.719   5.831   7.706 -2.2305  0.8918  2.3772
  129OSM   H17G13935   2.653   5.747   7.560 -0.7466  1.3933 -0.6218
  129OSM   C18F13936   2.626   5.628   7.732 -0.3700  0.0572 -0.4905
  129OSM   H18F13937   2.549   5.554   7.702 -0.7301  1.1848 -2.5107
  129OSM   H18G13938   2.619   5.641   7.842  2.8557 -2.0085  0.1119
  129OSM   H18H13939   2.727   5.582   7.720  0.9982  2.3857  1.1794
  130OSM      N13940   6.203   1.104   5.833  0.4787 -0.2630  0.4746
  130OSM    C1513941   6.078   1.021   5.809  0.9740 -0.0669 -0.2855
  130OSM   H15A13942   6.008   1.072   5.744  1.5005  1.7312  0.5050
  130OSM   H15B13943   6.024   1.020   5.903  0.9381 -0.0369 -0.3056
  130OSM   H15C13944   6.102   0.927   5.762 -1.7070 -1.0509  0.1398
  130OSM    C1413945   6.271   1.125   5.693  0.4553 -0.0226  0.2503
  130OSM   H14A13946   6.367   1.170   5.712  1.7908 -2.3895 -0.5737
  130OSM   H14B13947   6.199   1.184   5.638  0.6730 -1.6346 -1.8735
  130OSM   H14C13948   6.278   1.031   5.640  2.6998 -0.0493  0.5096
  130OSM    C1313949   6.155   1.243   5.876  0.4574 -0.6703 -0.1173
  130OSM   H13A13950   6.089   1.238   5.962 -0.2521 -2.0512 -0.7228
  130OSM   H13B13951   6.113   1.289   5.788  0.5207 -2.9815 -1.4217
  130OSM   H13C13952   6.240   1.307   5.894  1.3321 -1.7990 -0.1201
  130OSM    C1213953   6.296   1.030   5.924  0.4470 -0.6728  0.6761
  130OSM   H12A13954   6.394   1.074   5.923  0.3968 -0.5555  0.8101
  130OSM   H12B13955   6.329   0.932   5.894 -0.5577 -0.5164 -1.0353
  130OSM    C1113956   6.260   1.017   6.073 -0.4758 -0.0670 -0.2392
  130OSM   H11A13957   6.250   1.115   6.124 -3.8229 -0.7607  0.7170
  130OSM   H11B13958   6.351   0.976   6.120  1.2518  2.7641 -0.8352
  130OSM      P13959   6.140   0.785   6.097 -0.0791 -0.1439  0.8953
  130OSM    O1313960   6.007   0.725   6.115 -0.0461 -0.2500  0.4138
  130OSM    O1413961   6.231   0.740   5.985  0.7270 -0.1101  0.1954
  130OSM    O1113962   6.224   0.754   6.227 -0.0090  0.0846 -0.6023
  130OSM    O1213963   6.135   0.946   6.099 -0.6267 -0.0908 -0.1275
  130OSM    C1S13964   6.214   0.833   6.344 -0.0897 -0.7194 -0.0028
  130OSM    H1S13965   6.112   0.875   6.355 -0.4154 -1.0056 -1.6009
  130OSM    H1T13966   6.283   0.920   6.341  0.0834 -0.8448  0.2367
  130OSM     NF13967   6.224   0.796   6.593  0.6950 -0.6024 -0.2066
  130OSM    HNF13968   6.299   0.827   6.651 -0.9157  1.2871  0.9928
  130OSM    C2S13969   6.264   0.745   6.467 -0.8173  0.8580  0.1246
  130OSM    H2S13970   6.204   0.652   6.464 -0.6439  0.6579  1.8789
  130OSM    C3S13971   6.415   0.719   6.458  0.3560 -0.0596 -0.3347
  130OSM    H3S13972   6.456   0.820   6.480  0.6296  0.5177 -3.1420
  130OSM     O313973   6.461   0.675   6.330 -0.1560 -0.3022 -0.9130
  130OSM    HO313974   6.384   0.693   6.275  1.0633  1.4671 -2.1802
  130OSM    C4S13975   6.456   0.628   6.570  0.4013  0.4866  0.1543
  130OSM    H4S13976   6.504   0.683   6.653 -1.6042  0.8892  1.0951
  130OSM    C5S13977   6.444   0.495   6.573 -0.3484 -0.0824  0.0130
  130OSM    H5S13978   6.400   0.452   6.482 -0.3236 -0.9880  0.4214
  130OSM    C6S13979   6.484   0.394   6.682 -0.3265  0.1719 -0.2732
  130OSM    H6S13980   6.583   0.348   6.661 -0.3039 -0.5021  1.2165
  130OSM    H6T13981   6.418   0.305   6.676  1.4518 -1.2389  0.2822
  130OSM    C7S13982   6.482   0.451   6.831 -0.2298  0.0405 -0.4310
  130OSM    H7S13983   6.374   0.473   6.843 -0.0772  1.5736 -1.4816
  130OSM    H7T13984   6.538   0.547   6.825 -0.6050  0.3140  0.3443
  130OSM    C8S13985   6.536   0.352   6.923  0.8344 -0.1479  0.8682
  130OSM    H8S13986   6.646   0.345   6.919  0.9089  0.8604  0.8971
  130OSM    H8T13987   6.494   0.250   6.912 -0.6073  0.1711  2.9055
  130OSM    C9S13988   6.510   0.407   7.064 -0.0509 -0.7895 -0.4251
  130OSM    H9S13989   6.401   0.413   7.085 -0.1586  1.0412 -1.3276
  130OSM    H9T13990   6.564   0.504   7.076 -0.6309 -0.7334  2.3722
  130OSM   C10S13991   6.549   0.320   7.177  0.5816  1.0575  0.3162
  130OSM   H10S13992   6.659   0.309   7.163  0.1886 -0.3601 -2.3610
  130OSM   H10T13993   6.511   0.216   7.177  2.8496  0.1474 -1.3835
  130OSM   C11S13994   6.510   0.406   7.298 -0.2896 -0.4442 -0.3641
  130OSM   H11S13995   6.409   0.452   7.304  0.1535  0.3845  3.9209
  130OSM   H11T13996   6.575   0.497   7.298  1.2318 -1.3713 -3.8370
  130OSM   C12S13997   6.525   0.337   7.436 -0.4934  0.3049  0.3017
  130OSM   H12S13998   6.636   0.329   7.440 -0.5482  0.1151  1.7757
  130OSM   H12T13999   6.488   0.233   7.423 -0.8139  0.7111 -2.7017
  130OSM   C13S14000   6.464   0.408   7.557 -0.3967 -0.1612  0.1688
  130OSM   H13S14001   6.353   0.415   7.549 -0.7263 -2.5516  1.5398
  130OSM   H13T14002   6.507   0.510   7.552 -0.4563 -0.1941 -2.8449
  130OSM   C14S14003   6.489   0.331   7.691  0.3357 -0.3118  0.3808
  130OSM   H14S14004   6.590   0.284   7.696  1.4279  1.8342 -0.3021
  130OSM   H14T14005   6.417   0.247   7.703  0.2505 -0.4321 -0.8254
  130OSM   C15S14006   6.473   0.428   7.810 -0.0317 -0.1387  0.8235
  130OSM   H15S14007   6.377   0.484   7.804 -0.0321 -0.2139  0.0063
  130OSM   H15T14008   6.551   0.506   7.819  0.6829 -0.2806 -2.8139
  130OSM   C16S14009   6.472   0.347   7.943 -0.2416  0.3941  0.1071
  130OSM   H16S14010   6.566   0.289   7.953 -0.4355  0.2211  1.0370
  130OSM   H16T14011   6.381   0.286   7.925 -0.0536  0.5920 -1.6425
  130OSM   C17S14012   6.457   0.437   8.069  0.1179  1.1731  0.0792
  130OSM   H17S14013   6.380   0.512   8.042  0.7512  1.8927  0.2334
  130OSM   H17T14014   6.548   0.501   8.076 -0.5542  2.2212 -0.4753
  130OSM   C18S14015   6.439   0.349   8.194  0.2450 -0.0400 -0.4030
  130OSM   H18S14016   6.439   0.401   8.292 -0.3227 -1.5066  0.4090
  130OSM   H18T14017   6.526   0.280   8.188 -0.8356 -1.3269 -2.1171
  130OSM   H18U14018   6.345   0.291   8.183  0.3751  0.0099 -1.9664
  130OSM    C1F14019   6.092   0.820   6.624 -0.8089 -0.2200 -0.0015
  130OSM     OF14020   6.010   0.774   6.544  0.4471  0.6842  0.1578
  130OSM    C2F14021   6.064   0.907   6.752  0.1157  0.2721  0.0666
  130OSM    H2F14022   6.122   1.000   6.732  0.7699  0.2723  1.7398
  130OSM    H2G14023   6.112   0.854   6.837 -0.8732  1.0939  1.1910
  130OSM    C3F14024   5.920   0.949   6.781 -0.5699  0.5196 -0.1713
  130OSM    H3F14025   5.855   0.861   6.760  0.7398 -0.5917  0.2938
  130OSM    H3G14026   5.885   1.027   6.710 -0.0582 -0.2665 -1.3093
  130OSM    C4F14027   5.908   0.990   6.927 -0.0610 -0.1337 -0.2860
  130OSM    H4F14028   5.935   0.900   6.986 -2.0659 -0.9310 -0.4945
  130OSM    H4G14029   5.799   1.004   6.945 -0.0662  0.7071 -0.9317
  130OSM    C5F14030   5.994   1.113   6.960  0.4027  0.2768 -0.0982
  130OSM    H5F14031   5.972   1.195   6.888 -0.0013  0.2350 -0.0236
  130OSM    H5G14032   6.100   1.084   6.941 -0.1183 -1.7387 -0.1791
  130OSM    C6F14033   5.963   1.158   7.101 -0.3870 -0.1659  0.6028
  130OSM    H6F14034   5.853   1.170   7.117 -0.5498  0.2209 -0.6553
  130OSM    H6G14035   6.017   1.254   7.104  0.3976 -0.2545 -3.8861
  130OSM    C7F14036   6.022   1.064   7.209  0.0972  0.3829  0.0784
  130OSM    H7F14037   6.132   1.057   7.192  0.3152  0.8179  1.1973
  130OSM    H7G14038   5.969   0.966   7.200 -0.7307  0.8531 -0.2343
  130OSM    C8F14039   5.997   1.107   7.349  0.7302 -0.2052 -0.3182
  130OSM    H8F14040   6.056   1.198   7.372  1.6472 -0.6283 -0.9794
  130OSM    H8G14041   6.024   1.026   7.420 -3.4537 -1.1848  0.4469
  130OSM    C9F14042   5.848   1.128   7.383 -0.0346  0.1762  0.0373
  130OSM    H9F14043   5.794   1.213   7.338 -0.7740 -0.2828  0.0530
  130OSM   C10F14044   5.781   1.059   7.477  0.3256  0.2377  0.1982
  130OSM   H10F14045   5.683   1.096   7.510 -1.1590 -2.1377 -1.3033
  130OSM   C11F14046   5.830   0.928   7.546  0.7676  0.6464  0.9571
  130OSM   H11F14047   5.921   0.879   7.506  1.6344 -0.8981  4.4591
  130OSM   H11G14048   5.748   0.855   7.560 -0.1475  1.6071  0.7528
  130OSM   C12F14049   5.846   0.960   7.696  0.2652  0.0010 -0.2594
  130OSM   H12F14050   5.757   1.002   7.749 -0.3378 -1.6222  0.0622
  130OSM   H12G14051   5.931   1.031   7.709  0.1514 -0.0649  0.9748
  130OSM   C13F14052   5.895   0.837   7.770 -0.3086  0.6290  0.4262
  130OSM   H13F14053   5.989   0.794   7.730 -1.1195 -0.5901 -0.2347
  130OSM   H13G14054   5.819   0.760   7.743 -0.6490  1.3414 -0.7177
  130OSM   C14F14055   5.901   0.852   7.924  0.3347  0.2743  0.0293
  130OSM   H14F14056   5.804   0.888   7.965  0.0201 -0.2761 -0.2352
  130OSM   H14G14057   5.972   0.932   7.956 -1.7268  1.2470  2.5181
  130OSM   C15F14058   5.949   0.717   7.986 -0.5053  0.1456  0.1204
  130OSM   H15F14059   6.021   0.677   7.911  1.4539  2.2031  0.7862
  130OSM   H15G14060   5.867   0.644   8.003 -0.7721  0.8414  2.0890
  130OSM   C16F14061   6.019   0.737   8.128  0.9636  0.2692 -0.1964
  130OSM   H16F14062   5.951   0.787   8.200  1.0459 -0.6957  0.5730
  130OSM   H16G14063   6.109   0.799   8.113  1.5533 -0.6222 -0.4136
  130OSM   C17F14064   6.064   0.605   8.192 -0.0519 -0.5152 -0.0490
  130OSM   H17F14065   6.110   0.533   8.120 -2.9442 -3.4623  0.7922
  130OSM   H17G14066   5.970   0.557   8.226 -0.6552  2.0267  2.1073
  130OSM   C18F14067   6.147   0.620   8.315 -0.4969 -0.5534 -0.2279
  130OSM   H18F14068   6.109   0.691   8.391  1.8792  0.0428  0.4826
  130OSM   H18G14069   6.252   0.647   8.293 -0.9117  1.6260  0.2139
  130OSM   H18H14070   6.145   0.518   8.360  1.9303  0.4451  2.4768
  131OSM      N14071   2.989   3.275   5.635 -0.4506 -0.2387 -0.0454
  131OSM    C1514072   3.065   3.248   5.507 -0.1914  0.5230 -0.3437
  131OSM   H15A14073   3.024   3.290   5.417  1.7405 -0.8372 -1.9654
  131OSM   H15B14074   3.073   3.140   5.500 -1.4734  0.2276  1.7396
  131OSM   H15C14075   3.169   3.276   5.511 -0.4367  1.6434 -1.1975
  131OSM    C1414076   2.854   3.223   5.609 -0.0325 -0.4788 -0.3784
  131OSM   H14A14077   2.845   3.117   5.627 -1.3950 -0.2019  0.7508
  131OSM   H14B14078   2.815   3.253   5.512  1.5497 -0.2699 -0.9880
  131OSM   H14C14079   2.785   3.267   5.679  0.5983  2.1788 -1.3211
  131OSM    C1314080   3.048   3.195   5.746  0.1994  0.7011  0.2700
  131OSM   H13A14081   3.150   3.229   5.756  0.0902  1.4680 -0.9733
  131OSM   H13B14082   3.052   3.088   5.731  3.2910  0.8390 -0.6895
  131OSM   H13C14083   2.993   3.217   5.836  1.1316  1.1646  0.7457
  131OSM    C1214084   3.002   3.422   5.663 -1.2240  0.4431  0.5503
  131OSM   H12A14085   2.962   3.477   5.579 -0.1434 -1.6900 -1.4777
  131OSM   H12B14086   3.106   3.444   5.682 -0.1797  0.3282 -3.9310
  131OSM    C1114087   2.925   3.471   5.784  0.1086  0.3222  0.1606
  131OSM   H11A14088   2.821   3.431   5.782  0.7377 -1.3603  0.2387
  131OSM   H11B14089   2.901   3.580   5.774 -2.3600 -0.2835 -1.7918
  131OSM      P14090   3.120   3.525   5.934 -0.0831  0.2667 -0.0869
  131OSM    O1314091   3.188   3.479   6.062  0.0162 -0.1806 -0.2046
  131OSM    O1414092   3.199   3.549   5.813  0.2564 -0.2157  0.7425
  131OSM    O1114093   3.059   3.667   5.961  0.2214 -0.4056 -0.0720
  131OSM    O1214094   3.001   3.438   5.901 -0.1903 -0.3561  0.0683
  131OSM    C1S14095   2.947   3.678   6.048  0.1544 -0.3125 -0.1136
  131OSM    H1S14096   2.873   3.595   6.046 -0.8718  0.5757 -1.8737
  131OSM    H1T14097   2.887   3.764   6.011  0.9935 -0.3405 -1.6409
  131OSM     NF14098   2.885   3.713   6.284  0.0303 -0.4290  0.6410
  131OSM    HNF14099   2.841   3.801   6.298  1.0982  0.0512  1.1191
  131OSM    C2S14100   2.999   3.726   6.193  0.5953  0.6189  0.8040
  131OSM    H2S14101   3.070   3.644   6.217  0.5170  0.0457 -0.7891
  131OSM    C3S14102   3.074   3.861   6.188  0.1554 -0.2808  0.5197
  131OSM    H3S14103   2.996   3.929   6.148  1.8410  1.5088  0.1904
  131OSM     O314104   3.191   3.862   6.106  0.2084  0.0346  0.1715
  131OSM    HO314105   3.175   3.805   6.030 -0.3241  1.0371 -0.5089
  131OSM    C4S14106   3.102   3.899   6.329  0.3829  0.1933  0.1586
  131OSM    H4S14107   3.041   3.980   6.372 -0.4708 -0.1883 -0.3121
  131OSM    C5S14108   3.195   3.855   6.417 -0.2058 -0.0632 -0.1000
  131OSM    H5S14109   3.264   3.783   6.369 -0.5307 -0.6047  0.2380
  131OSM    C6S14110   3.223   3.920   6.546 -0.0887 -0.2761  0.1762
  131OSM    H6S14111   3.218   4.030   6.532  4.2856  0.2075  1.0897
  131OSM    H6T14112   3.326   3.897   6.581 -0.1565 -1.0413 -0.1054
  131OSM    C7S14113   3.122   3.881   6.662 -0.4492 -0.1834  0.5218
  131OSM    H7S14114   3.109   3.772   6.677 -0.5027 -0.9578 -3.8159
  131OSM    H7T14115   3.017   3.905   6.634 -0.1360 -0.8784 -1.3788
  131OSM    C8S14116   3.150   3.945   6.798  0.0089  0.2991 -1.1262
  131OSM    H8S14117   3.163   4.054   6.778 -1.3683  0.0882 -3.6276
  131OSM    H8T14118   3.252   3.923   6.836 -1.0550  0.0070  1.8324
  131OSM    C9S14119   3.046   3.917   6.908  0.5821  0.2921 -0.3501
  131OSM    H9S14120   2.948   3.919   6.855  0.1375  3.2875  0.4070
  131OSM    H9T14121   3.055   4.002   6.978 -1.3148  2.9191 -3.0415
  131OSM   C10S14122   3.062   3.786   6.980 -1.1074 -0.5190  0.0962
  131OSM   H10S14123   3.168   3.772   7.010 -1.7416 -1.0285  2.2917
  131OSM   H10T14124   3.037   3.700   6.913 -0.4309 -2.7007  2.4724
  131OSM   C11S14125   2.984   3.767   7.116 -0.5429  0.2870  0.5722
  131OSM   H11S14126   2.884   3.726   7.089  0.0586  0.5596 -2.4831
  131OSM   H11T14127   2.959   3.867   7.157 -1.1046  0.3388  0.1273
  131OSM   C12S14128   3.045   3.683   7.226 -0.5424 -0.2892 -0.3715
  131OSM   H12S14129   3.146   3.723   7.252  0.2675 -2.5075  0.1043
  131OSM   H12T14130   3.042   3.578   7.190 -0.3314 -0.4617  0.1148
  131OSM   C13S14131   2.961   3.666   7.361 -0.3299  0.4359 -0.0302
  131OSM   H13S14132   2.933   3.772   7.379 -0.0395  0.4747  0.1925
  131OSM   H13T14133   3.015   3.626   7.450 -0.4196 -3.0755 -1.3757
  131OSM   C14S14134   2.827   3.580   7.342  0.6600 -0.5352 -0.7505
  131OSM   H14S14135   2.859   3.473   7.337  1.9076 -0.1799 -0.7517
  131OSM   H14T14136   2.773   3.611   7.250 -1.5417  0.4560  0.8004
  131OSM   C15S14137   2.725   3.615   7.455  0.2541 -0.4208 -0.2212
  131OSM   H15S14138   2.640   3.544   7.447  1.4164 -1.8496 -0.3030
  131OSM   H15T14139   2.683   3.715   7.429 -1.4845 -1.2727 -0.8666
  131OSM   C16S14140   2.777   3.612   7.601 -0.3884  0.2481 -0.4036
  131OSM   H16S14141   2.854   3.691   7.613 -1.6441  1.2081  1.9183
  131OSM   H16T14142   2.844   3.524   7.607  1.1269  1.2778 -1.3529
  131OSM   C17S14143   2.666   3.626   7.706 -0.4583 -0.1499  0.0995
  131OSM   H17S14144   2.573   3.594   7.654 -1.0622  0.3888  0.8364
  131OSM   H17T14145   2.655   3.735   7.724  1.3763  0.2753 -1.0452
  131OSM   C18S14146   2.689   3.543   7.832 -0.1361  0.6979 -0.0939
  131OSM   H18S14147   2.686   3.434   7.807 -0.3945  0.3554  1.3273
  131OSM   H18T14148   2.611   3.563   7.909  1.1393  2.2851  0.8563
  131OSM   H18U14149   2.784   3.579   7.878 -0.3895  0.7742  0.3756
  131OSM    C1F14150   2.826   3.599   6.313  0.5660 -0.0071 -0.0165
  131OSM     OF14151   2.868   3.490   6.276  0.2444  0.1878 -0.0412
  131OSM    C2F14152   2.699   3.611   6.398 -0.4896 -0.4724 -0.6467
  131OSM    H2F14153   2.647   3.513   6.396 -3.6878  1.0615  0.0834
  131OSM    H2G14154   2.626   3.681   6.351  0.4239  0.6625 -0.4211
  131OSM    C3F14155   2.729   3.674   6.532  0.6474  0.3994 -0.1088
  131OSM    H3F14156   2.635   3.698   6.586 -1.6317 -2.3480 -2.4863
  131OSM    H3G14157   2.788   3.768   6.520  2.2437 -0.6444 -0.7044
  131OSM    C4F14158   2.818   3.572   6.610 -0.4308 -0.6079  0.2309
  131OSM    H4F14159   2.925   3.601   6.601 -0.6636  0.3563  0.4578
  131OSM    H4G14160   2.808   3.471   6.565 -0.1383 -0.8317  0.6593
  131OSM    C5F14161   2.789   3.567   6.759 -0.2525 -0.5448 -0.0147
  131OSM    H5F14162   2.810   3.667   6.802  1.4007 -0.6784 -0.4495
  131OSM    H5G14163   2.857   3.492   6.805  1.4699  1.6180  1.1600
  131OSM    C6F14164   2.651   3.519   6.810 -0.3868 -0.1572  0.5049
  131OSM    H6F14165   2.633   3.429   6.748  1.4684  0.9877 -1.8859
  131OSM    H6G14166   2.566   3.587   6.789  0.7179  0.9807 -0.4399
  131OSM    C7F14167   2.663   3.481   6.959 -0.5906 -0.4338  0.0831
  131OSM    H7F14168   2.705   3.568   7.014  2.3387 -0.6902 -1.5711
  131OSM    H7G14169   2.744   3.405   6.958 -2.0953 -2.0914 -0.2913
  131OSM    C8F14170   2.533   3.437   7.020  0.6414 -0.0842  0.0511
  131OSM    H8F14171   2.501   3.347   6.963 -0.6359  1.2206 -1.3617
  131OSM    H8G14172   2.448   3.507   7.008  1.0084  0.3493 -0.0580
  131OSM    C9F14173   2.549   3.400   7.168 -0.3305  0.2269 -0.1251
  131OSM    H9F14174   2.559   3.490   7.230  1.9652  0.3478 -0.5973
  131OSM   C10F14175   2.552   3.279   7.229 -0.5352 -0.1698  0.2611
  131OSM   H10F14176   2.551   3.268   7.339 -1.0204 -1.4900  0.1322
  131OSM   C11F14177   2.543   3.148   7.163  0.2289  0.2956 -0.3645
  131OSM   H11F14178   2.525   3.149   7.054  3.0041 -0.7771 -0.9120
  131OSM   H11G14179   2.460   3.088   7.207 -2.3866  2.2284 -2.2668
  131OSM   C12F14180   2.665   3.053   7.173 -0.0913 -0.1900 -0.4919
  131OSM   H12F14181   2.637   2.957   7.124 -1.9358 -1.3008  2.4683
  131OSM   H12G14182   2.695   3.022   7.275  0.8536 -2.5133 -1.3804
  131OSM   C13F14183   2.790   3.110   7.105  0.1625  0.1289 -0.1434
  131OSM   H13F14184   2.882   3.059   7.141  1.3721  0.1776 -2.8701
  131OSM   H13G14185   2.810   3.213   7.140 -1.5145  0.2076  0.6852
  131OSM   C14F14186   2.784   3.111   6.949 -0.6741 -0.0648  0.1171
  131OSM   H14F14187   2.689   3.160   6.918 -0.1728  3.4849  3.4076
  131OSM   H14G14188   2.769   3.008   6.911 -1.9040  0.0529  0.2460
  131OSM   C15F14189   2.901   3.175   6.875 -0.7160  0.6535 -0.7190
  131OSM   H15F14190   2.996   3.125   6.905  0.1765  1.2948 -2.3443
  131OSM   H15G14191   2.930   3.280   6.901  0.7748 -0.4592  2.7056
  131OSM   C16F14192   2.882   3.174   6.720 -0.3461  0.2032 -0.3093
  131OSM   H16F14193   2.800   3.246   6.695 -1.7591 -0.6678  1.5706
  131OSM   H16G14194   2.848   3.071   6.696 -1.7172 -0.1175  2.5394
  131OSM   C17F14195   3.010   3.206   6.648 -0.2054  0.1701  0.4397
  131OSM   H17F14196   3.100   3.169   6.704  0.9722  1.0940 -0.7845
  131OSM   H17G14197   3.031   3.314   6.636  1.7567 -0.2090  0.0297
  131OSM   C18F14198   3.023   3.144   6.505 -0.4103 -0.2540 -0.0430
  131OSM   H18F14199   3.117   3.176   6.455  0.4766 -0.0043  1.6894
  131OSM   H18G14200   2.930   3.160   6.447  0.0019  0.4142 -0.5290
  131OSM   H18H14201   3.028   3.034   6.524  0.0210  0.0834  2.1368
  132OSM      N14202   4.839   5.086   5.651  0.2743 -0.8641  0.1277
  132OSM    C1514203   4.837   4.941   5.608 -0.5632 -0.0247 -0.6371
  132OSM   H15A14204   4.900   4.889   5.679  1.6241  0.3555 -2.2085
  132OSM   H15B14205   4.866   4.923   5.506 -1.4224 -2.3063 -0.5319
  132OSM   H15C14206   4.741   4.893   5.619 -0.7674  0.7812  1.6653
  132OSM    C1414207   4.977   5.154   5.655  0.3893  0.6351 -0.2664
  132OSM   H14A14208   5.017   5.172   5.556 -1.1835  0.4257 -0.9673
  132OSM   H14B14209   5.029   5.082   5.716 -2.0940 -2.6323 -1.6910
  132OSM   H14C14210   4.971   5.246   5.710 -2.2900  2.0350 -2.6551
  132OSM    C1314211   4.757   5.158   5.545 -0.2998  0.2011  0.2557
  132OSM   H13A14212   4.661   5.113   5.530  0.4592 -0.9568 -1.4206
  132OSM   H13B14213   4.805   5.141   5.449  0.7454 -0.3613  0.8586
  132OSM   H13C14214   4.752   5.262   5.575 -0.1744  0.0960  0.6409
  132OSM    C1214215   4.769   5.110   5.783 -0.1038 -0.2738 -0.5525
  132OSM   H12A14216   4.669   5.069   5.784 -0.0832 -0.3327  0.2007
  132OSM   H12B14217   4.747   5.215   5.794  0.1520 -0.3396  0.8556
  132OSM    C1114218   4.834   5.049   5.907 -0.3256  0.0572 -0.2848
  132OSM   H11A14219   4.778   5.088   5.995  1.0251 -0.4392  0.8270
  132OSM   H11B14220   4.941   5.075   5.920  0.1673 -2.1410  0.4287
  132OSM      P14221   4.703   4.834   5.962 -0.0048 -0.3637  0.2641
  132OSM    O1314222   4.585   4.895   5.899  0.2766 -0.4348 -0.1100
  132OSM    O1414223   4.721   4.685   5.955  0.2324  0.2474  0.0676
  132OSM    O1114224   4.714   4.872   6.113 -0.2332 -0.3440 -0.3173
  132OSM    O1214225   4.821   4.909   5.896  0.4795  0.7201  0.0517
  132OSM    C1S14226   4.840   4.840   6.185  0.7804 -0.8260  0.0853
  132OSM    H1S14227   4.923   4.902   6.146 -0.9829 -0.9535 -4.5782
  132OSM    H1T14228   4.861   4.731   6.173 -1.5904 -1.1916 -1.5012
  132OSM     NF14229   4.962   4.848   6.418  0.1118 -0.3518 -0.2663
  132OSM    HNF14230   4.967   4.776   6.486  0.5449  1.9379  2.3381
  132OSM    C2S14231   4.835   4.862   6.342  1.1815  0.0713 -0.2938
  132OSM    H2S14232   4.805   4.968   6.357 -0.6767 -0.2968 -1.1065
  132OSM    C3S14233   4.722   4.765   6.400 -0.6874  0.4506 -0.7688
  132OSM    H3S14234   4.766   4.663   6.397  1.3162  1.2485 -0.1867
  132OSM     O314235   4.606   4.741   6.326  0.4645  0.1572  0.6891
  132OSM    HO314236   4.613   4.780   6.238 -1.1845 -1.9974 -0.4937
  132OSM    C4S14237   4.686   4.802   6.540  0.0138 -0.1951  0.1454
  132OSM    H4S14238   4.629   4.895   6.558 -1.8051 -0.5838 -2.8563
  132OSM    C5S14239   4.717   4.723   6.644  0.1735 -0.1868  0.4138
  132OSM    H5S14240   4.771   4.629   6.626  0.7612  0.6840 -3.2965
  132OSM    C6S14241   4.676   4.765   6.784  0.3813  0.6272 -0.2326
  132OSM    H6S14242   4.580   4.712   6.803  0.0527  1.0896 -0.5595
  132OSM    H6T14243   4.657   4.874   6.792  0.1919  0.7677 -2.0552
  132OSM    C7S14244   4.781   4.717   6.880 -0.7066 -0.1916  0.1844
  132OSM    H7S14245   4.886   4.749   6.860  0.5112 -2.2217  2.7350
  132OSM    H7T14246   4.779   4.607   6.891 -0.1923 -0.2027  0.1787
  132OSM    C8S14247   4.746   4.764   7.023  0.5173  0.4292  0.0595
  132OSM    H8S14248   4.649   4.719   7.053  0.0088  0.0324 -1.9881
  132OSM    H8T14249   4.731   4.874   7.013  1.5957  0.7086  1.3086
  132OSM    C9S14250   4.850   4.738   7.129 -0.5469  0.0785  0.2382
  132OSM    H9S14251   4.821   4.805   7.213 -0.2565 -1.2303  1.4214
  132OSM    H9T14252   4.948   4.770   7.088 -0.9010  0.8895  0.0084
  132OSM   C10S14253   4.855   4.599   7.188 -0.3809 -0.0945 -0.1766
  132OSM   H10S14254   4.908   4.527   7.122  0.4019 -1.0416  1.4224
  132OSM   H10T14255   4.753   4.560   7.209 -1.5204  1.7330 -1.8748
  132OSM   C11S14256   4.952   4.597   7.303 -0.4661  0.2696  0.0972
  132OSM   H11S14257   4.906   4.633   7.397  2.0367  1.1478  1.0727
  132OSM   H11T14258   5.040   4.663   7.287 -0.4022  0.0044 -0.7292
  132OSM   C12S14259   5.001   4.452   7.329 -0.7712 -0.2306 -1.0390
  132OSM   H12S14260   5.054   4.416   7.238  0.2254 -1.5695  0.0268
  132OSM   H12T14261   4.924   4.380   7.362 -1.6939  1.0656 -0.2784
  132OSM   C13S14262   5.107   4.461   7.440  0.2154 -0.2691 -0.5017
  132OSM   H13S14263   5.071   4.554   7.489 -1.4163 -0.1193 -1.8866
  132OSM   H13T14264   5.207   4.466   7.391  0.2476  0.0029 -0.4096
  132OSM   C14S14265   5.113   4.339   7.538 -0.2546  0.0775  0.0304
  132OSM   H14S14266   5.088   4.250   7.476 -2.7436  1.2042 -0.7220
  132OSM   H14T14267   5.031   4.347   7.614  1.8981 -0.9198  2.6183
  132OSM   C15S14268   5.256   4.329   7.608  0.6630  0.0302 -0.3032
  132OSM   H15S14269   5.294   4.418   7.663  3.5551  0.9908 -3.5411
  132OSM   H15T14270   5.341   4.308   7.539 -0.0116 -1.2938 -0.7640
  132OSM   C16S14271   5.256   4.208   7.712 -0.6932 -0.2856  0.0598
  132OSM   H16S14272   5.338   4.137   7.689 -1.1800 -0.2499 -2.0394
  132OSM   H16T14273   5.165   4.151   7.684 -0.7039 -0.7768  1.0640
  132OSM   C17S14274   5.265   4.255   7.853 -0.1781 -0.2563 -0.8333
  132OSM   H17S14275   5.173   4.313   7.877 -0.5546 -1.2331  0.2019
  132OSM   H17T14276   5.346   4.330   7.866 -1.3971  1.1686 -1.2104
  132OSM   C18S14277   5.267   4.138   7.955  0.1645 -0.4774  0.2002
  132OSM   H18S14278   5.350   4.068   7.929  0.4522  0.4667 -1.5372
  132OSM   H18T14279   5.175   4.077   7.946 -0.9994  0.9652  1.8845
  132OSM   H18U14280   5.290   4.169   8.059 -1.4642  1.8785 -0.0924
  132OSM    C1F14281   5.060   4.937   6.419 -0.5170 -0.3660 -0.1415
  132OSM     OF14282   5.048   5.041   6.350 -0.6529 -0.2517 -0.0833
  132OSM    C2F14283   5.188   4.898   6.492 -0.1551  0.3749  0.0474
  132OSM    H2F14284   5.274   4.905   6.422 -0.2540 -2.8495 -0.5710
  132OSM    H2G14285   5.189   4.791   6.523 -1.7815 -0.1663 -1.6480
  132OSM    C3F14286   5.219   4.992   6.608  0.0535  0.0853 -0.0713
  132OSM    H3F14287   5.207   5.094   6.565 -2.5704 -0.4745 -0.8787
  132OSM    H3G14288   5.323   4.973   6.642  0.7392  2.2874 -0.7649
  132OSM    C4F14289   5.131   4.974   6.719  0.0036 -1.2490 -1.0941
  132OSM    H4F14290   5.142   4.875   6.769  2.1281 -1.4761 -1.9002
  132OSM    H4G14291   5.023   4.998   6.707 -0.1394 -0.8404  0.6488
  132OSM    C5F14292   5.177   5.064   6.837  0.2270 -0.3180  0.4184
  132OSM    H5F14293   5.146   5.163   6.798  0.4376 -1.2555 -2.3462
  132OSM    H5G14294   5.285   5.052   6.859 -0.1790 -1.7104  1.8478
  132OSM    C6F14295   5.086   5.039   6.966 -0.2448  0.1583 -0.3203
  132OSM    H6F14296   5.080   4.933   6.998 -0.8616  0.6965  1.4763
  132OSM    H6G14297   4.979   5.057   6.944 -1.1440 -4.1703 -0.3696
  132OSM    C7F14298   5.134   5.123   7.085  0.0121  0.7785 -0.2949
  132OSM    H7F14299   5.124   5.227   7.049 -3.6379 -0.0385 -2.1040
  132OSM    H7G14300   5.243   5.099   7.087 -0.4260 -1.4608 -0.4325
  132OSM    C8F14301   5.043   5.109   7.202 -0.1340 -0.0303 -0.5080
  132OSM    H8F14302   5.048   4.999   7.215  1.7508  0.0776  0.0267
  132OSM    H8G14303   4.943   5.140   7.164  0.0271  0.3248 -0.6447
  132OSM    C9F14304   5.099   5.187   7.325  0.1947  0.4472 -0.0686
  132OSM    H9F14305   5.073   5.293   7.313  2.0217  0.7212 -2.5916
  132OSM   C10F14306   5.184   5.150   7.425 -0.1909 -0.6202 -0.2937
  132OSM   H10F14307   5.238   5.219   7.492 -0.7874  0.1405 -0.5788
  132OSM   C11F14308   5.241   5.012   7.444  0.2549  0.5325 -0.0380
  132OSM   H11F14309   5.350   5.008   7.465  0.4454 -1.2636 -1.1538
  132OSM   H11G14310   5.229   4.950   7.352  0.8788  0.7708 -0.2862
  132OSM   C12F14311   5.172   4.945   7.561 -0.2936 -0.1144  0.6623
  132OSM   H12F14312   5.063   4.934   7.542 -0.3726 -1.1276  1.6377
  132OSM   H12G14313   5.189   4.997   7.657 -0.6930  0.7695  0.2708
  132OSM   C13F14314   5.227   4.798   7.588  0.7759  0.6919 -0.1165
  132OSM   H13F14315   5.336   4.795   7.607  0.6279  0.1624  0.7074
  132OSM   H13G14316   5.201   4.748   7.492 -0.8773  0.1928  0.5587
  132OSM   C14F14317   5.158   4.727   7.709 -1.0228  1.0445 -0.3030
  132OSM   H14F14318   5.189   4.621   7.720  0.9695  1.7354  1.3876
  132OSM   H14G14319   5.047   4.729   7.703 -1.0740 -0.7604 -0.3386
  132OSM   C15F14320   5.197   4.780   7.840  0.5866  0.0177 -0.1911
  132OSM   H15F14321   5.182   4.890   7.842 -1.3557 -0.2152  1.0107
  132OSM   H15G14322   5.304   4.769   7.864  0.8261  0.0016 -1.2120
  132OSM   C16F14323   5.120   4.718   7.958  0.5340  0.5911 -0.2270
  132OSM   H16F14324   5.013   4.735   7.934  0.8657  1.8562 -0.8921
  132OSM   H16G14325   5.139   4.769   8.055  1.5484 -0.0964 -0.0459
  132OSM   C17F14326   5.132   4.564   7.982 -0.1910 -0.4156 -0.5213
  132OSM   H17F14327   5.239   4.532   7.981  0.4236  1.3106  1.8345
  132OSM   H17G14328   5.080   4.512   7.899 -0.5691 -1.4553  0.3392
  132OSM   C18F14329   5.065   4.524   8.115  0.2839  0.2249 -0.2108
  132OSM   H18F14330   5.127   4.556   8.202  2.0672 -0.4899 -1.1896
  132OSM   H18G14331   5.069   4.415   8.133  1.2352  0.0030 -1.6552
  132OSM   H18H14332   4.959   4.560   8.114  0.4763  0.8672  0.4940
  133OSM      N14333   5.348   3.455   6.062 -0.5388  0.2468 -0.0459
  133OSM    C1514334   5.363   3.466   6.215 -0.1970 -0.2670 -0.3864
  133OSM   H15A14335   5.431   3.546   6.237  0.3535 -1.1819  1.4717
  133OSM   H15B14336   5.401   3.380   6.268  2.6868  1.5113  0.5862
  133OSM   H15C14337   5.271   3.495   6.263 -1.4510 -1.2069 -2.0897
  133OSM    C1414338   5.339   3.589   5.996 -0.3357  0.6104  0.1495
  133OSM   H14A14339   5.243   3.634   6.017 -0.2715  0.9286 -0.2237
  133OSM   H14B14340   5.345   3.577   5.889  2.9765  0.7206  0.2276
  133OSM   H14C14341   5.411   3.661   6.031  0.5584 -0.5511  0.7527
  133OSM    C1314342   5.471   3.387   6.020  0.6171  0.1806 -0.2805
  133OSM   H13A14343   5.485   3.295   6.075  0.2405  0.3629  0.1316
  133OSM   H13B14344   5.559   3.448   6.028  1.1697 -0.5247 -0.8887
  133OSM   H13C14345   5.460   3.362   5.915 -3.6193  1.5743 -0.3946
  133OSM    C1214346   5.226   3.367   6.034  0.5106 -0.2261 -0.4701
  133OSM   H12A14347   5.208   3.357   5.928 -1.6882  0.6476 -0.2291
  133OSM   H12B14348   5.136   3.419   6.063  0.0218  0.9263 -3.6484
  133OSM    C1114349   5.235   3.223   6.086 -0.4838 -0.3456 -0.5713
  133OSM   H11A14350   5.144   3.165   6.059  1.0376 -2.9601 -0.4103
  133OSM   H11B14351   5.231   3.229   6.196 -1.2966  0.9900 -0.6489
  133OSM      P14352   5.337   3.006   5.989  0.1656 -0.2554  0.1037
  133OSM    O1314353   5.254   3.036   5.866 -0.4899 -0.1415  0.3752
  133OSM    O1414354   5.473   2.954   5.962 -0.1965 -0.3069 -0.2829
  133OSM    O1114355   5.254   2.908   6.071  0.3017  0.5189 -0.7669
  133OSM    O1214356   5.354   3.144   6.066  0.3975  0.0795 -0.1957
  133OSM    C1S14357   5.301   2.841   6.191 -0.2707  0.1863  0.1486
  133OSM    H1S14358   5.404   2.799   6.188 -1.4180 -2.8920 -0.0157
  133OSM    H1T14359   5.246   2.745   6.188 -0.0336  0.0763 -1.3923
  133OSM     NF14360   5.326   2.862   6.438 -0.4269  0.2758 -0.5828
  133OSM    HNF14361   5.282   2.787   6.487 -1.3867  1.4374  0.3948
  133OSM    C2S14362   5.256   2.910   6.320 -0.3903 -0.4563 -0.4214
  133OSM    H2S14363   5.271   3.020   6.311 -1.7517 -0.2008  0.1536
  133OSM    C3S14364   5.096   2.907   6.332 -0.1939 -0.7205 -0.0848
  133OSM    H3S14365   5.059   2.803   6.317  1.9307 -1.6537  0.7581
  133OSM     O314366   5.033   2.978   6.223 -0.3603 -0.1868 -0.6945
  133OSM    HO314367   5.099   2.981   6.152  0.5194  1.1229  0.1227
  133OSM    C4S14368   5.046   2.966   6.454 -0.1436  0.1089  0.5598
  133OSM    H4S14369   5.071   3.073   6.455  3.3458 -0.4975 -1.9115
  133OSM    C5S14370   4.966   2.911   6.546 -0.0040  0.4359 -0.3008
  133OSM    H5S14371   4.943   2.804   6.530 -1.5594  0.8487 -0.9390
  133OSM    C6S14372   4.907   2.972   6.672  0.4916 -0.2743 -0.1455
  133OSM    H6S14373   4.800   2.945   6.686  0.6385 -0.6688  0.2570
  133OSM    H6T14374   4.917   3.083   6.674 -1.1102 -0.0884 -0.6588
  133OSM    C7S14375   4.989   2.937   6.796  0.6075  0.1467  0.0835
  133OSM    H7S14376   5.095   2.964   6.774  1.2803 -1.0402  1.6613
  133OSM    H7T14377   4.978   2.828   6.811  1.8950 -0.0665 -0.4186
  133OSM    C8S14378   4.954   2.997   6.935 -0.2651  0.4284  0.1492
  133OSM    H8S14379   4.845   2.983   6.949 -0.4784  2.4229  0.7863
  133OSM    H8T14380   4.955   3.107   6.923  0.4968  0.7143  2.3111
  133OSM    C9S14381   5.038   2.945   7.044 -0.0334  0.3361 -0.4642
  133OSM    H9S14382   5.140   2.983   7.021 -0.9382  2.2378 -1.6589
  133OSM    H9T14383   5.038   2.834   7.045  0.9438  0.3026  1.8114
  133OSM   C10S14384   4.998   2.995   7.184 -0.3363  0.3974 -0.0928
  133OSM   H10S14385   4.897   2.962   7.216 -0.5845  1.8412  0.6881
  133OSM   H10T14386   5.010   3.105   7.180  1.7714  0.2478  0.7680
  133OSM   C11S14387   5.094   2.944   7.293  0.5832  0.1587 -0.4186
  133OSM   H11S14388   5.198   2.971   7.266  0.4161  1.3950  0.1274
  133OSM   H11T14389   5.072   2.835   7.303 -2.3998  0.4236 -2.6295
  133OSM   C12S14390   5.067   3.011   7.429  0.0175  0.3631  0.7719
  133OSM   H12S14391   4.957   3.024   7.443 -0.1849 -0.2923 -0.0705
  133OSM   H12T14392   5.115   3.111   7.424  1.4888 -0.3630 -0.5136
  133OSM   C13S14393   5.109   2.927   7.549  0.1738  0.6007  0.0772
  133OSM   H13S14394   5.218   2.908   7.547 -0.1693 -1.7467  0.4905
  133OSM   H13T14395   5.073   2.824   7.528  1.8448  0.0127 -0.0726
  133OSM   C14S14396   5.051   2.969   7.692 -0.0838 -0.4302  0.8137
  133OSM   H14S14397   5.088   2.888   7.758 -0.4192 -2.7707 -1.6831
  133OSM   H14T14398   4.940   2.972   7.680  0.1638 -0.9149 -2.8551
  133OSM   C15S14399   5.089   3.109   7.735 -0.0871 -0.3383 -0.1854
  133OSM   H15S14400   5.009   3.140   7.805 -1.3636 -0.7534 -1.4162
  133OSM   H15T14401   5.105   3.183   7.653  2.6606  0.0577  0.5988
  133OSM   C16S14402   5.223   3.103   7.802  0.1081  0.2724  0.6621
  133OSM   H16S14403   5.293   3.073   7.721 -0.2179  0.7984  0.1799
  133OSM   H16T14404   5.226   3.022   7.878  1.2803  0.3573  0.7194
  133OSM   C17S14405   5.263   3.230   7.872  0.0107 -0.3229  0.7555
  133OSM   H17S14406   5.321   3.193   7.960  0.0426 -1.0522  0.4361
  133OSM   H17T14407   5.171   3.274   7.916 -0.1778  1.4120 -1.2549
  133OSM   C18S14408   5.347   3.333   7.796  0.1056 -0.3799 -1.1911
  133OSM   H18S14409   5.449   3.292   7.786  0.5684 -0.0160  1.3970
  133OSM   H18T14410   5.348   3.423   7.860  1.2861 -1.0296 -0.2710
  133OSM   H18U14411   5.293   3.351   7.700 -2.2950  0.7186  0.2690
  133OSM    C1F14412   5.454   2.890   6.469 -0.1738 -0.8252 -0.3119
  133OSM     OF14413   5.523   2.968   6.404  0.0159  0.4036  0.2494
  133OSM    C2F14414   5.507   2.822   6.590 -0.7137 -1.1017 -0.3687
  133OSM    H2F14415   5.616   2.844   6.587 -0.4945 -2.1246 -0.4575
  133OSM    H2G14416   5.498   2.712   6.580 -1.9584 -0.8632 -2.2509
  133OSM    C3F14417   5.450   2.873   6.723 -0.5686  0.3555  0.4245
  133OSM    H3F14418   5.341   2.891   6.729 -0.4198  0.8290  2.4919
  133OSM    H3G14419   5.497   2.974   6.734 -0.7157  0.1714  3.8368
  133OSM    C4F14420   5.495   2.785   6.841 -0.0312 -0.2677  0.2699
  133OSM    H4F14421   5.603   2.761   6.836 -0.2304 -1.2872  0.6110
  133OSM    H4G14422   5.434   2.693   6.849 -0.7018  0.1120 -0.2790
  133OSM    C5F14423   5.457   2.855   6.974 -0.2729 -0.1688  0.0243
  133OSM    H5F14424   5.347   2.870   6.972 -0.5844 -2.2140 -0.7088
  133OSM    H5G14425   5.511   2.952   6.978  0.0150 -0.3604  0.9909
  133OSM    C6F14426   5.496   2.774   7.094  0.4421  0.0058 -0.3988
  133OSM    H6F14427   5.456   2.670   7.098  1.3872 -0.3277  0.8868
  133OSM    H6G14428   5.464   2.827   7.186  1.2378  1.9269 -1.1783
  133OSM    C7F14429   5.650   2.754   7.110  0.4942 -0.1315 -0.2811
  133OSM    H7F14430   5.699   2.850   7.086 -0.7555 -0.3937 -4.6661
  133OSM    H7G14431   5.682   2.688   7.027  1.0965 -0.8233  0.4748
  133OSM    C8F14432   5.688   2.704   7.254  0.6037  0.5850 -0.5676
  133OSM    H8F14433   5.647   2.602   7.266  0.8496  0.4254 -1.0879
  133OSM    H8G14434   5.621   2.758   7.325 -0.7085 -1.1985 -0.4038
  133OSM    C9F14435   5.831   2.714   7.288  0.1214 -0.2013  0.0724
  133OSM    H9F14436   5.896   2.654   7.223 -1.2183 -1.9327  0.2765
  133OSM   C10F14437   5.883   2.798   7.385  0.1430  0.7429 -0.4240
  133OSM   H10F14438   5.992   2.800   7.402  0.2965 -1.6611 -0.7283
  133OSM   C11F14439   5.808   2.907   7.458 -0.2696  0.1720 -0.6065
  133OSM   H11F14440   5.725   2.952   7.401 -0.5585 -1.5325 -1.6142
  133OSM   H11G14441   5.869   3.000   7.457 -1.6258  1.0917 -1.7172
  133OSM   C12F14442   5.759   2.869   7.606 -0.5374 -0.2762  0.2013
  133OSM   H12F14443   5.701   2.777   7.584  0.3734 -0.5048 -1.3687
  133OSM   H12G14444   5.690   2.953   7.627 -0.0938  0.6000 -1.6897
  133OSM   C13F14445   5.876   2.828   7.699 -0.3399 -0.2062  0.8805
  133OSM   H13F14446   5.941   2.917   7.699  0.0816 -0.4838 -1.0788
  133OSM   H13G14447   5.933   2.740   7.660 -0.3027  0.1142  0.2004
  133OSM   C14F14448   5.820   2.808   7.843 -0.1268  0.9452 -0.0228
  133OSM   H14F14449   5.780   2.705   7.834  0.7334  0.6381 -0.4583
  133OSM   H14G14450   5.739   2.883   7.851  0.6378  1.6694  1.1973
  133OSM   C15F14451   5.917   2.812   7.962 -0.3595  0.9567  0.3553
  133OSM   H15F14452   5.982   2.902   7.955  2.5133 -1.0588 -1.0158
  133OSM   H15G14453   5.985   2.725   7.956 -0.7754  0.4822  1.9507
  133OSM   C16F14454   5.850   2.822   8.094  0.0116  0.3420 -0.6640
  133OSM   H16F14455   5.796   2.727   8.116 -1.6631  1.3352 -0.2884
  133OSM   H16G14456   5.774   2.904   8.096 -1.9246 -1.3761  0.0628
  133OSM   C17F14457   5.955   2.850   8.209 -0.3421 -0.2838  0.3572
  133OSM   H17F14458   5.996   2.952   8.195  0.2547 -0.8592 -2.8890
  133OSM   H17G14459   6.042   2.785   8.186  0.4798  1.0384 -0.4113
  133OSM   C18F14460   5.896   2.819   8.342  0.1523  0.2843  0.0656
  133OSM   H18F14461   5.965   2.848   8.425 -0.6117  1.2444  0.3929
  133OSM   H18G14462   5.898   2.709   8.352 -0.8754 -0.1342 -3.1486
  133OSM   H18H14463   5.791   2.854   8.353 -0.1999 -1.2492  2.1088
  134OSM      N14464   6.678   0.294   5.773 -0.0929 -0.1079  0.3194
  134OSM    C1514465   6.664   0.146   5.739  0.5145  0.5999  0.5019
  134OSM   H15A14466   6.572   0.111   5.781  0.2518  3.3418  2.4756
  134OSM   H15B14467   6.741   0.076   5.768 -1.6335 -2.4876 -0.7506
  134OSM   H15C14468   6.640   0.141   5.634 -2.2705  0.1782  1.0802
  134OSM    C1414469   6.793   0.358   5.704 -1.0471  0.4474  0.2030
  134OSM   H14A14470   6.767   0.380   5.602 -0.9596  1.0771  0.3120
  134OSM   H14B14471   6.877   0.291   5.689 -1.4131  0.3451 -1.6714
  134OSM   H14C14472   6.840   0.441   5.754  2.2425 -0.2073 -1.4986
  134OSM    C1314473   6.563   0.362   5.718  0.0625  0.2983  0.3218
  134OSM   H13A14474   6.462   0.344   5.753 -0.3669  3.6271  1.1614
  134OSM   H13B14475   6.558   0.342   5.612  0.9808 -1.1784  0.5313
  134OSM   H13C14476   6.572   0.470   5.724  0.6578  0.3454 -1.1068
  134OSM    C1214477   6.690   0.310   5.925 -0.0398 -0.0103 -0.2694
  134OSM   H12A14478   6.601   0.272   5.973  0.2443 -0.1407  0.1615
  134OSM   H12B14479   6.692   0.415   5.953 -0.5676  0.0148 -0.3157
  134OSM    C1114480   6.807   0.240   5.994  0.0162 -0.5456 -0.1091
  134OSM   H11A14481   6.800   0.131   5.975  0.4341 -0.3688 -1.3760
  134OSM   H11B14482   6.799   0.249   6.104  0.1122 -1.2069 -0.0453
  134OSM      P14483   7.012   0.397   5.996  0.0479 -0.2571  0.1454
  134OSM    O1314484   7.134   0.414   5.919 -0.5442 -0.1653 -0.7013
  134OSM    O1414485   6.924   0.516   5.992  0.0175  0.4277 -0.3347
  134OSM    O1114486   7.049   0.352   6.142 -0.2248 -0.0909 -0.4144
  134OSM    O1214487   6.932   0.277   5.944  0.3570 -0.3504 -0.3384
  134OSM    C1S14488   7.120   0.232   6.154 -0.7425  0.3787  0.9534
  134OSM    H1S14489   7.216   0.223   6.099 -1.8697 -0.7395 -0.9170
  134OSM    H1T14490   7.064   0.142   6.123  0.1484  0.3402 -0.6602
  134OSM     NF14491   7.268   0.112   6.308  0.0293 -0.1980  0.9078
  134OSM    HNF14492   7.242   0.027   6.353  2.9154 -0.9983  1.2680
  134OSM    C2S14493   7.162   0.218   6.302 -0.2841  0.8769 -0.1700
  134OSM    H2S14494   7.226   0.306   6.327  0.8499 -0.3490  1.4868
  134OSM    C3S14495   7.047   0.205   6.397 -0.2910 -0.2319 -0.4013
  134OSM    H3S14496   6.988   0.112   6.383 -0.9753 -0.0954  1.3366
  134OSM     O314497   6.947   0.302   6.374  0.2094 -0.2811  0.2655
  134OSM    HO314498   6.980   0.345   6.295 -0.2489 -3.3191 -1.7403
  134OSM    C4S14499   7.110   0.204   6.537  0.8364 -0.6132 -0.9875
  134OSM    H4S14500   7.133   0.102   6.572  1.5847  0.0658  0.6259
  134OSM    C5S14501   7.125   0.302   6.627  0.2304  0.5950  0.0177
  134OSM    H5S14502   7.102   0.406   6.600  0.1577  0.6680  0.3605
  134OSM    C6S14503   7.206   0.288   6.750  0.0641  0.3568  0.2591
  134OSM    H6S14504   7.194   0.375   6.818 -0.1897  1.0277 -0.6274
  134OSM    H6T14505   7.314   0.273   6.730 -0.4992 -0.8565 -2.3299
  134OSM    C7S14506   7.164   0.161   6.822  0.1436 -0.0449 -0.0650
  134OSM    H7S14507   7.177   0.066   6.767 -1.0653 -1.7444  2.3782
  134OSM    H7T14508   7.062   0.171   6.864  0.0479  1.5333 -0.6279
  134OSM    C8S14509   7.228   0.147   6.963 -1.0336  0.4717 -0.0777
  134OSM    H8S14510   7.330   0.106   6.944 -0.6465  0.6837  1.3620
  134OSM    H8T14511   7.174   0.064   7.013  1.0924 -0.9010  0.0602
  134OSM    C9S14512   7.250   0.271   7.051 -0.2574 -0.2948 -0.0560
  134OSM    H9S14513   7.154   0.327   7.051 -0.1143 -0.0115  1.5086
  134OSM    H9T14514   7.325   0.337   7.003 -1.9964 -0.2573 -2.9319
  134OSM   C10S14515   7.288   0.240   7.192  0.8617  0.8243 -0.4217
  134OSM   H10S14516   7.336   0.332   7.232 -1.1522  1.7927 -0.1207
  134OSM   H10T14517   7.355   0.152   7.178 -0.8867 -0.1435 -4.0465
  134OSM   C11S14518   7.171   0.192   7.281 -0.3864  0.1700 -0.3447
  134OSM   H11S14519   7.099   0.134   7.219 -0.5742 -1.3366  1.2257
  134OSM   H11T14520   7.108   0.277   7.316  0.6168  0.1815  1.5355
  134OSM   C12S14521   7.211   0.099   7.395  0.2215  0.1970 -0.4436
  134OSM   H12S14522   7.282   0.037   7.336 -0.4858  0.8330 -2.0259
  134OSM   H12T14523   7.135   0.026   7.428  0.5551 -0.1472 -0.4210
  134OSM   C13S14524   7.298   0.146   7.513 -0.8729 -1.1639 -0.4498
  134OSM   H13S14525   7.364   0.229   7.480 -0.5521  0.6845  4.1121
  134OSM   H13T14526   7.363   0.060   7.539 -0.2423 -0.9755 -1.3851
  134OSM   C14S14527   7.200   0.215   7.614  0.6319 -0.1410  0.6708
  134OSM   H14S14528   7.121   0.145   7.647  0.0270  0.1663 -0.0846
  134OSM   H14T14529   7.144   0.299   7.568 -1.8794 -1.1394  1.7525
  134OSM   C15S14530   7.280   0.280   7.724  0.1108 -0.4930 -0.4349
  134OSM   H15S14531   7.204   0.350   7.766  1.1228  0.0774  0.5051
  134OSM   H15T14532   7.361   0.339   7.676 -0.2197 -0.0387 -0.4390
  134OSM   C16S14533   7.320   0.194   7.840 -0.6836 -0.3185 -0.3739
  134OSM   H16S14534   7.419   0.148   7.820 -1.4111 -0.7218 -3.6754
  134OSM   H16T14535   7.239   0.121   7.862 -1.2108  0.7436  1.4326
  134OSM   C17S14536   7.347   0.273   7.973 -0.2795 -0.0202  0.6018
  134OSM   H17S14537   7.267   0.350   7.987 -0.6559 -0.2693 -0.1410
  134OSM   H17T14538   7.430   0.345   7.957 -0.5851  1.0439  3.2094
  134OSM   C18S14539   7.371   0.186   8.097  0.4875  0.3630 -0.1505
  134OSM   H18S14540   7.452   0.112   8.080  0.8179  0.4312  1.0194
  134OSM   H18T14541   7.277   0.131   8.120  0.4176  0.0338 -1.1876
  134OSM   H18U14542   7.403   0.251   8.181 -0.1859 -0.9700  1.1810
  134OSM    C1F14543   7.391   0.117   6.254 -0.6168  0.0517 -0.2621
  134OSM     OF14544   7.440   0.218   6.206  0.3216 -0.1568  0.3728
  134OSM    C2F14545   7.471  -0.012   6.258 -0.1311 -0.2975  0.1437
  134OSM    H2F14546   7.553  -0.001   6.184 -0.4690  0.8704 -0.0748
  134OSM    H2G14547   7.410  -0.101   6.232 -0.0889 -0.3931  0.3676
  134OSM    C3F14548   7.540  -0.015   6.398  0.0338  0.1563 -0.8713
  134OSM    H3F14549   7.576   0.086   6.428 -1.6202 -0.0878  2.4228
  134OSM    H3G14550   7.632  -0.076   6.394  0.7140  0.8196  2.1542
  134OSM    C4F14551   7.445  -0.070   6.508  0.5194 -0.1116 -0.5389
  134OSM    H4F14552   7.412  -0.171   6.474 -0.0923  0.2323 -0.9721
  134OSM    H4G14553   7.348  -0.017   6.515  0.9739  0.5632  0.7664
  134OSM    C5F14554   7.505  -0.082   6.647  0.2087 -0.3266 -0.0849
  134OSM    H5F14555   7.494   0.017   6.697 -2.6714 -0.3187 -0.5675
  134OSM    H5G14556   7.610  -0.117   6.643 -0.1459 -1.7415  1.4881
  134OSM    C6F14557   7.425  -0.181   6.732 -0.0871  0.5904 -0.0907
  134OSM    H6F14558   7.399  -0.273   6.674  1.3359 -0.1049  0.3131
  134OSM    H6G14559   7.332  -0.142   6.779 -0.9219  0.3396 -1.4663
  134OSM    C7F14560   7.515  -0.236   6.848  0.1037 -0.4463 -0.1218
  134OSM    H7F14561   7.607  -0.276   6.801 -0.5854 -0.5896 -1.3901
  134OSM    H7G14562   7.453  -0.312   6.901 -0.1416 -1.4512 -1.7890
  134OSM    C8F14563   7.553  -0.136   6.964 -0.3854 -0.2756 -0.2282
  134OSM    H8F14564   7.459  -0.105   7.014 -0.0297  0.4668 -0.0091
  134OSM    H8G14565   7.596  -0.044   6.919 -0.6637  1.5236  2.9031
  134OSM    C9F14566   7.654  -0.184   7.061  0.1329 -0.4977  0.0704
  134OSM    H9F14567   7.750  -0.210   7.012 -0.7284 -1.1951 -1.3261
  134OSM   C10F14568   7.649  -0.200   7.195  0.6114 -0.5124 -0.7025
  134OSM   H10F14569   7.740  -0.240   7.242  0.2162  1.6930  2.2296
  134OSM   C11F14570   7.531  -0.173   7.283  0.0654  0.9229 -0.1639
  134OSM   H11F14571   7.456  -0.255   7.282  0.9743  0.0522  0.5867
  134OSM   H11G14572   7.482  -0.088   7.231 -1.5599 -1.3630 -2.6670
  134OSM   C12F14573   7.555  -0.130   7.430 -0.5956 -0.6315 -0.1020
  134OSM   H12F14574   7.456  -0.115   7.479  0.6612  0.7609  2.2373
  134OSM   H12G14575   7.601  -0.029   7.434 -1.6768 -0.1237 -0.1543
  134OSM   C13F14576   7.642  -0.229   7.504  0.0559  0.3073  0.5595
  134OSM   H13F14577   7.740  -0.241   7.453  0.6204  3.2946  0.7721
  134OSM   H13G14578   7.594  -0.328   7.487  0.0976  0.8994 -4.3159
  134OSM   C14F14579   7.658  -0.183   7.648 -0.5490  0.6553  0.2256
  134OSM   H14F14580   7.568  -0.129   7.685 -1.6862 -0.4438 -0.8223
  134OSM   H14G14581   7.743  -0.114   7.661  0.3088 -0.5492  1.3814
  134OSM   C15F14582   7.677  -0.304   7.737  0.1798  0.2666  0.0477
  134OSM   H15F14583   7.767  -0.361   7.704  0.0615 -0.1690  0.4575
  134OSM   H15G14584   7.590  -0.374   7.726 -0.2885  0.7044  0.8703
  134OSM   C16F14585   7.689  -0.262   7.881  0.1980 -0.5376 -0.5038
  134OSM   H16F14586   7.591  -0.219   7.912  0.7594  0.6650 -0.3303
  134OSM   H16G14587   7.754  -0.172   7.889  0.1021 -0.6191  1.8784
  134OSM   C17F14588   7.739  -0.368   7.982  0.0920 -0.1580 -0.4235
  134OSM   H17F14589   7.838  -0.413   7.961  1.2391  0.3957  3.1145
  134OSM   H17G14590   7.671  -0.455   7.996  1.1619 -0.8773  0.4694
  134OSM   C18F14591   7.746  -0.302   8.118 -0.4395  0.0643 -0.0757
  134OSM   H18F14592   7.795  -0.203   8.112  0.6295 -0.5188 -1.8904
  134OSM   H18G14593   7.792  -0.365   8.197 -0.0826  0.5124  0.0784
  134OSM   H18H14594   7.644  -0.280   8.155 -0.1913 -1.5409  1.6901
  135OSM      N14595   0.678   1.735   6.223 -0.2016  0.1391 -0.6798
  135OSM    C1514596   0.759   1.860   6.244  0.5843 -0.6265  0.7332
  135OSM   H15A14597   0.825   1.866   6.159 -0.0630 -2.6882  0.0132
  135OSM   H15B14598   0.831   1.861   6.325  2.5572  2.5886 -0.8809
  135OSM   H15C14599   0.708   1.955   6.245  1.9381  0.1247  0.9461
  135OSM    C1414600   0.769   1.631   6.176  0.0267 -0.7061 -0.3536
  135OSM   H14A14601   0.709   1.549   6.139 -0.5911 -0.3961 -0.0446
  135OSM   H14B14602   0.813   1.582   6.262 -3.7927 -1.7029  1.2324
  135OSM   H14C14603   0.838   1.657   6.097  1.0976  0.9935  1.0691
  135OSM    C1314604   0.619   1.698   6.356  0.2951 -0.2676 -0.1777
  135OSM   H13A14605   0.571   1.602   6.360  0.3820 -0.2896  3.4101
  135OSM   H13B14606   0.537   1.766   6.378 -0.4906 -0.9023 -1.0890
  135OSM   H13C14607   0.691   1.692   6.436  0.6806 -3.3202 -0.6676
  135OSM    C1214608   0.571   1.769   6.123 -0.2680  0.5183 -0.0142
  135OSM   H12A14609   0.503   1.686   6.107 -2.3159  2.0989  0.0345
  135OSM   H12B14610   0.615   1.776   6.025 -0.3781 -0.6739 -0.1611
  135OSM    C1114611   0.480   1.902   6.139 -0.5369 -0.2392 -0.5972
  135OSM   H11A14612   0.421   1.912   6.045  0.0430  0.7234 -0.8629
  135OSM   H11B14613   0.538   1.995   6.154  0.8684 -1.3554  1.4265
  135OSM      P14614   0.246   1.814   6.232 -0.4338 -0.4515 -0.0605
  135OSM    O1314615   0.138   1.913   6.209  0.3052 -0.1119 -0.4899
  135OSM    O1414616   0.265   1.704   6.135 -0.1849  0.6482 -0.1407
  135OSM    O1114617   0.247   1.766   6.379  0.1833 -0.3214  0.0269
  135OSM    O1214618   0.378   1.892   6.252  0.0732 -0.1003  0.7743
  135OSM    C1S14619   0.245   1.622   6.402  0.0814 -0.1419  0.1028
  135OSM    H1S14620   0.345   1.580   6.378 -0.0723  1.2820 -3.8397
  135OSM    H1T14621   0.164   1.572   6.344 -1.3646  0.6517  1.3691
  135OSM     NF14622   0.216   1.447   6.569 -0.4981  0.3787 -0.6541
  135OSM    HNF14623   0.129   1.406   6.594  0.3555 -0.0300  1.9812
  135OSM    C2S14624   0.207   1.592   6.552  0.3777  0.1508 -0.3564
  135OSM    H2S14625   0.285   1.634   6.619 -0.4748  1.5359 -0.1936
  135OSM    C3S14626   0.072   1.666   6.589 -0.2823  0.0279 -0.7167
  135OSM    H3S14627  -0.017   1.617   6.545 -0.7737  0.0937  0.1695
  135OSM     O314628   0.070   1.802   6.552 -0.1088 -0.0915 -0.5979
  135OSM    HO314629   0.150   1.808   6.499 -0.0326  2.4815 -0.2989
  135OSM    C4S14630   0.059   1.661   6.744  0.2857 -0.1373  0.4200
  135OSM    H4S14631   0.097   1.752   6.794 -1.9562  1.5190 -0.6661
  135OSM    C5S14632  -0.007   1.567   6.818  0.6300 -0.1065  0.0535
  135OSM    H5S14633  -0.034   1.471   6.773  0.6856  0.2611 -0.7801
  135OSM    C6S14634  -0.031   1.561   6.967 -0.7204  0.0226 -0.0823
  135OSM    H6S14635   0.001   1.459   6.995 -1.2918 -0.4442 -1.0794
  135OSM    H6T14636  -0.138   1.560   6.997 -0.3886  0.0988  1.1377
  135OSM    C7S14637   0.035   1.649   7.067 -0.1898 -0.0184 -0.4943
  135OSM    H7S14638   0.002   1.751   7.040  0.6965 -0.0351 -1.7011
  135OSM    H7T14639   0.146   1.655   7.062 -0.2193  1.6749  0.2513
  135OSM    C8S14640  -0.003   1.633   7.218 -0.3380 -0.1204 -0.3125
  135OSM    H8S14641   0.038   1.722   7.271  0.4528 -0.7216  0.0970
  135OSM    H8T14642   0.054   1.557   7.276  2.3336  1.2865 -0.9231
  135OSM    C9S14643  -0.153   1.637   7.244  0.8901  0.2212  0.0161
  135OSM    H9S14644  -0.197   1.537   7.222 -0.1747 -0.0385  2.8460
  135OSM    H9T14645  -0.196   1.705   7.167  0.9521  0.2465  0.0039
  135OSM   C10S14646  -0.188   1.695   7.381  0.1024 -0.8807  0.2505
  135OSM   H10S14647  -0.298   1.692   7.392 -0.3091  1.8071 -2.1202
  135OSM   H10T14648  -0.159   1.802   7.379  0.9957 -1.1177 -0.1166
  135OSM   C11S14649  -0.122   1.631   7.499  0.1695  0.3128  0.3900
  135OSM   H11S14650  -0.022   1.669   7.526 -0.2001  1.5671  0.0243
  135OSM   H11T14651  -0.117   1.522   7.477 -2.0951  0.0419  0.9164
  135OSM   C12S14652  -0.207   1.640   7.631  0.0241  0.2337  0.4018
  135OSM   H12S14653  -0.304   1.591   7.606 -0.3029 -0.0373  2.0846
  135OSM   H12T14654  -0.215   1.746   7.662  1.6801  0.4215  0.2627
  135OSM   C13S14655  -0.148   1.556   7.739 -0.0853 -0.5606  0.2330
  135OSM   H13S14656  -0.043   1.582   7.765 -0.3643  1.0186 -0.1124
  135OSM   H13T14657  -0.144   1.450   7.706  1.3364 -0.1325 -1.0627
  135OSM   C14S14658  -0.220   1.570   7.872 -1.0638  0.2198 -0.6478
  135OSM   H14S14659  -0.219   1.679   7.896 -1.3914 -0.4598  2.9309
  135OSM   H14T14660  -0.162   1.518   7.951 -1.6080  0.7877  0.1450
  135OSM   C15S14661  -0.361   1.517   7.863  0.1574  0.4311 -0.3617
  135OSM   H15S14662  -0.359   1.409   7.833 -0.7413 -0.0559  1.2248
  135OSM   H15T14663  -0.412   1.578   7.786 -0.0985 -0.8571 -1.2563
  135OSM   C16S14664  -0.436   1.540   7.992 -0.0012  0.7544 -0.3377
  135OSM   H16S14665  -0.543   1.516   7.974  0.1682  0.2582 -0.7181
  135OSM   H16T14666  -0.433   1.647   8.022  1.5977  0.8604 -0.7891
  135OSM   C17S14667  -0.394   1.452   8.111 -0.1520 -0.3870  0.2797
  135OSM   H17S14668  -0.291   1.481   8.138 -0.5571 -0.3057  1.8576
  135OSM   H17T14669  -0.404   1.346   8.079 -0.2943 -0.3524  0.2073
  135OSM   C18S14670  -0.491   1.454   8.232 -0.0884  0.4012 -0.0891
  135OSM   H18S14671  -0.509   1.559   8.262 -2.5402 -0.1921  0.7305
  135OSM   H18T14672  -0.440   1.406   8.318 -2.6761 -1.3177  0.6079
  135OSM   H18U14673  -0.583   1.401   8.201 -0.4674  1.2083 -0.3691
  135OSM    C1F14674   0.329   1.375   6.561  0.3032 -0.8177  0.0231
  135OSM     OF14675   0.439   1.437   6.556 -0.1773  0.2927 -0.0576
  135OSM    C2F14676   0.316   1.224   6.552 -0.0364  0.0415 -0.5094
  135OSM    H2F14677   0.347   1.203   6.448  0.3067 -0.5818 -0.2798
  135OSM    H2G14678   0.213   1.186   6.572 -0.7866  1.1210 -2.0912
  135OSM    C3F14679   0.415   1.163   6.649 -0.0757 -0.1399 -0.0688
  135OSM    H3F14680   0.509   1.202   6.604  0.4436 -0.6727  0.5544
  135OSM    H3G14681   0.420   1.053   6.634 -3.1164 -0.6202  1.6780
  135OSM    C4F14682   0.403   1.196   6.796  0.7808  0.0573  0.5278
  135OSM    H4F14683   0.372   1.302   6.810 -2.6492 -0.5483 -1.4694
  135OSM    H4G14684   0.502   1.177   6.842  0.9450  2.3271  1.2257
  135OSM    C5F14685   0.302   1.103   6.861  0.3165  0.0411  0.4337
  135OSM    H5F14686   0.327   0.997   6.839  0.3031  0.0272  0.4858
  135OSM    H5G14687   0.210   1.132   6.806  1.6277  1.0640 -1.3471
  135OSM    C6F14688   0.283   1.114   7.011  0.4205 -0.1926 -0.8434
  135OSM    H6F14689   0.228   1.208   7.033  2.7680  0.9581  0.4986
  135OSM    H6G14690   0.383   1.121   7.058  0.6413  0.6437 -1.4024
  135OSM    C7F14691   0.209   0.993   7.075  0.6748  0.1262 -0.0466
  135OSM    H7F14692   0.252   0.903   7.028  0.0473  0.9771 -2.4142
  135OSM    H7G14693   0.102   0.998   7.045  0.5119 -0.1073  0.4793
  135OSM    C8F14694   0.213   0.984   7.227  0.4784 -0.4192 -0.9727
  135OSM    H8F14695   0.309   0.943   7.264 -0.0175  0.6888  1.8366
  135OSM    H8G14696   0.143   0.901   7.246 -1.0813  0.8050 -1.1516
  135OSM    C9F14697   0.141   1.098   7.304  0.3078  0.9007  0.6361
  135OSM    H9F14698   0.082   1.165   7.240  0.5111  1.4137  0.9775
  135OSM   C10F14699   0.173   1.125   7.432 -0.0312  0.2308 -0.1157
  135OSM   H10F14700   0.136   1.216   7.482  0.9947  1.3603 -1.3234
  135OSM   C11F14701   0.266   1.045   7.511 -0.6926 -0.2306 -0.1339
  135OSM   H11F14702   0.358   1.038   7.448 -1.0891 -0.0874 -0.7324
  135OSM   H11G14703   0.229   0.940   7.515  0.5587 -0.7493 -1.3379
  135OSM   C12F14704   0.296   1.103   7.647  0.3028 -0.6486 -0.0020
  135OSM   H12F14705   0.338   1.204   7.629 -0.1258 -0.5287 -0.3404
  135OSM   H12G14706   0.376   1.044   7.697 -0.0776 -0.1052  1.2776
  135OSM   C13F14707   0.178   1.123   7.748  0.1497  0.3293 -0.4031
  135OSM   H13F14708   0.104   1.185   7.693 -0.2123 -0.2336 -0.5556
  135OSM   H13G14709   0.219   1.177   7.835 -0.4854 -0.3024  0.2974
  135OSM   C14F14710   0.103   1.000   7.807  0.0623  0.4398 -0.4512
  135OSM   H14F14711   0.174   0.923   7.846  1.2464  1.3956 -0.6755
  135OSM   H14G14712   0.048   0.939   7.732 -0.4155  0.9201 -0.4956
  135OSM   C15F14713   0.012   1.023   7.927  0.2420 -0.2491  0.3230
  135OSM   H15F14714  -0.074   1.086   7.896  0.2735 -0.9850 -1.3574
  135OSM   H15G14715   0.074   1.074   8.004  1.4659 -3.3099  1.5063
  135OSM   C16F14716  -0.030   0.896   8.006  0.3414  0.2065  0.0943
  135OSM   H16F14717   0.063   0.843   8.035 -0.1152  1.1684  3.8636
  135OSM   H16G14718  -0.096   0.832   7.943 -1.3246 -1.3452  3.1542
  135OSM   C17F14719  -0.099   0.930   8.138  0.1493 -0.0837  0.2503
  135OSM   H17F14720  -0.191   0.992   8.145 -0.9255 -1.6720  1.0362
  135OSM   H17G14721  -0.030   0.984   8.206  1.6552 -0.4680 -0.9238
  135OSM   C18F14722  -0.132   0.792   8.199  0.0883 -0.1111  0.2104
  135OSM   H18F14723  -0.198   0.812   8.287 -0.4059  0.7368 -0.3343
  135OSM   H18G14724  -0.048   0.729   8.233 -2.0923 -4.1790 -1.2861
  135OSM   H18H14725  -0.201   0.748   8.124 -0.8467  2.0469 -0.2752
  136OSM      N14726   3.630   1.540   5.811 -0.2639  0.0866  0.4980
  136OSM    C1514727   3.621   1.586   5.952  0.3017  0.2851  0.4787
  136OSM   H15A14728   3.559   1.674   5.957 -0.4856 -0.2489  0.3646
  136OSM   H15B14729   3.718   1.609   5.993 -0.6689 -0.1063  3.1999
  136OSM   H15C14730   3.571   1.510   6.010 -0.6109 -0.5052 -1.2625
  136OSM    C1414731   3.665   1.394   5.819  0.2132  0.9140  0.4358
  136OSM   H14A14732   3.759   1.387   5.872  1.1242  1.6581 -0.9893
  136OSM   H14B14733   3.675   1.357   5.717 -2.0552  0.4533  0.3277
  136OSM   H14C14734   3.590   1.349   5.882 -1.4732  0.1290 -1.9967
  136OSM    C1314735   3.507   1.569   5.736 -0.6717  0.4621  0.5117
  136OSM   H13A14736   3.512   1.533   5.634  0.6166  2.3512 -0.1342
  136OSM   H13B14737   3.478   1.673   5.728 -0.2799  0.5669  0.4583
  136OSM   H13C14738   3.428   1.513   5.784  0.1391  0.8815  2.3846
  136OSM    C1214739   3.735   1.616   5.732  0.2523 -0.6309 -0.2161
  136OSM   H12A14740   3.690   1.714   5.725  1.0141 -0.2939 -0.6588
  136OSM   H12B14741   3.741   1.578   5.631 -1.5658  0.4855 -0.7802
  136OSM    C1114742   3.877   1.635   5.785 -0.5045 -0.1562  0.3945
  136OSM   H11A14743   3.924   1.700   5.708 -0.2337  0.9673  1.4727
  136OSM   H11B14744   3.941   1.544   5.788  0.2541  0.3367 -0.3382
  136OSM      P14745   3.875   1.867   5.899  0.1466  0.1922 -0.3238
  136OSM    O1314746   4.002   1.934   5.857  0.3145  0.0307  0.2296
  136OSM    O1414747   3.757   1.902   5.823  0.5957  0.3392 -0.0981
  136OSM    O1114748   3.858   1.897   6.046  0.3707 -0.0972  1.3388
  136OSM    O1214749   3.883   1.706   5.904 -0.1040 -0.4989 -0.0675
  136OSM    C1S14750   3.938   1.838   6.150 -0.3197 -1.2423 -0.2175
  136OSM    H1S14751   4.046   1.863   6.136 -0.0023 -3.1080 -1.5928
  136OSM    H1T14752   3.947   1.727   6.147 -0.5249 -1.2348 -1.6383
  136OSM     NF14753   4.025   1.905   6.375  0.1611 -0.3749 -0.3165
  136OSM    HNF14754   4.046   1.825   6.432 -1.0488 -0.3434  0.1913
  136OSM    C2S14755   3.909   1.903   6.287 -1.1169 -0.2707 -0.1199
  136OSM    H2S14756   3.881   2.011   6.281 -0.2153  0.1281  1.9246
  136OSM    C3S14757   3.778   1.843   6.350 -0.4688  0.3412  0.5819
  136OSM    H3S14758   3.793   1.733   6.355  2.3970  0.7077  2.2919
  136OSM     O314759   3.663   1.852   6.266  0.4863 -0.1080  0.0740
  136OSM    HO314760   3.705   1.858   6.180  1.4626 -2.7244  0.2611
  136OSM    C4S14761   3.755   1.882   6.495  0.1753 -0.4405  0.8121
  136OSM    H4S14762   3.816   1.819   6.562  0.1084 -0.6731  0.6560
  136OSM    C5S14763   3.673   1.982   6.544  0.2557  0.6608 -0.3495
  136OSM    H5S14764   3.610   2.033   6.471  1.1473 -0.0476 -1.6485
  136OSM    C6S14765   3.651   2.003   6.690  0.4857  0.3981  0.0077
  136OSM    H6S14766   3.567   1.941   6.728 -0.4854  1.6493 -0.0165
  136OSM    H6T14767   3.613   2.107   6.702 -0.5139  0.0322  0.1253
  136OSM    C7S14768   3.765   1.980   6.783  0.4072  0.5073 -0.2614
  136OSM    H7S14769   3.860   2.032   6.755  0.4787 -0.5797 -2.1816
  136OSM    H7T14770   3.791   1.872   6.789 -1.4309  0.1238  4.0586
  136OSM    C8S14771   3.734   2.030   6.921 -0.6456  0.0437  0.0161
  136OSM    H8S14772   3.650   1.964   6.951 -1.3290  0.2574 -1.3366
  136OSM    H8T14773   3.699   2.136   6.919 -0.9964 -0.0620  0.3889
  136OSM    C9S14774   3.848   2.014   7.022 -0.0753  0.1590  0.5338
  136OSM    H9S14775   3.934   2.066   6.975  0.3504 -0.8661  0.1371
  136OSM    H9T14776   3.872   1.907   7.039 -0.1201 -0.1749 -1.3270
  136OSM   C10S14777   3.809   2.091   7.153  0.0657  0.6680  1.0374
  136OSM   H10S14778   3.716   2.045   7.194  0.0093 -0.0097  0.1717
  136OSM   H10T14779   3.792   2.196   7.121 -2.6240  0.1343  0.4774
  136OSM   C11S14780   3.920   2.081   7.258 -0.0522  0.1421  0.2454
  136OSM   H11S14781   4.013   2.121   7.212 -0.2510 -1.6798 -1.9395
  136OSM   H11T14782   3.931   1.971   7.272 -0.9173 -0.8386 -4.7216
  136OSM   C12S14783   3.876   2.135   7.394  0.2483 -0.0100  0.3403
  136OSM   H12S14784   3.774   2.102   7.423  0.3987 -0.3405  0.5081
  136OSM   H12T14785   3.872   2.246   7.384  1.9951 -0.0478 -1.3454
  136OSM   C13S14786   3.977   2.107   7.506  0.3931  0.6086 -0.4867
  136OSM   H13S14787   4.075   2.152   7.480 -0.2244  1.7481 -0.8904
  136OSM   H13T14788   3.966   1.997   7.523  0.0704  0.2660 -2.6024
  136OSM   C14S14789   3.925   2.161   7.636 -0.0639 -0.3684  0.1591
  136OSM   H14S14790   3.815   2.176   7.623  0.5205  2.4758 -2.8182
  136OSM   H14T14791   3.960   2.266   7.650 -0.0653 -0.2465 -0.7274
  136OSM   C15S14792   3.933   2.066   7.755 -1.2450  0.0218 -0.0342
  136OSM   H15S14793   4.041   2.053   7.780 -0.9023 -1.0299 -1.8849
  136OSM   H15T14794   3.911   1.963   7.720 -2.2664  0.3127 -0.2765
  136OSM   C16S14795   3.856   2.107   7.877 -0.3255 -0.8054 -0.2252
  136OSM   H16S14796   3.748   2.096   7.852 -0.3672 -1.0936  0.0747
  136OSM   H16T14797   3.863   2.214   7.907  1.1449 -1.6353  2.7270
  136OSM   C17S14798   3.886   2.014   8.001  0.1865 -0.6207  0.5469
  136OSM   H17S14799   3.996   2.001   8.009  1.3275  3.5324 -3.8555
  136OSM   H17T14800   3.843   1.914   7.977 -1.7708 -0.2080  2.0473
  136OSM   C18S14801   3.832   2.076   8.131 -0.0583  0.5619  0.3121
  136OSM   H18S14802   3.725   2.091   8.108  0.3783  0.5265 -1.9275
  136OSM   H18T14803   3.878   2.174   8.155 -0.5269  0.5861  1.1620
  136OSM   H18U14804   3.845   2.009   8.219 -1.2169 -1.0070 -0.6536
  136OSM    C1F14805   4.122   1.993   6.345  0.1178 -0.1900 -0.2856
  136OSM     OF14806   4.098   2.092   6.271  0.1284  0.3918 -0.0899
  136OSM    C2F14807   4.262   1.950   6.374  0.4374 -0.1851 -0.3043
  136OSM    H2F14808   4.320   1.991   6.288  0.1445 -0.2275 -0.5266
  136OSM    H2G14809   4.275   1.840   6.364 -0.1965 -0.3909  0.9809
  136OSM    C3F14810   4.309   2.000   6.511  0.2617  0.1291 -0.7405
  136OSM    H3F14811   4.297   2.109   6.525 -0.5527 -0.1299  0.8371
  136OSM    H3G14812   4.414   1.980   6.540  0.5405  3.0192  0.5978
  136OSM    C4F14813   4.237   1.928   6.632 -0.4060  0.1141 -0.1374
  136OSM    H4F14814   4.241   1.820   6.604  0.6389 -0.0530  0.5541
  136OSM    H4G14815   4.128   1.950   6.631 -1.0596 -2.6010 -2.5000
  136OSM    C5F14816   4.306   1.951   6.766 -0.1406  0.4330 -0.0521
  136OSM    H5F14817   4.319   2.060   6.781  1.7751  0.4466 -1.5477
  136OSM    H5G14818   4.407   1.907   6.757  0.2767  1.5176 -0.7866
  136OSM    C6F14819   4.226   1.883   6.884 -0.1115  0.4767  0.4560
  136OSM    H6F14820   4.227   1.773   6.870  1.3207  0.4635  0.5045
  136OSM    H6G14821   4.124   1.924   6.898  0.4486  1.1133  3.4578
  136OSM    C7F14822   4.294   1.913   7.015  0.0769 -0.0458  0.2230
  136OSM    H7F14823   4.295   2.024   7.014 -0.0648 -0.0461 -0.3422
  136OSM    H7G14824   4.401   1.882   7.011  0.2813  0.4659  1.3474
  136OSM    C8F14825   4.215   1.860   7.137 -0.1625 -0.1173  0.6122
  136OSM    H8F14826   4.224   1.749   7.142 -1.6826 -0.3123 -0.5019
  136OSM    H8G14827   4.109   1.882   7.115 -0.1492 -1.6216 -1.2088
  136OSM    C9F14828   4.249   1.915   7.273 -0.5965 -0.7316  0.0498
  136OSM    H9F14829   4.294   2.015   7.270 -2.3543  0.1593  1.5957
  136OSM   C10F14830   4.215   1.856   7.390  0.2976 -0.5086  0.4848
  136OSM   H10F14831   4.239   1.898   7.489  1.1899  2.6310 -0.9201
  136OSM   C11F14832   4.153   1.718   7.396  0.3862 -0.7772 -0.6508
  136OSM   H11F14833   4.235   1.644   7.406 -1.2782 -2.8624 -1.5296
  136OSM   H11G14834   4.097   1.689   7.304  0.3662 -0.5767 -0.7020
  136OSM   C12F14835   4.048   1.708   7.513 -0.4472  0.3282 -0.0532
  136OSM   H12F14836   4.002   1.607   7.502 -1.3545  0.9073 -2.1113
  136OSM   H12G14837   3.960   1.776   7.514  0.5355  1.7063  2.9289
  136OSM   C13F14838   4.114   1.729   7.654  0.9083  0.5399 -0.3817
  136OSM   H13F14839   4.125   1.838   7.672 -1.0950  0.6513  0.4397
  136OSM   H13G14840   4.210   1.674   7.662  0.5853 -0.0469 -0.4748
  136OSM   C14F14841   4.024   1.684   7.767 -0.1351  0.4061 -0.4719
  136OSM   H14F14842   3.986   1.580   7.770 -1.1026  0.7603  1.8167
  136OSM   H14G14843   3.940   1.756   7.763 -0.7932 -0.3094  0.1802
  136OSM   C15F14844   4.091   1.710   7.907  0.2368  0.4553  0.7226
  136OSM   H15F14845   4.014   1.716   7.987  0.0798  2.5650  0.4816
  136OSM   H15G14846   4.151   1.804   7.902  0.2823  0.3750 -0.5013
  136OSM   C16F14847   4.190   1.591   7.934 -0.6660  0.5932 -0.3095
  136OSM   H16F14848   4.277   1.642   7.982 -1.2114  0.5878  0.6981
  136OSM   H16G14849   4.220   1.564   7.830 -1.6197 -1.5759 -0.0604
  136OSM   C17F14850   4.137   1.476   8.025 -0.2474  0.5935 -0.1638
  136OSM   H17F14851   4.136   1.484   8.136 -0.8658 -1.4832  0.0167
  136OSM   H17G14852   4.217   1.399   8.022  0.0860  0.8876  0.7523
  136OSM   C18F14853   4.002   1.404   7.988 -0.1479  0.0650  0.0406
  136OSM   H18F14854   3.975   1.324   8.061  0.3456 -1.0224 -0.9414
  136OSM   H18G14855   4.017   1.350   7.892  2.5195  0.0765  0.3833
  136OSM   H18H14856   3.913   1.470   7.979  0.3519  0.9841  1.6317
  137OSM      N14857   1.335   6.321   5.487  0.2851 -0.1038  0.7375
  137OSM    C1514858   1.213   6.399   5.449  0.6407 -0.6591  0.9091
  137OSM   H15A14859   1.121   6.360   5.490 -2.2666  2.7964 -1.5938
  137OSM   H15B14860   1.194   6.402   5.343  3.0323  0.9003  0.4415
  137OSM   H15C14861   1.214   6.500   5.486 -2.2187 -1.0183  2.2127
  137OSM    C1414862   1.324   6.192   5.407  0.1182  0.7596  0.4927
  137OSM   H14A14863   1.399   6.123   5.443  0.8102  2.4988  2.6424
  137OSM   H14B14864   1.316   6.188   5.299 -2.9163 -1.7726  0.6692
  137OSM   H14C14865   1.225   6.153   5.423  0.2003  0.5019  0.3945
  137OSM    C1314866   1.452   6.390   5.425  0.3413  0.1734  0.3671
  137OSM   H13A14867   1.468   6.483   5.478  0.7667 -1.0606  2.5104
  137OSM   H13B14868   1.450   6.403   5.318  1.6311  1.4956  0.4685
  137OSM   H13C14869   1.540   6.331   5.447  0.3457 -0.7146 -1.8389
  137OSM    C1214870   1.358   6.293   5.631  0.3961 -0.4183 -0.2161
  137OSM   H12A14871   1.451   6.242   5.652  2.5714  3.8041  1.6467
  137OSM   H12B14872   1.276   6.240   5.676  0.4947 -0.2679  0.1423
  137OSM    C1114873   1.361   6.417   5.712 -0.4799  0.1183 -0.1826
  137OSM   H11A14874   1.420   6.501   5.668  1.0148 -0.5635  0.4448
  137OSM   H11B14875   1.415   6.401   5.808  0.5968  2.1622 -0.3965
  137OSM      P14876   1.114   6.407   5.827  0.2794  0.7500 -0.5586
  137OSM    O1314877   0.997   6.498   5.816  0.0202 -0.3556  0.2452
  137OSM    O1414878   1.094   6.265   5.793 -0.0279 -0.0482  0.5842
  137OSM    O1114879   1.170   6.422   5.971  0.0682  0.7237  0.3043
  137OSM    O1214880   1.229   6.468   5.741  0.3555 -0.3274 -0.0835
  137OSM    C1S14881   1.244   6.532   6.013 -0.5180 -0.3538  0.2154
  137OSM    H1S14882   1.183   6.625   6.009  0.1820  0.1992  1.7806
  137OSM    H1T14883   1.334   6.562   5.956 -1.2788  0.7303 -0.4514
  137OSM     NF14884   1.327   6.619   6.243  0.2272  0.0406 -0.4863
  137OSM    HNF14885   1.423   6.647   6.250 -0.5573  2.7417  0.6060
  137OSM    C2S14886   1.276   6.499   6.165 -0.1688 -0.8113 -0.3153
  137OSM    H2S14887   1.178   6.464   6.204 -1.2789  0.4579 -1.8482
  137OSM    C3S14888   1.362   6.371   6.174  0.0599 -0.0334 -0.0547
  137OSM    H3S14889   1.453   6.389   6.113 -0.1065  2.4829  0.3405
  137OSM     O314890   1.306   6.258   6.111  0.0883  0.1423  0.6410
  137OSM    HO314891   1.232   6.298   6.066 -0.2029 -2.8238 -1.8523
  137OSM    C4S14892   1.408   6.331   6.314 -1.0480 -1.1086  0.1370
  137OSM    H4S14893   1.331   6.289   6.380 -0.9263  1.3195  1.9942
  137OSM    C5S14894   1.527   6.376   6.373 -0.2195 -0.7014  0.0053
  137OSM    H5S14895   1.587   6.444   6.312  0.3349 -0.3693  0.9080
  137OSM    C6S14896   1.574   6.353   6.511  0.0417 -0.8697 -0.4559
  137OSM    H6S14897   1.626   6.445   6.546  3.0262 -1.4841 -2.9123
  137OSM    H6T14898   1.656   6.278   6.511  0.2479 -0.6701  0.9813
  137OSM    C7S14899   1.483   6.288   6.619  0.0700 -0.2909  0.2174
  137OSM    H7S14900   1.551   6.256   6.701 -0.6837  0.9674  1.3786
  137OSM    H7T14901   1.449   6.196   6.568 -1.1131 -1.9895  3.7229
  137OSM    C8S14902   1.366   6.379   6.667  0.1560  0.6298 -0.3116
  137OSM    H8S14903   1.314   6.416   6.576  0.2077 -0.7409 -0.9212
  137OSM    H8T14904   1.423   6.463   6.713  1.0176  0.5999 -1.2624
  137OSM    C9S14905   1.268   6.310   6.762  0.6773 -0.0114 -0.0612
  137OSM    H9S14906   1.209   6.234   6.708  1.4437 -0.9662  0.4145
  137OSM    H9T14907   1.191   6.388   6.780  0.7901  0.1277 -0.1685
  137OSM   C10S14908   1.330   6.283   6.900 -0.3019 -0.7242  0.1895
  137OSM   H10S14909   1.397   6.365   6.935 -0.2353 -0.5120 -0.4222
  137OSM   H10T14910   1.403   6.199   6.900  2.6231  1.6063  1.0832
  137OSM   C11S14911   1.220   6.254   7.005  0.0442 -0.8278 -0.0750
  137OSM   H11S14912   1.169   6.156   6.994 -0.6159 -0.8759  2.6846
  137OSM   H11T14913   1.146   6.337   6.994 -0.2328 -1.3112 -2.4794
  137OSM   C12S14914   1.279   6.255   7.144 -0.9065  0.6023  0.2315
  137OSM   H12S14915   1.335   6.349   7.160  1.8918 -0.9846  0.4463
  137OSM   H12T14916   1.346   6.167   7.149 -1.3271  0.3039  0.7212
  137OSM   C13S14917   1.171   6.246   7.250  0.1731  0.9024 -0.4388
  137OSM   H13S14918   1.105   6.163   7.216  0.3237  1.0090 -1.0054
  137OSM   H13T14919   1.107   6.337   7.242 -0.5915  0.5605  1.2642
  137OSM   C14S14920   1.233   6.246   7.389 -0.6487  0.1824  0.3284
  137OSM   H14S14921   1.297   6.337   7.392 -0.5634  0.0990  1.6645
  137OSM   H14T14922   1.301   6.158   7.392  2.6277  2.5091  0.0899
  137OSM   C15S14923   1.137   6.244   7.513  0.3297  0.1842 -0.0855
  137OSM   H15S14924   1.050   6.177   7.500 -0.2996  0.6797  1.3220
  137OSM   H15T14925   1.098   6.347   7.529  0.9583  0.2945  0.8342
  137OSM   C16S14926   1.222   6.204   7.635  0.2337  0.1149 -0.2616
  137OSM   H16S14927   1.309   6.270   7.655  0.9227 -0.9281  0.2512
  137OSM   H16T14928   1.276   6.110   7.614  2.1281  0.6718  1.7062
  137OSM   C17S14929   1.137   6.169   7.756 -0.2753 -0.2324 -0.3460
  137OSM   H17S14930   1.062   6.094   7.722 -0.9054 -1.3761  3.1143
  137OSM   H17T14931   1.074   6.251   7.797  0.7511 -0.0211  0.9028
  137OSM   C18S14932   1.220   6.117   7.877  0.0971 -0.1872  0.4026
  137OSM   H18S14933   1.297   6.044   7.844  1.8970  1.0721  1.6512
  137OSM   H18T14934   1.163   6.054   7.949 -0.7422 -1.1192 -1.0082
  137OSM   H18U14935   1.273   6.191   7.940  1.8887  0.2532 -1.5347
  137OSM    C1F14936   1.231   6.700   6.293 -0.4121  0.0521  0.4218
  137OSM     OF14937   1.119   6.695   6.242 -0.0461 -0.0549  0.0169
  137OSM    C2F14938   1.275   6.799   6.404  0.8496  0.1691  0.0195
  137OSM    H2F14939   1.317   6.891   6.357  1.4839 -0.6717 -1.0970
  137OSM    H2G14940   1.350   6.747   6.466  2.0631  0.2168 -1.3459
  137OSM    C3F14941   1.159   6.853   6.486  0.0900 -0.0213  0.3074
  137OSM    H3F14942   1.084   6.904   6.421 -0.7473  0.5260  1.6487
  137OSM    H3G14943   1.189   6.934   6.556  1.5964 -1.6853  1.6595
  137OSM    C4F14944   1.094   6.748   6.572 -0.9648 -0.4336 -0.2207
  137OSM    H4F14945   1.059   6.660   6.514  2.2345 -2.3881  0.5330
  137OSM    H4G14946   1.003   6.785   6.623 -1.3310 -0.0745 -1.1100
  137OSM    C5F14947   1.183   6.698   6.695 -0.1993 -0.6274 -0.3372
  137OSM    H5F14948   1.283   6.666   6.657  1.1971  0.4847  2.1492
  137OSM    H5G14949   1.132   6.603   6.720 -3.7795  0.8115 -1.6559
  137OSM    C6F14950   1.209   6.790   6.816 -0.3200 -0.8608  0.4837
  137OSM    H6F14951   1.111   6.818   6.861  0.0964 -0.3503  1.0842
  137OSM    H6G14952   1.256   6.883   6.778 -1.1552 -1.2066 -1.4730
  137OSM    C7F14953   1.294   6.711   6.919  0.0387 -0.4776  0.4774
  137OSM    H7F14954   1.371   6.659   6.859 -1.6265 -0.9509 -1.3666
  137OSM    H7G14955   1.221   6.639   6.963 -2.2376  0.0896 -2.0929
  137OSM    C8F14956   1.348   6.808   7.023 -0.2165  0.3110 -0.4925
  137OSM    H8F14957   1.267   6.852   7.084 -0.1156 -2.9011  2.2380
  137OSM    H8G14958   1.398   6.895   6.975  2.2713 -1.3669 -1.1560
  137OSM    C9F14959   1.432   6.729   7.117 -0.2069  0.4864  0.5346
  137OSM    H9F14960   1.537   6.710   7.089 -0.5381 -0.7559  0.0853
  137OSM   C10F14961   1.383   6.676   7.234  0.0175 -0.4905  0.3976
  137OSM   H10F14962   1.444   6.604   7.291  0.8646 -0.8097 -0.8640
  137OSM   C11F14963   1.242   6.690   7.292  0.8765 -0.5713  0.1122
  137OSM   H11F14964   1.197   6.591   7.270 -1.4057  0.7490 -1.5783
  137OSM   H11G14965   1.178   6.763   7.238 -0.3526 -1.9938 -0.4022
  137OSM   C12F14966   1.239   6.732   7.437 -0.1646  0.9030 -0.6762
  137OSM   H12F14967   1.131   6.746   7.459 -1.1725 -4.5309 -0.6069
  137OSM   H12G14968   1.293   6.827   7.454 -1.3550  1.3762  0.6184
  137OSM   C13F14969   1.277   6.627   7.541  0.0680  0.2894 -0.2927
  137OSM   H13F14970   1.374   6.577   7.518 -0.1595 -0.8471  1.0714
  137OSM   H13G14971   1.199   6.549   7.524 -0.7574  1.6367 -3.4104
  137OSM   C14F14972   1.284   6.692   7.680  0.6158 -0.4228 -0.2256
  137OSM   H14F14973   1.191   6.746   7.710  0.2533 -1.2096  0.0942
  137OSM   H14G14974   1.368   6.765   7.686 -1.0604  1.5965  0.0487
  137OSM   C15F14975   1.299   6.584   7.793 -0.1032  0.4092 -0.1375
  137OSM   H15F14976   1.374   6.506   7.770 -1.0301 -0.1775 -1.2894
  137OSM   H15G14977   1.209   6.518   7.801  0.1624  0.2538  2.3199
  137OSM   C16F14978   1.328   6.640   7.932 -0.7101  0.2443  0.3404
  137OSM   H16F14979   1.243   6.694   7.979 -0.7248  0.4957  0.0298
  137OSM   H16G14980   1.410   6.715   7.933  0.2445 -0.7748  1.2047
  137OSM   C17F14981   1.364   6.530   8.032  0.6592  0.0930  0.4723
  137OSM   H17F14982   1.471   6.498   8.030  1.0060  1.1496  1.0076
  137OSM   H17G14983   1.298   6.443   8.010  1.2943 -0.0381 -1.0147
  137OSM   C18F14984   1.338   6.566   8.174  0.0826 -0.4158 -0.7363
  137OSM   H18F14985   1.384   6.485   8.234  0.6635 -1.6136 -2.7383
  137OSM   H18G14986   1.231   6.559   8.204 -0.0032  0.8605 -0.6903
  137OSM   H18H14987   1.367   6.672   8.195  1.2004 -0.6973 -0.8066
  138OSM      N14988   1.873   2.605   5.979 -0.2287  0.9437 -0.2265
  138OSM    C1514989   1.969   2.575   6.086  0.1951 -0.8463 -0.2925
  138OSM   H15A14990   2.070   2.604   6.060  0.4864 -0.9399  0.6992
  138OSM   H15B14991   1.985   2.468   6.083  1.2063 -0.7612  1.0722
  138OSM   H15C14992   1.937   2.607   6.184  0.7663  1.0987 -0.7149
  138OSM    C1414993   1.754   2.525   6.012  0.3373 -0.2409  1.1636
  138OSM   H14A14994   1.658   2.557   5.974  0.6512 -1.3229 -0.6739
  138OSM   H14B14995   1.742   2.538   6.119  0.8327  1.4774  1.0374
  138OSM   H14C14996   1.764   2.420   5.991 -0.5568 -0.8223  3.3114
  138OSM    C1314997   1.852   2.753   5.992 -0.4249  0.4696  0.1777
  138OSM   H13A14998   1.945   2.808   5.981 -0.9401  1.4296  0.5746
  138OSM   H13B14999   1.816   2.779   6.090 -0.6681  0.5342  0.0714
  138OSM   H13C15000   1.783   2.793   5.919  0.5408 -0.8327 -1.5300
  138OSM    C1215001   1.913   2.562   5.841  0.4765  0.6693  0.4531
  138OSM   H12A15002   1.833   2.585   5.772  0.6025  0.9077  0.3847
  138OSM   H12B15003   1.928   2.456   5.844 -0.4649  0.5409  0.9602
  138OSM    C1115004   2.040   2.626   5.780  0.5888  0.5645  0.2082
  138OSM   H11A15005   2.018   2.735   5.772  0.3318  0.5961  1.1595
  138OSM   H11B15006   2.049   2.580   5.680 -3.0746  1.0404 -0.4663
  138OSM      P15007   2.286   2.691   5.848  0.1085 -0.0123  0.1410
  138OSM    O1315008   2.388   2.642   5.942  0.1571 -0.1098 -0.2576
  138OSM    O1415009   2.326   2.705   5.709 -0.0944  0.0468 -0.8349
  138OSM    O1115010   2.236   2.833   5.894  0.0915  0.0947  0.4494
  138OSM    O1215011   2.155   2.605   5.857  0.1770  0.0200 -0.0183
  138OSM    C1S15012   2.203   2.862   6.031  0.1164  0.0059 -0.1772
  138OSM    H1S15013   2.169   2.767   6.077  0.5877 -0.9870 -1.7796
  138OSM    H1T15014   2.115   2.929   6.027  0.5490  0.6979  1.4414
  138OSM     NF15015   2.272   2.971   6.247  0.1724 -0.1384 -0.2644
  138OSM    HNF15016   2.249   3.066   6.266 -0.3338  0.0936 -1.8676
  138OSM    C2S15017   2.320   2.934   6.110 -0.0632  1.3168 -1.3955
  138OSM    H2S15018   2.401   2.859   6.122  0.4729  1.9434 -1.0176
  138OSM    C3S15019   2.369   3.054   6.027 -0.6181 -0.2645 -0.5446
  138OSM    H3S15020   2.282   3.122   6.014 -0.2249  1.0820  2.8582
  138OSM     O315021   2.426   3.023   5.902 -0.0523 -0.0353  0.7773
  138OSM    HO315022   2.365   2.955   5.871 -1.7630  1.3050  1.0551
  138OSM    C4S15023   2.459   3.133   6.121  0.7582 -0.4298  0.4121
  138OSM    H4S15024   2.428   3.238   6.114 -1.7000 -1.1897 -1.6668
  138OSM    C5S15025   2.573   3.109   6.189 -0.6220  0.9295 -0.4136
  138OSM    H5S15026   2.624   3.012   6.177 -0.7768  1.0204 -2.0715
  138OSM    C6S15027   2.638   3.211   6.273 -0.2166 -0.0269 -0.6132
  138OSM    H6S15028   2.597   3.314   6.265 -1.3037 -0.3649  0.2615
  138OSM    H6T15029   2.747   3.227   6.261 -0.4951  0.7447 -2.3940
  138OSM    C7S15030   2.618   3.178   6.424 -0.0842  0.1729  0.3480
  138OSM    H7S15031   2.693   3.242   6.476 -0.0122  1.3052 -1.0887
  138OSM    H7T15032   2.637   3.071   6.446  0.7959  0.4940  1.2686
  138OSM    C8S15033   2.479   3.213   6.474  0.5043 -0.0055 -0.3975
  138OSM    H8S15034   2.395   3.183   6.408  1.0192  0.2479 -1.1838
  138OSM    H8T15035   2.491   3.323   6.471  0.5684 -0.0215 -0.7540
  138OSM    C9S15036   2.460   3.157   6.619 -0.1857 -0.2305 -0.7908
  138OSM    H9S15037   2.552   3.171   6.678  0.1378 -0.9185 -1.1150
  138OSM    H9T15038   2.457   3.046   6.616 -1.1013 -0.1992 -1.3037
  138OSM   C10S15039   2.337   3.219   6.692  0.2313  0.3211 -0.1646
  138OSM   H10S15040   2.251   3.200   6.624  0.7965  0.5764 -0.9562
  138OSM   H10T15041   2.337   3.330   6.697  0.3219  0.4283 -1.8569
  138OSM   C11S15042   2.326   3.162   6.837  0.3450 -0.0170 -0.3073
  138OSM   H11S15043   2.429   3.176   6.877  1.4446 -1.4124 -2.4641
  138OSM   H11T15044   2.295   3.056   6.821  1.6188 -0.7364  1.5679
  138OSM   C12S15045   2.211   3.232   6.912 -0.0282  0.0920 -0.1723
  138OSM   H12S15046   2.122   3.212   6.849 -1.1051  1.7779  0.7276
  138OSM   H12T15047   2.221   3.341   6.929  0.0757 -0.1975  1.8907
  138OSM   C13S15048   2.196   3.190   7.056  0.2935 -0.0031 -0.0051
  138OSM   H13S15049   2.296   3.153   7.091 -0.0073  2.2772  3.8121
  138OSM   H13T15050   2.118   3.118   7.087 -2.2705  2.3338 -0.6767
  138OSM   C14S15051   2.148   3.311   7.146  0.0434  0.7216 -0.1816
  138OSM   H14S15052   2.045   3.344   7.122 -2.4556 -2.7077  4.1681
  138OSM   H14T15053   2.214   3.400   7.140 -0.0589  0.7151 -1.8335
  138OSM   C15S15054   2.139   3.265   7.298 -0.5338 -0.6268 -0.7997
  138OSM   H15S15055   2.242   3.233   7.325 -0.5594  0.6483  0.9673
  138OSM   H15T15056   2.065   3.183   7.302 -1.4294  0.2166  1.8468
  138OSM   C16S15057   2.097   3.380   7.392  0.2605  0.5411 -0.5746
  138OSM   H16S15058   2.022   3.444   7.343  2.2651  2.1484 -1.7083
  138OSM   H16T15059   2.188   3.442   7.412  1.4875 -1.4545  0.4466
  138OSM   C17S15060   2.043   3.331   7.530 -0.2791  0.0573 -0.5014
  138OSM   H17S15061   2.122   3.282   7.590  0.4335  0.0199 -1.4562
  138OSM   H17T15062   1.970   3.248   7.524  1.4805 -1.7824  1.6971
  138OSM   C18S15063   1.989   3.444   7.620 -0.4294 -0.3520 -0.5787
  138OSM   H18S15064   2.001   3.422   7.729  1.6725  1.8416 -0.2667
  138OSM   H18T15065   1.881   3.462   7.604 -0.7915 -1.1952  0.7321
  138OSM   H18U15066   2.037   3.544   7.609 -0.3828 -0.1271  1.2734
  138OSM    C1F15067   2.236   2.876   6.331  0.0011  0.6623  0.2672
  138OSM     OF15068   2.261   2.758   6.329 -0.4660 -0.0993  0.3890
  138OSM    C2F15069   2.143   2.923   6.437 -0.6099 -0.0400 -0.0233
  138OSM    H2F15070   2.045   2.956   6.398  0.6495  3.2869 -0.7416
  138OSM    H2G15071   2.190   3.020   6.465  1.3200 -1.1502  0.7948
  138OSM    C3F15072   2.134   2.822   6.551  0.7994  0.7446  0.2410
  138OSM    H3F15073   2.237   2.792   6.581 -0.1515  0.7634  4.0051
  138OSM    H3G15074   2.083   2.728   6.521  3.6966 -1.7236  2.3085
  138OSM    C4F15075   2.068   2.863   6.683  0.2112 -0.3465 -0.2398
  138OSM    H4F15076   2.097   2.967   6.711  0.4377  0.2711 -2.5853
  138OSM    H4G15077   2.108   2.795   6.762  0.7196  1.7773  1.4320
  138OSM    C5F15078   1.914   2.862   6.667 -0.3265  0.3340 -0.2744
  138OSM    H5F15079   1.885   2.760   6.634  1.1996  0.1624 -1.1898
  138OSM    H5G15080   1.865   2.929   6.594 -0.7634 -0.4138 -0.6700
  138OSM    C6F15081   1.859   2.895   6.809 -0.2765  0.2642  1.3014
  138OSM    H6F15082   1.753   2.925   6.796  0.6475  3.6630  0.6589
  138OSM    H6G15083   1.909   2.989   6.841 -0.3190  0.6868  0.1778
  138OSM    C7F15084   1.851   2.785   6.908  0.0126 -0.1281 -1.1218
  138OSM    H7F15085   1.954   2.789   6.949  0.3658  0.7051 -2.0535
  138OSM    H7G15086   1.829   2.684   6.867 -0.6839 -0.7871  0.8091
  138OSM    C8F15087   1.758   2.817   7.026 -0.0829  0.0744 -0.3471
  138OSM    H8F15088   1.739   2.729   7.090 -0.5307 -1.3680 -2.3640
  138OSM    H8G15089   1.664   2.826   6.967  0.3392 -0.9778 -1.1906
  138OSM    C9F15090   1.744   2.952   7.093 -0.3659  0.0670 -0.0247
  138OSM    H9F15091   1.693   3.034   7.040 -1.5801  0.6330  1.9125
  138OSM   C10F15092   1.780   2.965   7.218  0.1528 -0.0048 -0.1870
  138OSM   H10F15093   1.761   3.059   7.271 -0.6389 -0.7985  0.9806
  138OSM   C11F15094   1.836   2.856   7.306 -0.3395  0.1311  0.0921
  138OSM   H11F15095   1.947   2.857   7.296 -0.3635  1.9137 -0.4595
  138OSM   H11G15096   1.804   2.754   7.276  1.6813 -0.6999  0.5805
  138OSM   C12F15097   1.797   2.854   7.460  0.4754  0.1228 -1.2346
  138OSM   H12F15098   1.853   2.765   7.497  0.8507  0.3645 -1.2103
  138OSM   H12G15099   1.687   2.843   7.473  0.6846  0.3498  1.4289
  138OSM   C13F15100   1.835   2.977   7.550 -0.3371  0.1324  0.1586
  138OSM   H13F15101   1.786   3.066   7.506  0.0999  0.4429  0.2867
  138OSM   H13G15102   1.945   2.997   7.557 -0.5369  1.1564  0.6266
  138OSM   C14F15103   1.784   2.964   7.689  0.0071  0.0315  0.1897
  138OSM   H14F15104   1.819   2.867   7.732  4.4568  0.8667 -1.0907
  138OSM   H14G15105   1.673   2.972   7.682  0.1766  0.9426 -3.2777
  138OSM   C15F15106   1.848   3.084   7.772 -0.4857  0.2784  0.5872
  138OSM   H15F15107   1.823   3.170   7.706  1.2558 -0.6591 -1.4171
  138OSM   H15G15108   1.958   3.068   7.765 -0.4753  0.6422 -0.0978
  138OSM   C16F15109   1.808   3.086   7.918  0.1265  0.0515 -0.2128
  138OSM   H16F15110   1.698   3.095   7.929  0.0608 -0.4110 -0.4866
  138OSM   H16G15111   1.858   3.173   7.966  0.5921 -0.1978 -0.2342
  138OSM   C17F15112   1.859   2.962   7.999  0.3462  0.4822  0.6215
  138OSM   H17F15113   1.817   2.864   7.969 -0.7615  0.9421  0.6566
  138OSM   H17G15114   1.829   2.974   8.105 -0.9819  2.3613  0.0844
  138OSM   C18F15115   2.011   2.938   7.994 -0.8826  0.0938 -0.9327
  138OSM   H18F15116   2.043   2.855   8.060  2.8410 -0.0953 -2.7535
  138OSM   H18G15117   2.052   3.039   8.014 -2.2499  0.1485  2.2520
  138OSM   H18H15118   2.052   2.910   7.895  3.3390 -0.5136  0.7791
  139OSM      N15119   0.319   4.275   6.378 -0.5201 -0.4702  0.8861
  139OSM    C1515120   0.373   4.287   6.516 -0.7869  0.1004  0.1376
  139OSM   H15A15121   0.472   4.329   6.524 -0.4713 -0.8349  1.5279
  139OSM   H15B15122   0.392   4.190   6.561  1.3212  0.7357  0.7203
  139OSM   H15C15123   0.308   4.346   6.578 -0.7729 -0.5985  0.8335
  139OSM    C1415124   0.302   4.414   6.316 -0.3468  0.5532 -0.0320
  139OSM   H14A15125   0.400   4.460   6.317  2.4845 -4.6208 -1.4474
  139OSM   H14B15126   0.233   4.479   6.367  0.4119 -0.5546  2.5933
  139OSM   H14C15127   0.275   4.409   6.212 -1.9987 -0.2283  0.3992
  139OSM    C1315128   0.425   4.194   6.297  0.3412 -0.0941  0.0765
  139OSM   H13A15129   0.440   4.098   6.345  1.0309 -0.2709 -0.4888
  139OSM   H13B15130   0.524   4.235   6.282  0.0301  0.7337  0.2234
  139OSM   H13C15131   0.374   4.164   6.206 -0.4192  0.1108  0.4238
  139OSM    C1215132   0.189   4.203   6.381 -0.3482 -0.0240 -0.2023
  139OSM   H12A15133   0.118   4.257   6.442 -0.2548  0.4072 -0.4724
  139OSM   H12B15134   0.209   4.107   6.426 -0.9994  0.0739  0.3256
  139OSM    C1115135   0.127   4.182   6.244 -0.1193 -0.2147 -0.2377
  139OSM   H11A15136   0.134   4.277   6.188 -1.6625 -0.5350 -1.0206
  139OSM   H11B15137   0.018   4.179   6.265 -0.1728 -0.8734 -0.5812
  139OSM      P15138   0.153   3.928   6.228 -0.3120 -0.3686 -0.2312
  139OSM    O1315139   0.018   3.889   6.184  0.3512 -0.4090  0.0563
  139OSM    O1415140   0.263   3.836   6.185 -0.1023 -0.0933 -0.4659
  139OSM    O1115141   0.155   3.936   6.386  0.3512 -0.1347 -0.1843
  139OSM    O1215142   0.180   4.072   6.178  0.1701  0.1110 -0.0565
  139OSM    C1S15143   0.241   3.857   6.468  0.0575  0.4732  0.6030
  139OSM    H1S15144   0.345   3.891   6.451 -0.3220  1.4265  0.1110
  139OSM    H1T15145   0.242   3.750   6.440  0.1680  0.5586  0.2840
  139OSM     NF15146   0.335   3.822   6.698  0.7400  0.1599  0.0559
  139OSM    HNF15147   0.320   3.738   6.750 -1.5857 -0.0071 -0.7794
  139OSM    C2S15148   0.214   3.869   6.618  0.1764  0.3848  0.3754
  139OSM    H2S15149   0.208   3.978   6.641  2.0917  0.3480  1.2827
  139OSM    C3S15150   0.083   3.804   6.656 -0.5046  0.2372 -0.0661
  139OSM    H3S15151   0.109   3.696   6.646  2.1122  0.7392  0.5671
  139OSM     O315152  -0.015   3.839   6.567 -0.6605  0.2183  0.2554
  139OSM    HO315153   0.025   3.872   6.486 -2.4339  0.1958 -0.6962
  139OSM    C4S15154   0.039   3.815   6.804 -0.0731 -0.3798 -0.6307
  139OSM    H4S15155   0.077   3.737   6.871 -1.1615  0.4693  1.0434
  139OSM    C5S15156  -0.043   3.910   6.857 -0.8168  0.1083  0.4299
  139OSM    H5S15157  -0.077   3.992   6.792  1.2903 -0.6334 -1.7338
  139OSM    C6S15158  -0.076   3.925   7.003 -0.2753  0.1640  0.1746
  139OSM    H6S15159  -0.178   3.884   7.015 -0.7638  1.7129  1.7246
  139OSM    H6T15160  -0.071   4.034   7.025 -1.0776  0.4528 -0.9512
  139OSM    C7S15161   0.024   3.872   7.108 -0.7201 -0.0409  0.0010
  139OSM    H7S15162   0.124   3.918   7.091 -0.2842 -1.3009 -1.0724
  139OSM    H7T15163   0.041   3.762   7.109 -0.0925  0.0046 -1.6071
  139OSM    C8S15164  -0.021   3.910   7.249 -0.4078  0.2418 -0.0032
  139OSM    H8S15165  -0.125   3.884   7.278 -0.8557  1.5527 -0.3419
  139OSM    H8T15166  -0.020   4.020   7.265 -2.3059 -0.0835  3.1522
  139OSM    C9S15167   0.075   3.851   7.354  0.0398  0.0297  0.8505
  139OSM    H9S15168   0.172   3.905   7.352 -0.0850  0.3613  2.5623
  139OSM    H9T15169   0.092   3.744   7.328  1.5149  0.5510 -0.5117
  139OSM   C10S15170   0.022   3.865   7.498 -0.3921 -0.1262 -0.0141
  139OSM   H10S15171  -0.070   3.803   7.503 -0.6896  0.3870  2.9608
  139OSM   H10T15172   0.001   3.972   7.523  0.0762 -0.7194  3.4447
  139OSM   C11S15173   0.112   3.807   7.601  0.4787 -0.2799 -0.5880
  139OSM   H11S15174   0.216   3.843   7.585  0.5932  0.4208  1.3880
  139OSM   H11T15175   0.117   3.697   7.596 -3.3028 -0.8033  2.6079
  139OSM   C12S15176   0.074   3.851   7.739 -0.5845 -0.0036  0.3681
  139OSM   H12S15177  -0.021   3.804   7.773 -0.2300  0.0210  1.4187
  139OSM   H12T15178   0.054   3.960   7.732 -1.3408 -0.2512 -2.3388
  139OSM   C13S15179   0.189   3.837   7.844 -0.8235  0.2364  0.3118
  139OSM   H13S15180   0.259   3.908   7.796 -0.0651 -1.6694 -1.5543
  139OSM   H13T15181   0.215   3.729   7.842 -4.4551 -0.8102  1.0595
  139OSM   C14S15182   0.150   3.870   7.993 -0.3711 -0.7285 -0.2365
  139OSM   H14S15183   0.106   3.972   7.988  1.1317 -0.0672 -0.4656
  139OSM   H14T15184   0.239   3.881   8.057 -0.9730  0.0233  0.5021
  139OSM   C15S15185   0.051   3.773   8.046 -0.5492 -0.3746 -0.2271
  139OSM   H15S15186   0.096   3.671   8.043  2.4593  0.7245  1.9126
  139OSM   H15T15187  -0.046   3.774   7.992 -1.3143 -1.2631  1.0799
  139OSM   C16S15188   0.021   3.798   8.198 -0.0650  0.1756  0.8054
  139OSM   H16S15189  -0.069   3.736   8.222 -0.3015  0.0777 -0.3061
  139OSM   H16T15190  -0.020   3.899   8.218  1.0351  0.3850  2.1777
  139OSM   C17S15191   0.137   3.753   8.287 -0.8720  0.1923 -0.3208
  139OSM   H17S15192   0.214   3.832   8.274 -0.7718 -0.0971 -1.5651
  139OSM   H17T15193   0.178   3.660   8.242  0.1779  2.5877 -4.9570
  139OSM   C18S15194   0.101   3.755   8.439 -0.1224  0.0539  0.6719
  139OSM   H18S15195   0.186   3.722   8.502  1.4637 -0.2299 -1.4801
  139OSM   H18T15196   0.014   3.687   8.449 -0.2436  0.1218  0.1299
  139OSM   H18U15197   0.079   3.861   8.465  3.1238  0.6968  1.2251
  139OSM    C1F15198   0.450   3.879   6.680 -0.1459 -0.1010  0.0202
  139OSM     OF15199   0.465   4.003   6.653  0.4545 -0.0737  0.1235
  139OSM    C2F15200   0.575   3.791   6.687  0.3613 -0.1100  0.0252
  139OSM    H2F15201   0.607   3.799   6.581  0.2289 -0.8250 -0.0754
  139OSM    H2G15202   0.538   3.688   6.707 -1.0343  0.2425 -0.5687
  139OSM    C3F15203   0.664   3.844   6.797  0.3667  0.0197  0.3135
  139OSM    H3F15204   0.689   3.952   6.793  3.8035 -0.6614  0.5264
  139OSM    H3G15205   0.761   3.791   6.781 -0.3319 -1.6806  1.3657
  139OSM    C4F15206   0.610   3.808   6.937  0.4467 -0.0501  0.0527
  139OSM    H4F15207   0.602   3.697   6.936 -0.3684 -0.0897 -3.6671
  139OSM    H4G15208   0.505   3.844   6.931  0.5356 -0.0246 -2.2646
  139OSM    C5F15209   0.689   3.868   7.054  0.2055 -0.8635  0.0126
  139OSM    H5F15210   0.679   3.978   7.043 -0.8854 -1.0244 -0.7891
  139OSM    H5G15211   0.796   3.840   7.061  0.2483 -0.8047 -0.3926
  139OSM    C6F15212   0.638   3.832   7.194 -0.4952  0.1352  0.3222
  139OSM    H6F15213   0.638   3.722   7.208  0.9915 -0.0830 -1.1918
  139OSM    H6G15214   0.530   3.857   7.207 -0.8903  0.1901 -2.4766
  139OSM    C7F15215   0.726   3.873   7.308 -0.2296  0.0998 -0.0696
  139OSM    H7F15216   0.716   3.983   7.322 -1.4627  0.0783 -0.6867
  139OSM    H7G15217   0.833   3.848   7.294 -1.0165 -2.0640 -3.2781
  139OSM    C8F15218   0.683   3.814   7.441 -0.9631 -0.3584 -0.2970
  139OSM    H8F15219   0.685   3.703   7.434 -1.5542 -0.4605  0.9360
  139OSM    H8G15220   0.581   3.856   7.455  0.4026  3.1901  0.0761
  139OSM    C9F15221   0.772   3.864   7.551  0.2913  0.0698 -0.3140
  139OSM    H9F15222   0.866   3.900   7.505 -1.3141  1.5117 -2.7072
  139OSM   C10F15223   0.749   3.865   7.686  0.2014  0.3564  0.5348
  139OSM   H10F15224   0.822   3.896   7.763 -1.9024 -2.1082  3.7986
  139OSM   C11F15225   0.625   3.801   7.743  0.2733  0.0270  0.4068
  139OSM   H11F15226   0.562   3.776   7.655  2.1450 -1.8662 -0.5105
  139OSM   H11G15227   0.562   3.873   7.798  2.1356 -0.0927  2.9020
  139OSM   C12F15228   0.650   3.683   7.832  0.1843 -0.1957  0.1422
  139OSM   H12F15229   0.713   3.705   7.921  1.5744  0.1183 -0.8910
  139OSM   H12G15230   0.695   3.589   7.791  1.3150  0.0449  0.7816
  139OSM   C13F15231   0.518   3.641   7.905  0.4859 -0.0906  0.4359
  139OSM   H13F15232   0.453   3.592   7.828  0.9200 -0.8722  0.5547
  139OSM   H13G15233   0.465   3.729   7.948  0.4683  0.5565 -0.8657
  139OSM   C14F15234   0.538   3.533   8.016 -0.0161 -0.1953 -0.1528
  139OSM   H14F15235   0.599   3.579   8.096 -1.6051  2.2177 -0.2530
  139OSM   H14G15236   0.577   3.445   7.960 -0.0229 -1.2193  1.3907
  139OSM   C15F15237   0.408   3.474   8.075  0.2667  0.1417 -0.5205
  139OSM   H15F15238   0.349   3.409   8.007 -1.5235 -1.2252  2.1712
  139OSM   H15G15239   0.340   3.556   8.106 -0.2377 -0.0470 -1.1134
  139OSM   C16F15240   0.439   3.388   8.202 -1.0977 -0.5569  1.0854
  139OSM   H16F15241   0.479   3.453   8.283 -2.8526  2.4690 -0.3071
  139OSM   H16G15242   0.522   3.319   8.177 -1.8719 -0.6674 -1.4657
  139OSM   C17F15243   0.311   3.308   8.242 -0.2683  0.5271 -0.4425
  139OSM   H17F15244   0.263   3.260   8.155 -0.2792  0.2091 -0.2624
  139OSM   H17G15245   0.237   3.382   8.281  0.2625 -0.2181  2.1659
  139OSM   C18F15246   0.347   3.195   8.339  0.6252 -0.4342 -0.0177
  139OSM   H18F15247   0.251   3.161   8.383  0.7359 -0.2625  0.3592
  139OSM   H18G15248   0.424   3.222   8.415  2.8488  0.0351 -2.3006
  139OSM   H18H15249   0.400   3.112   8.287  1.1032 -0.8842  1.1555
  140OSM      N15250   0.876   5.130   5.921  0.5640 -0.1021  0.2570
  140OSM    C1515251   0.835   5.227   6.028 -0.4613  0.3000 -0.0437
  140OSM   H15A15252   0.841   5.329   5.994 -1.9753  1.0292  1.7306
  140OSM   H15B15253   0.905   5.217   6.109  2.3175  1.4238 -2.1481
  140OSM   H15C15254   0.741   5.203   6.076 -0.7884  0.7123 -0.4708
  140OSM    C1415255   0.799   5.167   5.793 -0.7804 -0.0757  0.2397
  140OSM   H14A15256   0.811   5.096   5.713 -2.3601  0.8165 -0.8441
  140OSM   H14B15257   0.840   5.259   5.753  2.6642 -0.3822  2.6432
  140OSM   H14C15258   0.694   5.183   5.815 -0.6676  1.8936 -0.4241
  140OSM    C1315259   1.022   5.145   5.885  0.5941 -0.1101  0.1384
  140OSM   H13A15260   1.036   5.240   5.835  0.3977  0.2148  0.6924
  140OSM   H13B15261   1.042   5.084   5.798  4.0668 -0.3402  0.9506
  140OSM   H13C15262   1.094   5.123   5.962  0.5373 -1.0855 -0.0787
  140OSM    C1215263   0.844   4.984   5.955 -0.0398 -0.5789  0.5189
  140OSM   H12A15264   0.854   4.921   5.867 -4.7430  0.2914 -0.9282
  140OSM   H12B15265   0.737   4.980   5.957 -0.1645 -1.6780 -2.6328
  140OSM    C1115266   0.902   4.928   6.086 -0.0407  0.0096  0.0494
  140OSM   H11A15267   1.010   4.953   6.101 -0.2687  1.4304 -0.5098
  140OSM   H11B15268   0.889   4.818   6.085 -2.6288  0.1712 -3.8700
  140OSM      P15269   0.680   4.951   6.225 -0.1489  0.0406 -0.0115
  140OSM    O1315270   0.613   5.067   6.284  0.2059  0.3029  0.2428
  140OSM    O1415271   0.620   4.898   6.102  0.5197  0.2812  0.4839
  140OSM    O1115272   0.689   4.834   6.330  0.5995  0.3479  0.3156
  140OSM    O1215273   0.830   4.982   6.200 -0.5228  0.1633 -0.4902
  140OSM    C1S15274   0.801   4.748   6.348 -0.2551 -0.2070 -0.3267
  140OSM    H1S15275   0.897   4.803   6.354 -0.5488  0.4968 -1.6375
  140OSM    H1T15276   0.811   4.684   6.258  1.5271 -0.4234 -0.0129
  140OSM     NF15277   0.910   4.622   6.532  0.1656  0.1554  0.2511
  140OSM    HNF15278   0.930   4.525   6.546  2.4877  0.6208  0.6099
  140OSM    C2S15279   0.782   4.672   6.483 -0.7849  0.2633  0.0235
  140OSM    H2S15280   0.746   4.735   6.567  1.4047  0.3027  1.0041
  140OSM    C3S15281   0.664   4.573   6.470 -0.5520  0.3338 -0.0042
  140OSM    H3S15282   0.696   4.504   6.390  0.5250  0.3403  0.4032
  140OSM     O315283   0.541   4.634   6.428  0.0692 -0.3332  0.3255
  140OSM    HO315284   0.569   4.717   6.388  0.7865 -1.2663 -1.2073
  140OSM    C4S15285   0.642   4.485   6.590 -0.1125 -0.1909 -0.4070
  140OSM    H4S15286   0.693   4.387   6.586 -2.8407 -1.7060 -2.1759
  140OSM    C5S15287   0.566   4.500   6.698  0.5337 -0.3070 -0.4955
  140OSM    H5S15288   0.500   4.588   6.696 -0.8051 -1.2839 -1.3477
  140OSM    C6S15289   0.545   4.397   6.808  0.0128  0.0313  0.3511
  140OSM    H6S15290   0.434   4.383   6.808  0.0710 -0.5165  1.1227
  140OSM    H6T15291   0.577   4.442   6.904  0.1260 -0.5006  0.5661
  140OSM    C7S15292   0.616   4.263   6.805 -0.5987 -0.1674  0.6726
  140OSM    H7S15293   0.605   4.216   6.705 -0.0441  1.2988 -0.1198
  140OSM    H7T15294   0.568   4.200   6.882 -3.0682 -0.6520 -1.1154
  140OSM    C8S15295   0.769   4.253   6.825 -0.1638  0.8495  0.2930
  140OSM    H8S15296   0.826   4.294   6.738  0.5008 -0.2181  0.2092
  140OSM    H8T15297   0.795   4.145   6.822  2.5549  1.4527 -0.9830
  140OSM    C9S15298   0.827   4.334   6.945 -0.5270 -0.6467  0.5262
  140OSM    H9S15299   0.798   4.437   6.915 -0.5333  0.1169  2.9929
  140OSM    H9T15300   0.936   4.313   6.953 -0.3673 -0.8375 -1.4796
  140OSM   C10S15301   0.752   4.309   7.076  0.1496  0.6728 -0.6664
  140OSM   H10S15302   0.763   4.203   7.108  2.7563  1.3795  1.0602
  140OSM   H10T15303   0.641   4.306   7.066  0.2237 -0.6583 -1.3520
  140OSM   C11S15304   0.807   4.386   7.194 -0.2233  0.1430  0.4690
  140OSM   H11S15305   0.805   4.495   7.176 -3.3536 -0.0474 -1.0757
  140OSM   H11T15306   0.910   4.347   7.206 -0.2831  0.2835  1.6000
  140OSM   C12S15307   0.737   4.374   7.330  0.5561  0.1978  0.1156
  140OSM   H12S15308   0.721   4.267   7.354  0.7516  0.5367  1.8293
  140OSM   H12T15309   0.633   4.411   7.324  0.2428 -0.4460  1.3865
  140OSM   C13S15310   0.808   4.440   7.447 -0.0812 -0.4213  0.3404
  140OSM   H13S15311   0.806   4.547   7.419  0.8042  0.3220  2.8609
  140OSM   H13T15312   0.915   4.410   7.455  0.2603  0.6885  0.1352
  140OSM   C14S15313   0.745   4.419   7.589 -0.0974  0.1133  0.3362
  140OSM   H14S15314   0.754   4.311   7.612 -0.2868  0.1594  0.6297
  140OSM   H14T15315   0.639   4.453   7.582 -0.4048 -1.0573 -1.6307
  140OSM   C15S15316   0.805   4.498   7.703  0.2711 -0.8780 -0.3183
  140OSM   H15S15317   0.743   4.505   7.795 -0.0803  1.9154 -0.6716
  140OSM   H15T15318   0.831   4.603   7.678 -0.7939  0.2293  2.7722
  140OSM   C16S15319   0.947   4.439   7.741  0.7286 -0.9891  0.3082
  140OSM   H16S15320   1.009   4.439   7.649  0.2262  4.3132 -0.3441
  140OSM   H16T15321   0.940   4.333   7.775  2.4494 -1.6999 -1.3330
  140OSM   C17S15322   1.020   4.517   7.850  0.5074  0.1205  0.0112
  140OSM   H17S15323   0.952   4.543   7.934  0.4389  1.0266 -0.3199
  140OSM   H17T15324   1.049   4.606   7.790  0.1702 -1.5285 -2.8039
  140OSM   C18S15325   1.145   4.449   7.905 -0.0158  0.1751 -0.7231
  140OSM   H18S15326   1.234   4.465   7.841  0.2578  1.0682 -0.1475
  140OSM   H18T15327   1.125   4.341   7.920  0.4066  0.0650 -0.9581
  140OSM   H18U15328   1.167   4.502   8.000  0.4283  2.9160 -2.2478
  140OSM    C1F15329   1.013   4.694   6.569 -0.3839 -0.8681 -0.6484
  140OSM     OF15330   1.012   4.814   6.585 -0.4724 -0.2640 -0.3441
  140OSM    C2F15331   1.144   4.622   6.599 -0.0475  0.7841 -0.4853
  140OSM    H2F15332   1.224   4.683   6.552 -0.1330  1.1653 -0.1356
  140OSM    H2G15333   1.131   4.516   6.569 -4.5376  1.2135 -0.7889
  140OSM    C3F15334   1.180   4.629   6.744 -0.2204 -0.1469 -0.1687
  140OSM    H3F15335   1.210   4.727   6.787 -0.5594  0.3385 -1.0274
  140OSM    H3G15336   1.270   4.564   6.755 -0.0243  0.3678  1.7596
  140OSM    C4F15337   1.076   4.566   6.836  0.1583 -0.4340  0.3996
  140OSM    H4F15338   1.072   4.457   6.812 -1.1828  0.0304 -1.7278
  140OSM    H4G15339   0.976   4.604   6.806 -0.0507 -1.9226 -0.9213
  140OSM    C5F15340   1.095   4.587   6.987  0.6111  0.4973  1.2647
  140OSM    H5F15341   1.011   4.532   7.032  1.2679 -1.1909  0.5294
  140OSM    H5G15342   1.096   4.696   7.007 -0.5574  0.4361  1.6978
  140OSM    C6F15343   1.217   4.522   7.062  0.5923 -0.1301  0.9744
  140OSM    H6F15344   1.297   4.566   6.999 -2.3880  0.0656 -3.0286
  140OSM    H6G15345   1.231   4.415   7.039  0.9200  0.1423 -0.1515
  140OSM    C7F15346   1.244   4.576   7.203  0.0035  0.0815 -0.1701
  140OSM    H7F15347   1.247   4.687   7.197 -1.7395  0.1208 -1.0622
  140OSM    H7G15348   1.346   4.548   7.238  0.3059  2.4882  1.1248
  140OSM    C8F15349   1.146   4.536   7.310 -0.5697  0.0183 -0.5304
  140OSM    H8F15350   1.117   4.431   7.287 -0.3092  0.2325 -1.9514
  140OSM    H8G15351   1.055   4.600   7.301 -0.5541  0.4784  2.0069
  140OSM    C9F15352   1.203   4.552   7.452  0.7369  0.0246  0.3911
  140OSM    H9F15353   1.244   4.462   7.499  3.4491  1.7310  1.5361
  140OSM   C10F15354   1.198   4.670   7.515 -0.3442  0.6315  0.3867
  140OSM   H10F15355   1.225   4.666   7.622 -0.5200 -0.0171  0.4117
  140OSM   C11F15356   1.142   4.801   7.472  0.1800  0.2446  0.4619
  140OSM   H11F15357   1.108   4.800   7.366 -1.2373 -0.0638  0.8969
  140OSM   H11G15358   1.225   4.874   7.463  0.5233  0.1057  2.1345
  140OSM   C12F15359   1.027   4.836   7.566 -0.1985 -0.6433 -0.1333
  140OSM   H12F15360   0.963   4.755   7.606  0.0258 -0.1982  1.1510
  140OSM   H12G15361   0.961   4.908   7.513 -0.2353  0.5537  1.4672
  140OSM   C13F15362   1.068   4.913   7.683 -0.4318  0.0701  0.4414
  140OSM   H13F15363   1.119   5.005   7.650 -0.0040 -1.1037 -2.5584
  140OSM   H13G15364   1.153   4.850   7.716 -0.3605  0.0459  0.2166
  140OSM   C14F15365   0.978   4.929   7.797  0.0122 -0.2501  0.3899
  140OSM   H14F15366   0.945   4.827   7.826  0.9750 -0.7480 -0.2068
  140OSM   H14G15367   0.881   4.970   7.762 -0.2119 -1.0266  0.0669
  140OSM   C15F15368   1.040   4.996   7.921  0.4307  0.6170 -0.3800
  140OSM   H15F15369   0.961   4.986   7.999 -0.8985 -0.7264 -1.8432
  140OSM   H15G15370   1.057   5.105   7.907  0.6206  0.8216  1.2361
  140OSM   C16F15371   1.167   4.932   7.980  0.2444 -0.0212  0.1683
  140OSM   H16F15372   1.251   5.004   7.975 -1.6355  2.2590 -0.1816
  140OSM   H16G15373   1.196   4.845   7.916  1.6193  0.6365 -0.1416
  140OSM   C17F15374   1.154   4.868   8.115  0.4784 -0.0118  0.0213
  140OSM   H17F15375   1.082   4.784   8.120 -0.3776  0.7587  2.4059
  140OSM   H17G15376   1.122   4.948   8.185  2.4530  1.7547 -0.9769
  140OSM   C18F15377   1.290   4.830   8.167  0.8553  0.4300  0.0814
  140OSM   H18F15378   1.363   4.905   8.128  0.8480 -0.4081 -1.6304
  140OSM   H18G15379   1.313   4.728   8.130 -0.4950  0.0665  0.2056
  140OSM   H18H15380   1.289   4.844   8.277  1.3093 -0.1852  0.1679
  141OSM      N15381   0.662   6.353   5.799 -0.0229 -0.3020 -0.5577
  141OSM    C1515382   0.759   6.309   5.907  0.9102 -0.2246  0.4400
  141OSM   H15A15383   0.757   6.201   5.908 -0.2957 -0.2188 -0.1443
  141OSM   H15B15384   0.728   6.356   5.999 -0.5161 -0.4097  0.0807
  141OSM   H15C15385   0.859   6.345   5.885  0.5508 -0.4592 -1.7202
  141OSM    C1415386   0.697   6.282   5.669 -0.2459 -0.0118  0.4214
  141OSM   H14A15387   0.669   6.178   5.683  2.8226 -0.8515  1.0894
  141OSM   H14B15388   0.802   6.291   5.643 -0.2671  1.4329  0.7819
  141OSM   H14C15389   0.643   6.323   5.585 -0.0862  0.8177  0.7163
  141OSM    C1315390   0.529   6.316   5.843 -0.1776  0.0199  0.5639
  141OSM   H13A15391   0.499   6.345   5.943 -1.9246  0.8533 -0.1681
  141OSM   H13B15392   0.515   6.209   5.847  1.5348 -0.2274  0.5502
  141OSM   H13C15393   0.460   6.353   5.769 -0.6894 -0.2015  0.9218
  141OSM    C1215394   0.675   6.502   5.772  0.1542  0.1406  0.3136
  141OSM   H12A15395   0.606   6.532   5.694  0.5475  1.3233  0.4047
  141OSM   H12B15396   0.776   6.518   5.736  0.7395 -0.5594  1.5839
  141OSM    C1115397   0.659   6.582   5.904 -1.0831 -1.0396 -0.0041
  141OSM   H11A15398   0.702   6.684   5.892 -2.3370 -0.5301 -0.3453
  141OSM   H11B15399   0.718   6.533   5.984 -0.2507  0.9512  0.6787
  141OSM      P15400   0.433   6.711   5.922 -0.1161 -0.2273  0.3863
  141OSM    O1315401   0.503   6.840   5.916 -0.0511 -0.3168  0.2533
  141OSM    O1415402   0.362   6.671   5.799 -0.1111  0.0298  1.0848
  141OSM    O1115403   0.329   6.716   6.037 -0.0952 -0.0284 -0.0011
  141OSM    O1215404   0.534   6.599   5.974 -0.3577  0.6275 -0.3452
  141OSM    C1S15405   0.327   6.604   6.135 -0.0138  0.3800  0.2509
  141OSM    H1S15406   0.424   6.601   6.191 -0.3186  0.7495  0.8029
  141OSM    H1T15407   0.312   6.504   6.088 -2.4554  1.3845 -1.2588
  141OSM     NF15408   0.215   6.545   6.355  0.4253  0.5626 -0.0265
  141OSM    HNF15409   0.171   6.455   6.353  1.6372 -0.1673  2.2644
  141OSM    C2S15410   0.206   6.623   6.229  0.7003  0.8558 -0.0054
  141OSM    H2S15411   0.203   6.729   6.263  1.9121  0.7601  0.4506
  141OSM    C3S15412   0.074   6.596   6.156  0.1919 -0.0365  0.4045
  141OSM    H3S15413   0.081   6.490   6.123  0.9414 -0.1012  0.7296
  141OSM     O315414   0.053   6.676   6.043 -0.0135 -0.1767 -0.4438
  141OSM    HO315415   0.144   6.706   6.034  0.1562 -0.3403  0.6150
  141OSM    C4S15416  -0.037   6.606   6.261  0.2736  0.8409  0.4035
  141OSM    H4S15417  -0.035   6.531   6.341  0.1816  0.4406  0.0330
  141OSM    C5S15418  -0.131   6.695   6.277 -0.0896 -0.4012 -0.1247
  141OSM    H5S15419  -0.126   6.779   6.207  1.1356 -0.7197 -0.4550
  141OSM    C6S15420  -0.220   6.693   6.391  0.4873  0.9689 -0.2746
  141OSM    H6S15421  -0.293   6.609   6.383 -0.0789  1.1453  2.2451
  141OSM    H6T15422  -0.272   6.790   6.402  1.4878  1.4501  0.3035
  141OSM    C7S15423  -0.153   6.681   6.527  0.1360 -0.5930 -0.4455
  141OSM    H7S15424  -0.077   6.600   6.533 -0.4272 -1.1679 -0.9255
  141OSM    H7T15425  -0.221   6.666   6.613 -0.0142  2.2144  0.0324
  141OSM    C8S15426  -0.078   6.819   6.561  0.1554  0.2433 -0.3595
  141OSM    H8S15427  -0.154   6.899   6.579 -0.7880 -1.1411  2.3896
  141OSM    H8T15428  -0.015   6.855   6.477  0.0844 -0.2658 -0.6299
  141OSM    C9S15429   0.008   6.819   6.685  0.5859 -0.3460 -0.0209
  141OSM    H9S15430   0.050   6.920   6.703 -0.0967  0.1276 -1.0073
  141OSM    H9T15431   0.091   6.746   6.676  0.6406 -0.3403  0.3905
  141OSM   C10S15432  -0.071   6.797   6.816  0.3187 -0.2522 -0.5825
  141OSM   H10S15433  -0.124   6.699   6.815  1.7179 -1.0841  1.3292
  141OSM   H10T15434  -0.147   6.876   6.832  0.4569 -0.4256  1.0529
  141OSM   C11S15435   0.023   6.801   6.937  0.6128  0.3368 -0.4198
  141OSM   H11S15436   0.062   6.905   6.943 -2.5195  1.6246 -0.7030
  141OSM   H11T15437   0.102   6.729   6.908 -1.0086 -0.7833 -2.3111
  141OSM   C12S15438  -0.036   6.758   7.073 -0.1296  0.3937  0.2137
  141OSM   H12S15439  -0.067   6.653   7.087 -0.0366  0.4124  0.5667
  141OSM   H12T15440  -0.122   6.828   7.076  2.1397  3.3838  1.3926
  141OSM   C13S15441   0.052   6.793   7.198 -0.0943  0.3242 -0.1007
  141OSM   H13S15442   0.058   6.904   7.209  1.6600 -0.0621  5.0959
  141OSM   H13T15443   0.153   6.749   7.188  0.2338  0.7288  1.2224
  141OSM   C14S15444  -0.017   6.736   7.320  0.1743 -0.0420 -0.2068
  141OSM   H14S15445  -0.028   6.627   7.300  0.3385  0.0102 -0.5856
  141OSM   H14T15446  -0.113   6.787   7.342 -0.0370 -0.6909  0.4351
  141OSM   C15S15447   0.064   6.759   7.452 -0.6203  0.4212  1.2828
  141OSM   H15S15448   0.076   6.869   7.458 -1.4584  0.5267  1.1918
  141OSM   H15T15449   0.162   6.711   7.430 -0.7941  0.1916  1.0034
  141OSM   C16S15450  -0.006   6.708   7.570 -0.3077  0.6009  1.0038
  141OSM   H16S15451  -0.018   6.598   7.564 -0.4813  0.5039  2.7119
  141OSM   H16T15452  -0.108   6.751   7.563 -0.2536  0.5789 -0.0776
  141OSM   C17S15453   0.041   6.757   7.713 -0.2839  0.1767 -0.0207
  141OSM   H17S15454   0.024   6.867   7.711 -1.1546  0.1135  1.7338
  141OSM   H17T15455   0.150   6.740   7.725 -0.2597  1.5878  2.7511
  141OSM   C18S15456  -0.040   6.698   7.831  0.2391  0.1004 -0.3434
  141OSM   H18S15457  -0.045   6.587   7.831 -1.0875  0.1162 -2.2235
  141OSM   H18T15458  -0.142   6.740   7.818  1.3398  2.4526 -2.3561
  141OSM   H18U15459  -0.002   6.733   7.930 -0.9578 -0.2764  0.2594
  141OSM    C1F15460   0.294   6.568   6.459  0.2985 -0.3388  0.0541
  141OSM     OF15461   0.347   6.678   6.461 -0.6318 -0.4997 -0.0293
  141OSM    C2F15462   0.339   6.456   6.559  0.9040 -0.0862 -0.3990
  141OSM    H2F15463   0.449   6.439   6.558  0.9215  0.0070 -0.0876
  141OSM    H2G15464   0.288   6.362   6.530 -0.1163  0.8888 -1.9236
  141OSM    C3F15465   0.305   6.498   6.708  0.2588 -0.0259 -0.7167
  141OSM    H3F15466   0.196   6.521   6.706  0.1609 -0.5217 -1.9109
  141OSM    H3G15467   0.361   6.593   6.724 -0.3707  0.4233 -1.1324
  141OSM    C4F15468   0.342   6.408   6.826  0.0779 -0.2304 -0.2675
  141OSM    H4F15469   0.451   6.388   6.812 -0.0315  0.1027 -1.6892
  141OSM    H4G15470   0.293   6.309   6.818 -1.1876  0.3972 -0.5728
  141OSM    C5F15471   0.313   6.471   6.967 -0.0578 -0.2241  0.2710
  141OSM    H5F15472   0.214   6.520   6.976  1.5057  3.0138  1.4989
  141OSM    H5G15473   0.393   6.548   6.969  1.1032 -1.2826 -1.7188
  141OSM    C6F15474   0.337   6.378   7.087  0.2505 -0.1630 -0.0416
  141OSM    H6F15475   0.446   6.362   7.101  0.2433  0.4944  0.9170
  141OSM    H6G15476   0.303   6.274   7.065 -1.2827 -0.0380  1.5174
  141OSM    C7F15477   0.278   6.431   7.221 -0.1737  0.3786 -0.7087
  141OSM    H7F15478   0.172   6.462   7.209  0.6884  3.5759 -0.8815
  141OSM    H7G15479   0.328   6.526   7.250  1.3685  0.3722 -3.0669
  141OSM    C8F15480   0.308   6.337   7.334  0.1822 -1.1897 -0.0515
  141OSM    H8F15481   0.418   6.333   7.350  0.0006 -1.0458  1.3468
  141OSM    H8G15482   0.275   6.232   7.316  0.6309 -0.8924 -3.2581
  141OSM    C9F15483   0.244   6.390   7.465 -0.0390  0.3185 -0.1872
  141OSM    H9F15484   0.134   6.397   7.460 -0.3197 -3.0536 -2.5365
  141OSM   C10F15485   0.300   6.409   7.585  0.6692 -0.0870  0.0665
  141OSM   H10F15486   0.245   6.446   7.673  1.5481  2.1261 -0.2547
  141OSM   C11F15487   0.441   6.411   7.616 -0.5211 -0.4687  0.1907
  141OSM   H11F15488   0.494   6.431   7.520  0.7530  1.9684  1.2972
  141OSM   H11G15489   0.472   6.316   7.664 -0.2035  0.3417  1.6677
  141OSM   C12F15490   0.488   6.531   7.707 -0.3446 -0.2432  0.0005
  141OSM   H12F15491   0.440   6.626   7.676  1.4395  0.4954 -0.6702
  141OSM   H12G15492   0.598   6.545   7.697 -0.2350  1.9436  3.1491
  141OSM   C13F15493   0.461   6.507   7.861  0.1909 -0.3965  0.2286
  141OSM   H13F15494   0.532   6.425   7.887  0.1915  0.2738  2.5836
  141OSM   H13G15495   0.358   6.466   7.871  0.1678 -0.3368  0.2350
  141OSM   C14F15496   0.496   6.632   7.945  0.2054  0.0934 -0.3099
  141OSM   H14F15497   0.418   6.707   7.921 -0.3566 -0.3684  0.0480
  141OSM   H14G15498   0.591   6.677   7.911 -0.2039  0.9628 -0.3249
  141OSM   C15F15499   0.508   6.601   8.092 -0.4701 -0.1201  0.5343
  141OSM   H15F15500   0.600   6.648   8.134 -0.4261  1.5233 -1.2680
  141OSM   H15G15501   0.534   6.494   8.110 -0.0556 -0.0446  0.4052
  141OSM   C16F15502   0.383   6.640   8.167 -0.3772 -0.2784  0.4121
  141OSM   H16F15503   0.362   6.744   8.134  0.4077  0.5175  2.2288
  141OSM   H16G15504   0.413   6.652   8.274 -1.7080  2.0718  0.6030
  141OSM   C17F15505   0.254   6.568   8.123  0.0284  0.3068 -0.4623
  141OSM   H17F15506   0.285   6.471   8.080  0.1178  0.6573 -1.2075
  141OSM   H17G15507   0.215   6.614   8.029 -0.9214 -2.6182 -1.5969
  141OSM   C18F15508   0.156   6.553   8.238  0.0051  0.2658 -0.4411
  141OSM   H18F15509   0.060   6.501   8.217  0.6474 -0.6428 -1.2246
  141OSM   H18G15510   0.134   6.649   8.288 -1.0900 -0.9101  1.4675
  141OSM   H18H15511   0.200   6.491   8.319  0.1348  1.7884  0.6975
  142OSM      N15512   0.513   2.300   5.893 -0.1944 -0.3190  0.1268
  142OSM    C1515513   0.655   2.262   5.873 -0.1464  0.0304  0.2259
  142OSM   H15A15514   0.711   2.349   5.842 -0.0746 -0.8774 -2.4262
  142OSM   H15B15515   0.671   2.188   5.796 -1.3824  0.8508 -0.8666
  142OSM   H15C15516   0.692   2.221   5.966 -1.0424 -1.6636 -0.1204
  142OSM    C1415517   0.470   2.342   5.760  0.4671 -0.2352 -0.2464
  142OSM   H14A15518   0.363   2.337   5.752  0.3808 -3.5329  1.2330
  142OSM   H14B15519   0.509   2.272   5.689  1.2541 -0.4549  0.3842
  142OSM   H14C15520   0.510   2.436   5.724 -3.1346  1.2289 -0.8009
  142OSM    C1315521   0.434   2.178   5.939 -0.5438 -0.3326  0.2917
  142OSM   H13A15522   0.462   2.158   6.042 -1.9366 -2.1368  0.3696
  142OSM   H13B15523   0.461   2.091   5.881  1.9817  1.5684 -1.6058
  142OSM   H13C15524   0.328   2.196   5.940 -0.1515  2.5868 -0.9858
  142OSM    C1215525   0.501   2.401   6.009 -0.2596  0.5432 -0.2930
  142OSM   H12A15526   0.569   2.372   6.088 -0.1580 -0.1715 -0.6371
  142OSM   H12B15527   0.402   2.383   6.050 -0.2373 -1.1783 -0.8981
  142OSM    C1115528   0.534   2.550   5.971 -0.0236 -0.2618  0.6203
  142OSM   H11A15529   0.509   2.605   6.065 -1.4470  0.6814 -0.2620
  142OSM   H11B15530   0.467   2.592   5.892  0.3941  1.9080  1.3307
  142OSM      P15531   0.777   2.597   6.032 -0.2302  0.6439 -0.3577
  142OSM    O1315532   0.906   2.582   5.966 -0.3421 -0.3093 -0.0623
  142OSM    O1415533   0.754   2.732   6.090 -0.3127  0.1103 -0.0895
  142OSM    O1115534   0.764   2.485   6.145  0.0577  0.1524 -0.2969
  142OSM    O1215535   0.667   2.571   5.927  0.2339 -0.4870 -0.0723
  142OSM    C1S15536   0.859   2.487   6.251 -0.5098  0.4626  0.3390
  142OSM    H1S15537   0.871   2.590   6.290 -2.5365  1.1793 -0.7596
  142OSM    H1T15538   0.965   2.464   6.226 -0.7108  1.6684 -1.8413
  142OSM     NF15539   0.877   2.433   6.483 -0.0559  0.3382 -0.4814
  142OSM    HNF15540   0.922   2.364   6.539 -0.4969 -0.0044 -0.5472
  142OSM    C2S15541   0.822   2.387   6.363  0.0601  0.4771  0.4710
  142OSM    H2S15542   0.713   2.398   6.380 -0.3791  1.5322 -2.4494
  142OSM    C3S15543   0.848   2.241   6.316  0.1244 -0.1762  0.4899
  142OSM    H3S15544   0.954   2.224   6.290 -0.3211 -2.6856  0.0579
  142OSM     O315545   0.769   2.214   6.200 -0.3865 -0.1872 -0.1344
  142OSM    HO315546   0.740   2.303   6.176  0.2984 -0.2979 -1.5021
  142OSM    C4S15547   0.805   2.145   6.421 -0.2278  0.1413  0.3981
  142OSM    H4S15548   0.706   2.170   6.463 -0.4594 -1.6167  0.9929
  142OSM    C5S15549   0.861   2.039   6.473  0.0211 -0.0282  0.7552
  142OSM    H5S15550   0.959   2.019   6.425  0.2571  0.5049  1.0093
  142OSM    C6S15551   0.805   1.937   6.575  0.1846  0.4328 -0.0885
  142OSM    H6S15552   0.867   1.928   6.666 -2.3414 -2.2568  1.5279
  142OSM    H6T15553   0.826   1.835   6.535  1.7724  1.3104 -1.6645
  142OSM    C7S15554   0.656   1.933   6.614  0.3152  0.3454  0.1511
  142OSM    H7S15555   0.600   1.918   6.519  0.0700 -0.2250  0.3841
  142OSM    H7T15556   0.612   2.027   6.653 -1.4570 -0.0289 -0.8187
  142OSM    C8S15557   0.630   1.816   6.709  0.3848 -0.5121 -0.4670
  142OSM    H8S15558   0.703   1.822   6.793 -1.0342 -1.5667  0.8992
  142OSM    H8T15559   0.661   1.737   6.637  0.7255  0.8224 -1.8372
  142OSM    C9S15560   0.477   1.815   6.756  0.1869 -0.1047 -0.5767
  142OSM    H9S15561   0.404   1.783   6.679 -0.6661  1.5304 -0.4872
  142OSM    H9T15562   0.455   1.920   6.785  1.5217 -0.2764  1.2543
  142OSM   C10S15563   0.446   1.732   6.884 -0.6521  0.6740  0.0033
  142OSM   H10S15564   0.338   1.740   6.908 -0.8272  0.0178 -0.5285
  142OSM   H10T15565   0.508   1.769   6.968  0.1921 -1.2600  0.2903
  142OSM   C11S15566   0.490   1.583   6.874  0.1860  0.5690  0.2748
  142OSM   H11S15567   0.600   1.575   6.869  0.0650 -1.8506  0.2020
  142OSM   H11T15568   0.449   1.542   6.779  2.5989  1.9061 -1.4475
  142OSM   C12S15569   0.433   1.503   6.988 -0.1985  0.4402 -0.6329
  142OSM   H12S15570   0.484   1.405   6.999 -3.2555 -1.0764  1.7317
  142OSM   H12T15571   0.325   1.493   6.964 -0.8108  1.3077  1.4881
  142OSM   C13S15572   0.441   1.570   7.124 -0.2438 -0.5238  0.2142
  142OSM   H13S15573   0.382   1.665   7.121  1.0546  0.3428  0.9794
  142OSM   H13T15574   0.544   1.607   7.144 -1.9596  3.2381  3.5206
  142OSM   C14S15575   0.381   1.481   7.232  0.3670  0.3530  0.1244
  142OSM   H14S15576   0.431   1.382   7.238  1.4937  0.8917 -0.1225
  142OSM   H14T15577   0.273   1.462   7.215  0.2973 -0.5208  1.3657
  142OSM   C15S15578   0.390   1.539   7.370  0.9367  0.0469 -0.4125
  142OSM   H15S15579   0.351   1.643   7.370  0.0003 -0.2902 -0.0290
  142OSM   H15T15580   0.497   1.555   7.397  1.4473 -3.3032 -0.0591
  142OSM   C16S15581   0.320   1.456   7.477 -0.6430  0.6754 -0.2146
  142OSM   H16S15582   0.377   1.360   7.487  0.1940  1.1807 -0.0254
  142OSM   H16T15583   0.217   1.423   7.455 -0.7825  1.1575 -0.2887
  142OSM   C17S15584   0.321   1.533   7.603  0.0316  0.3632 -0.9666
  142OSM   H17S15585   0.274   1.633   7.589  2.4185  2.0147  1.5586
  142OSM   H17T15586   0.428   1.564   7.607  0.4730 -1.1669  0.1636
  142OSM   C18S15587   0.277   1.461   7.732  0.2501 -0.6388  0.2888
  142OSM   H18S15588   0.245   1.525   7.817  2.0591 -0.2351  0.7001
  142OSM   H18T15589   0.367   1.420   7.782  0.9750  0.3039 -0.2213
  142OSM   H18U15590   0.205   1.378   7.713  1.3299 -1.2531 -1.3067
  142OSM    C1F15591   0.847   2.547   6.545  0.0594 -0.5005  0.6355
  142OSM     OF15592   0.775   2.630   6.492  0.3579 -0.0072  0.0155
  142OSM    C2F15593   0.892   2.560   6.688  0.1294  0.2321  0.2226
  142OSM    H2F15594   0.991   2.509   6.692  0.8318  1.2090 -2.5195
  142OSM    H2G15595   0.815   2.521   6.758  2.2316 -1.8337  1.5238
  142OSM    C3F15596   0.905   2.709   6.733  0.6804 -0.9886  0.7019
  142OSM    H3F15597   0.806   2.760   6.733 -0.1955 -2.6382 -0.5092
  142OSM    H3G15598   0.949   2.761   6.645 -1.6520  1.3659  0.7859
  142OSM    C4F15599   0.968   2.747   6.868 -0.3938 -0.3319 -0.6593
  142OSM    H4F15600   0.978   2.858   6.864 -0.2614 -0.3564 -3.4754
  142OSM    H4G15601   1.076   2.721   6.875 -0.0355  1.2039 -0.0350
  142OSM    C5F15602   0.895   2.698   6.989  0.5441  0.3929 -0.4151
  142OSM    H5F15603   0.915   2.589   6.987 -1.5897 -0.0622 -2.9282
  142OSM    H5G15604   0.788   2.727   6.985  0.6036  0.6105 -0.4300
  142OSM    C6F15605   0.946   2.752   7.121 -0.7818 -0.3372 -0.7775
  142OSM    H6F15606   0.936   2.862   7.137  2.4902  0.0405 -0.6581
  142OSM    H6G15607   1.054   2.726   7.124 -0.3166  1.4865  1.4489
  142OSM    C7F15608   0.868   2.676   7.236 -0.6481 -0.1508 -0.1263
  142OSM    H7F15609   0.861   2.567   7.217 -1.8590 -0.3960  1.4963
  142OSM    H7G15610   0.763   2.712   7.234 -0.8887 -0.9076 -1.3201
  142OSM    C8F15611   0.925   2.700   7.375  0.5745 -0.7924  0.2081
  142OSM    H8F15612   0.855   2.681   7.460  0.2754 -1.5978 -0.2049
  142OSM    H8G15613   0.945   2.809   7.376  2.0784 -1.0318 -1.1398
  142OSM    C9F15614   1.051   2.623   7.404  0.1073 -0.0129  0.2246
  142OSM    H9F15615   1.102   2.587   7.313  1.1942 -0.5785  1.0438
  142OSM   C10F15616   1.102   2.593   7.518  0.2691 -0.5971 -0.5442
  142OSM   H10F15617   1.196   2.535   7.523  0.2434 -0.7243 -1.3765
  142OSM   C11F15618   1.048   2.629   7.664 -0.0741 -0.6898  0.7342
  142OSM   H11F15619   0.940   2.657   7.662 -0.1444 -0.8569  1.8997
  142OSM   H11G15620   1.096   2.715   7.715 -2.4838  0.9983  0.3685
  142OSM   C12F15621   1.070   2.503   7.751 -0.5929 -0.5076 -0.5360
  142OSM   H12F15622   1.050   2.534   7.856  1.7676  0.8477 -0.4138
  142OSM   H12G15623   1.175   2.472   7.738  0.7363  3.4581 -0.5807
  142OSM   C13F15624   0.963   2.392   7.724 -0.1592 -0.2483 -0.4775
  142OSM   H13F15625   1.000   2.322   7.646 -0.5242 -0.3810 -0.5344
  142OSM   H13G15626   0.872   2.435   7.677  0.1905  1.6367  0.4762
  142OSM   C14F15627   0.923   2.300   7.843 -0.4218 -0.2606 -0.1563
  142OSM   H14F15628   0.860   2.216   7.805 -1.1671 -0.8494  2.1916
  142OSM   H14G15629   0.859   2.370   7.901  0.3104 -0.1332  0.5146
  142OSM   C15F15630   1.037   2.243   7.933  0.1912  0.1296  0.0752
  142OSM   H15F15631   1.105   2.326   7.961  0.3081 -0.2085  0.8268
  142OSM   H15G15632   1.097   2.167   7.879 -1.3283 -0.6651 -0.5550
  142OSM   C16F15633   0.984   2.166   8.055 -0.5505  0.1151 -0.6604
  142OSM   H16F15634   1.081   2.150   8.107 -1.2970  1.3847  1.2313
  142OSM   H16G15635   0.941   2.079   8.001  1.0624  0.0008 -1.8590
  142OSM   C17F15636   0.883   2.238   8.143 -0.7806  0.1147  0.0759
  142OSM   H17F15637   0.796   2.271   8.082 -1.3468  0.2070  0.9219
  142OSM   H17G15638   0.932   2.333   8.175 -0.2428  0.3361 -1.3283
  142OSM   C18F15639   0.823   2.147   8.249 -0.1423  0.8263  0.8617
  142OSM   H18F15640   0.816   2.037   8.232  2.0626  1.0948 -2.8298
  142OSM   H18G15641   0.723   2.191   8.267 -0.6851 -0.1118  0.2615
  142OSM   H18H15642   0.887   2.148   8.339  1.4941  1.2405 -0.2575
  143OSM      N15643   3.209   2.315   5.845  0.2044 -0.7567  0.3484
  143OSM    C1515644   3.298   2.216   5.906 -0.0282  0.1078 -0.0664
  143OSM   H15A15645   3.383   2.263   5.954  1.5390 -2.5552 -0.0460
  143OSM   H15B15646   3.331   2.147   5.831 -1.5335 -1.7897  0.9329
  143OSM   H15C15647   3.242   2.152   5.972  0.7173  1.7229  2.2669
  143OSM    C1415648   3.088   2.258   5.793 -0.5164 -0.9214 -0.0810
  143OSM   H14A15649   3.022   2.335   5.755 -2.9239 -1.1734  3.1410
  143OSM   H14B15650   3.038   2.208   5.874  0.8153 -1.0455  0.7008
  143OSM   H14C15651   3.101   2.179   5.721  0.7099  0.0877 -1.0361
  143OSM    C1315652   3.181   2.396   5.965  0.6356  0.3872 -0.8974
  143OSM   H13A15653   3.102   2.468   5.949 -0.3086 -0.3155  0.4206
  143OSM   H13B15654   3.269   2.454   5.991 -0.0609  0.7558  0.7851
  143OSM   H13C15655   3.157   2.337   6.052  1.7333  1.9840  0.5558
  143OSM    C1215656   3.289   2.397   5.741 -0.1210  0.4712  1.2843
  143OSM   H12A15657   3.227   2.475   5.698  1.5329  2.1294  1.7681
  143OSM   H12B15658   3.304   2.328   5.659  2.1973  1.3772  0.8617
  143OSM    C1115659   3.411   2.479   5.784 -0.4419 -0.1792 -0.5344
  143OSM   H11A15660   3.460   2.509   5.688 -1.9860  1.4623 -0.8638
  143OSM   H11B15661   3.481   2.415   5.842  0.0857  0.9528  0.1291
  143OSM      P15662   3.406   2.740   5.840 -0.1880 -0.0656  0.0418
  143OSM    O1315663   3.548   2.756   5.880  0.2997 -0.9447  0.2452
  143OSM    O1415664   3.360   2.787   5.706 -0.4563 -0.0451 -0.5127
  143OSM    O1115665   3.318   2.793   5.952 -0.1679 -0.3539 -0.5739
  143OSM    O1215666   3.367   2.588   5.861  0.2104  0.0885  0.4078
  143OSM    C1S15667   3.308   2.728   6.082  0.0527 -0.0006  0.2135
  143OSM    H1S15668   3.388   2.761   6.152 -1.0330 -0.6394  1.8197
  143OSM    H1T15669   3.327   2.619   6.091  3.1050  0.5598  1.7467
  143OSM     NF15670   3.163   2.728   6.288 -0.3644  0.5281 -0.4711
  143OSM    HNF15671   3.105   2.652   6.317 -1.5223  0.3982 -2.8566
  143OSM    C2S15672   3.172   2.764   6.145  0.0958 -0.2375 -0.3134
  143OSM    H2S15673   3.143   2.871   6.141 -1.6709 -0.6539  0.1656
  143OSM    C3S15674   3.058   2.695   6.067  0.1246  0.0445  0.4012
  143OSM    H3S15675   3.064   2.585   6.080  1.3987  0.2699  1.9133
  143OSM     O315676   3.071   2.696   5.923 -0.1391  0.1720  0.1682
  143OSM    HO315677   3.151   2.744   5.901  0.4163 -1.3379 -1.3512
  143OSM    C4S15678   2.920   2.739   6.109  0.1569  0.2014  0.1571
  143OSM    H4S15679   2.902   2.846   6.127  0.5449 -0.0097  2.0400
  143OSM    C5S15680   2.823   2.647   6.135 -0.9135 -0.0458 -0.0255
  143OSM    H5S15681   2.833   2.539   6.113  1.1936  0.4740 -1.9766
  143OSM    C6S15682   2.685   2.690   6.168 -0.2048  0.3917  0.6211
  143OSM    H6S15683   2.607   2.619   6.135 -0.0390 -0.1881  1.4410
  143OSM    H6T15684   2.657   2.784   6.116 -1.2855 -0.7928 -1.0114
  143OSM    C7S15685   2.657   2.711   6.322  0.0213  0.0924 -0.2746
  143OSM    H7S15686   2.635   2.610   6.362  2.3824 -0.2656  0.2567
  143OSM    H7T15687   2.563   2.770   6.321 -1.4906 -2.1874  0.0936
  143OSM    C8S15688   2.766   2.796   6.390 -0.1147  0.1542 -0.7986
  143OSM    H8S15689   2.777   2.893   6.337 -0.5834  0.4914 -0.2927
  143OSM    H8T15690   2.861   2.740   6.396  1.5078  2.8937  2.6182
  143OSM    C9S15691   2.741   2.835   6.536 -0.3910 -0.4823  0.0829
  143OSM    H9S15692   2.636   2.871   6.547 -0.3591 -0.3789  0.0500
  143OSM    H9T15693   2.821   2.908   6.560  0.0908 -0.5360 -1.2612
  143OSM   C10S15694   2.759   2.715   6.630  0.6924 -0.6117 -0.2301
  143OSM   H10S15695   2.865   2.690   6.650  0.5367 -0.3305  0.9740
  143OSM   H10T15696   2.695   2.641   6.576 -0.6496  1.5223 -1.7104
  143OSM   C11S15697   2.703   2.723   6.765  0.6025 -0.5963 -0.3393
  143OSM   H11S15698   2.734   2.822   6.805  1.4112 -1.7271  2.0186
  143OSM   H11T15699   2.751   2.645   6.828  0.6958 -1.6805 -1.7026
  143OSM   C12S15700   2.547   2.702   6.770 -1.0154  0.0327  0.0676
  143OSM   H12S15701   2.525   2.594   6.761  1.4274 -0.5917  0.9718
  143OSM   H12T15702   2.502   2.764   6.689 -0.4634 -0.7588 -0.8599
  143OSM   C13S15703   2.492   2.753   6.899 -0.4019  0.3640 -1.0594
  143OSM   H13S15704   2.532   2.853   6.923  2.4022 -0.5579 -1.5913
  143OSM   H13T15705   2.523   2.686   6.982  0.6200  1.6225 -0.3939
  143OSM   C14S15706   2.339   2.757   6.894 -0.0172 -0.6144 -0.3780
  143OSM   H14S15707   2.303   2.653   6.906 -0.6315 -0.3639 -0.0153
  143OSM   H14T15708   2.307   2.808   6.801  0.2798 -0.1243 -0.2203
  143OSM   C15S15709   2.296   2.843   7.010  0.0744  0.3955 -0.4082
  143OSM   H15S15710   2.186   2.851   7.002 -0.0254 -1.0956 -0.8011
  143OSM   H15T15711   2.328   2.949   7.006  1.4708  0.0411  0.3576
  143OSM   C16S15712   2.330   2.784   7.148 -0.3450  0.0226  0.8349
  143OSM   H16S15713   2.435   2.814   7.168 -0.6383 -0.5278  3.4810
  143OSM   H16T15714   2.331   2.673   7.148  2.2769 -0.0489 -0.9280
  143OSM   C17S15715   2.237   2.836   7.255  0.3726 -0.4754 -0.0766
  143OSM   H17S15716   2.138   2.789   7.241 -1.6457  3.2163  0.4523
  143OSM   H17T15717   2.234   2.947   7.244  1.4253 -0.2162  1.7041
  143OSM   C18S15718   2.287   2.790   7.391 -0.7521 -0.6919 -0.3295
  143OSM   H18S15719   2.360   2.866   7.425 -0.8676  0.1277 -1.8373
  143OSM   H18T15720   2.334   2.689   7.392  0.8071 -0.0235 -1.9225
  143OSM   H18U15721   2.210   2.792   7.472 -1.6215 -1.6022 -1.0997
  143OSM    C1F15722   3.227   2.811   6.375 -0.3243  0.5996 -0.4024
  143OSM     OF15723   3.286   2.910   6.333  0.4198 -0.3097 -0.0037
  143OSM    C2F15724   3.233   2.788   6.521  0.3149  0.7420 -1.0255
  143OSM    H2F15725   3.278   2.689   6.548 -0.9151  0.1994 -0.9167
  143OSM    H2G15726   3.128   2.783   6.557  0.4673 -4.0391 -0.4852
  143OSM    C3F15727   3.302   2.900   6.603 -0.2697 -0.1834  0.7433
  143OSM    H3F15728   3.240   2.989   6.576 -0.9933 -1.4665 -2.2888
  143OSM    H3G15729   3.400   2.913   6.552 -1.6716  0.5751 -1.9868
  143OSM    C4F15730   3.311   2.866   6.751 -0.5798 -0.0939 -0.2345
  143OSM    H4F15731   3.388   2.921   6.809 -0.2648 -0.2074 -0.5389
  143OSM    H4G15732   3.353   2.764   6.760  2.9110  1.4113  2.5898
  143OSM    C5F15733   3.179   2.866   6.817 -0.0975  0.2279  0.1642
  143OSM    H5F15734   3.104   2.818   6.750  2.1614  0.1907 -2.5299
  143OSM    H5G15735   3.151   2.972   6.830  3.2524  1.6420 -2.4907
  143OSM    C6F15736   3.182   2.788   6.952  0.6729 -0.1141  0.3845
  143OSM    H6F15737   3.264   2.820   7.020  0.8624 -0.2117  0.2027
  143OSM    H6G15738   3.185   2.680   6.924  3.1586  0.4967 -2.1517
  143OSM    C7F15739   3.059   2.817   7.043 -0.3924  0.2535  0.9870
  143OSM    H7F15740   2.967   2.782   6.990 -0.4023  3.7631 -1.7258
  143OSM    H7G15741   3.059   2.928   7.055 -0.4912  0.4663 -0.6573
  143OSM    C8F15742   3.059   2.743   7.178  0.6247  0.1236 -0.3431
  143OSM    H8F15743   3.149   2.741   7.244  0.8244 -1.9717 -0.6260
  143OSM    H8G15744   3.057   2.640   7.136 -0.4678  0.0273 -0.0758
  143OSM    C9F15745   2.934   2.788   7.257 -0.2272 -0.0326 -0.1157
  143OSM    H9F15746   2.891   2.886   7.234  1.0741  0.8028  0.9219
  143OSM   C10F15747   2.880   2.725   7.363 -0.5925  0.1427  0.0416
  143OSM   H10F15748   2.796   2.775   7.414 -0.9307 -0.6686  0.2935
  143OSM   C11F15749   2.927   2.608   7.442 -0.0470 -0.3023 -0.8214
  143OSM   H11F15750   2.985   2.547   7.370  0.3753  1.6182 -2.1829
  143OSM   H11G15751   2.845   2.541   7.475  0.2237 -0.1049  0.2830
  143OSM   C12F15752   3.027   2.650   7.553  0.2453  0.4674 -0.0499
  143OSM   H12F15753   3.125   2.680   7.508  0.8413 -0.3572  0.6613
  143OSM   H12G15754   3.049   2.556   7.609 -4.0188 -0.8288 -0.1825
  143OSM   C13F15755   2.969   2.748   7.661  0.6863 -0.3185  0.3212
  143OSM   H13F15756   2.870   2.707   7.691 -1.2440  2.0389 -2.2727
  143OSM   H13G15757   2.954   2.840   7.601 -2.9516  0.0590  1.5503
  143OSM   C14F15758   3.081   2.753   7.766 -0.2152 -0.6647  1.3878
  143OSM   H14F15759   3.169   2.795   7.713 -0.6151 -1.5849 -0.0710
  143OSM   H14G15760   3.104   2.654   7.810 -0.0394 -0.5603  1.5322
  143OSM   C15F15761   3.052   2.849   7.882 -0.4182  0.0035  0.6542
  143OSM   H15F15762   3.021   2.947   7.840  0.9081 -0.3396 -1.1856
  143OSM   H15G15763   3.138   2.865   7.950 -1.5123 -0.5296  2.2454
  143OSM   C16F15764   2.941   2.793   7.967  0.3542 -0.2919  0.6283
  143OSM   H16F15765   2.981   2.691   7.987  1.3341 -0.2499 -0.9424
  143OSM   H16G15766   2.852   2.786   7.900  0.3031  1.4235  0.4666
  143OSM   C17F15767   2.915   2.851   8.106  0.6205  0.5560 -0.2115
  143OSM   H17F15768   2.838   2.784   8.150 -0.5720  1.0431 -1.4705
  143OSM   H17G15769   2.863   2.950   8.106 -2.3346 -0.8551  1.5645
  143OSM   C18F15770   3.048   2.865   8.190  0.1355 -0.2323 -0.2632
  143OSM   H18F15771   3.120   2.933   8.141 -1.2089  0.8294 -0.8278
  143OSM   H18G15772   3.099   2.766   8.191 -2.8862 -1.9657  1.9988
  143OSM   H18H15773   3.034   2.900   8.294  2.5003 -0.0861  0.0631
  144OSM      N15774   0.783   3.673   5.656 -0.3536 -0.0546 -0.2194
  144OSM    C1515775   0.906   3.643   5.569  0.1635  1.2779 -0.5772
  144OSM   H15A15776   0.965   3.560   5.605  0.3595  1.6255 -0.0741
  144OSM   H15B15777   0.973   3.728   5.565  0.8768  0.6646 -2.6846
  144OSM   H15C15778   0.871   3.614   5.471 -0.5176  0.0353  0.0081
  144OSM    C1415779   0.706   3.772   5.590 -0.5143 -0.1944 -0.5052
  144OSM   H14A15780   0.685   3.741   5.489 -1.6110  0.7828 -0.5986
  144OSM   H14B15781   0.761   3.863   5.572 -1.0934  0.7697  2.0587
  144OSM   H14C15782   0.606   3.787   5.629 -0.6111 -1.2519 -0.3122
  144OSM    C1315783   0.704   3.546   5.660 -0.8854 -0.3238  0.4902
  144OSM   H13A15784   0.699   3.506   5.560  3.9518  0.4656 -0.3028
  144OSM   H13B15785   0.604   3.561   5.697 -0.1598  1.2578  1.9296
  144OSM   H13C15786   0.752   3.467   5.716  1.2682  1.3318  1.1034
  144OSM    C1215787   0.820   3.722   5.789  0.8076 -0.0285 -0.4541
  144OSM   H12A15788   0.841   3.641   5.857  2.1845 -0.1703 -1.0155
  144OSM   H12B15789   0.729   3.766   5.830  0.1053 -1.7770 -0.0733
  144OSM    C1115790   0.923   3.830   5.801 -0.0184 -0.1701  0.3170
  144OSM   H11A15791   0.923   3.880   5.900 -0.3703  1.6368 -0.5661
  144OSM   H11B15792   0.900   3.908   5.726  1.4638  1.4997  1.5292
  144OSM      P15793   1.193   3.841   5.838  0.1928 -0.4462  0.2154
  144OSM    O1315794   1.302   3.745   5.869 -0.2386  0.6094 -0.7786
  144OSM    O1415795   1.234   3.944   5.740  0.6033 -0.2638 -0.3679
  144OSM    O1115796   1.144   3.904   5.974 -0.4974  0.5181  0.4036
  144OSM    O1215797   1.058   3.768   5.777 -0.5565  0.0821  0.0098
  144OSM    C1S15798   1.235   3.973   6.059 -0.2174 -0.0201  0.2367
  144OSM    H1S15799   1.246   4.079   6.028 -0.4511  0.5451  1.9563
  144OSM    H1T15800   1.338   3.933   6.062  1.1900  2.9316 -2.8192
  144OSM     NF15801   1.260   4.067   6.290  0.3059  0.0233 -0.2426
  144OSM    HNF15802   1.330   4.037   6.355  0.1578  2.8933  1.3745
  144OSM    C2S15803   1.182   3.977   6.208 -0.9335 -0.5916 -0.8996
  144OSM    H2S15804   1.079   4.019   6.205 -0.4702  0.5462 -1.4592
  144OSM    C3S15805   1.170   3.829   6.259 -0.2796 -0.3562  0.3918
  144OSM    H3S15806   1.270   3.786   6.278 -0.8704 -2.0154 -0.1259
  144OSM     O315807   1.096   3.737   6.176  0.1262  0.0272 -0.0247
  144OSM    HO315808   1.111   3.779   6.091  3.6768 -0.0374  0.4138
  144OSM    C4S15809   1.096   3.831   6.393  0.6391 -0.0064 -0.4423
  144OSM    H4S15810   0.987   3.831   6.377  0.4915 -2.0284  0.2266
  144OSM    C5S15811   1.153   3.832   6.515  0.3796  0.5559  0.3047
  144OSM    H5S15812   1.263   3.829   6.514  0.3705  0.1221 -0.2264
  144OSM    C6S15813   1.092   3.869   6.649 -0.1485  0.1115  0.8488
  144OSM    H6S15814   1.048   3.778   6.697 -1.1286 -0.7786 -1.5649
  144OSM    H6T15815   1.002   3.931   6.627 -1.3643 -2.0196 -0.5390
  144OSM    C7S15816   1.175   3.949   6.741 -0.2646 -0.4006 -0.5380
  144OSM    H7S15817   1.200   4.045   6.691 -0.7926  0.0493  0.0342
  144OSM    H7T15818   1.263   3.888   6.768 -0.1186  0.2504  0.5319
  144OSM    C8S15819   1.104   3.979   6.880  0.3465 -1.0307 -0.7765
  144OSM    H8S15820   1.071   3.883   6.924  1.3894 -2.0534 -2.1226
  144OSM    H8T15821   1.009   4.032   6.856  0.2301 -0.9229 -0.0947
  144OSM    C9S15822   1.177   4.055   6.980 -0.5313  0.3846  0.1111
  144OSM    H9S15823   1.196   4.161   6.952 -0.8754  0.0570 -1.4568
  144OSM    H9T15824   1.278   4.012   6.997 -0.9413 -1.3863 -1.6051
  144OSM   C10S15825   1.094   4.045   7.116 -0.3339  0.4326  0.0118
  144OSM   H10S15826   1.095   3.940   7.151  0.2756 -0.1106 -1.5672
  144OSM   H10T15827   0.991   4.078   7.089 -0.1742  0.2329 -0.8789
  144OSM   C11S15828   1.154   4.135   7.225  0.1065 -0.3917  0.0929
  144OSM   H11S15829   1.159   4.244   7.202  0.8699 -0.4388  0.0175
  144OSM   H11T15830   1.261   4.121   7.248  0.0153  0.9062  1.4264
  144OSM   C12S15831   1.083   4.104   7.365 -0.1504  0.6291  0.2235
  144OSM   H12S15832   1.097   3.994   7.380 -0.6190  0.3242 -1.3495
  144OSM   H12T15833   0.972   4.110   7.361 -0.3090 -0.3477  1.9605
  144OSM   C13S15834   1.148   4.176   7.483  0.2253  0.4187  0.0842
  144OSM   H13S15835   1.121   4.283   7.474  3.2605  1.3139  0.6491
  144OSM   H13T15836   1.256   4.159   7.467  0.9150  3.0852  1.4015
  144OSM   C14S15837   1.111   4.118   7.614  0.6591  0.9820 -0.2660
  144OSM   H14S15838   1.002   4.135   7.628  0.3028 -1.6629  0.7813
  144OSM   H14T15839   1.171   4.177   7.686 -1.5021  4.6769 -1.2105
  144OSM   C15S15840   1.130   3.963   7.624 -0.1472 -0.6655  0.9152
  144OSM   H15S15841   1.210   3.934   7.553  1.6369  1.5484  1.9203
  144OSM   H15T15842   1.033   3.915   7.596 -0.9961  1.1555  0.6273
  144OSM   C16S15843   1.160   3.916   7.768  0.2560  0.0377 -0.2750
  144OSM   H16S15844   1.077   3.931   7.840  2.4681 -0.5996  2.5602
  144OSM   H16T15845   1.242   3.976   7.812 -0.0580  0.0670  0.2829
  144OSM   C17S15846   1.199   3.771   7.772 -0.0654 -0.0100  0.3832
  144OSM   H17S15847   1.283   3.757   7.700  0.8002  3.5269  0.5564
  144OSM   H17T15848   1.112   3.709   7.739  0.5744  0.0944 -1.6732
  144OSM   C18S15849   1.228   3.723   7.913 -0.8221 -0.1504  0.0854
  144OSM   H18S15850   1.305   3.781   7.968 -1.2729  0.5855 -0.0443
  144OSM   H18T15851   1.251   3.615   7.911 -2.6252 -0.5855  0.8072
  144OSM   H18U15852   1.141   3.737   7.980  0.3596  1.2024  1.4313
  144OSM    C1F15853   1.245   4.197   6.276  0.2417 -0.4225  0.6008
  144OSM     OF15854   1.170   4.244   6.190 -0.1906  0.2464 -0.1742
  144OSM    C2F15855   1.313   4.287   6.382 -0.0326 -0.5925  0.1710
  144OSM    H2F15856   1.244   4.374   6.382  2.2492  1.3136 -1.0670
  144OSM    H2G15857   1.406   4.317   6.329 -1.4263 -1.5899 -3.1399
  144OSM    C3F15858   1.342   4.221   6.516  0.2214 -0.3292  0.5898
  144OSM    H3F15859   1.409   4.133   6.506 -0.2509 -0.7731  1.2696
  144OSM    H3G15860   1.247   4.182   6.559 -0.8314  3.1654  1.7611
  144OSM    C4F15861   1.402   4.318   6.616  0.0879  0.1411  0.0075
  144OSM    H4F15862   1.329   4.395   6.648 -0.6888 -0.2236 -0.8569
  144OSM    H4G15863   1.485   4.374   6.567 -0.0796 -1.6549 -2.5464
  144OSM    C5F15864   1.452   4.242   6.745 -0.1395  0.8544 -0.1250
  144OSM    H5F15865   1.527   4.163   6.722 -0.0430  0.8919  0.0584
  144OSM    H5G15866   1.367   4.197   6.799  1.3493 -0.3450  1.3159
  144OSM    C6F15867   1.514   4.346   6.837 -0.0786  0.7650 -0.1645
  144OSM    H6F15868   1.431   4.414   6.865  1.3163  3.7667 -2.6820
  144OSM    H6G15869   1.587   4.400   6.772  1.1957 -0.9661 -0.2633
  144OSM    C7F15870   1.581   4.283   6.963  0.5437  0.4657 -0.2425
  144OSM    H7F15871   1.664   4.219   6.925  1.7455  1.0632  1.2807
  144OSM    H7G15872   1.507   4.210   7.002  0.6500  1.0719  1.1511
  144OSM    C8F15873   1.615   4.383   7.083 -0.2601 -0.2387 -0.5053
  144OSM    H8F15874   1.524   4.424   7.132 -1.1794 -0.9485 -1.5763
  144OSM    H8G15875   1.673   4.466   7.038  0.9147  0.0531  1.4273
  144OSM    C9F15876   1.689   4.294   7.177 -0.9351 -0.5486  0.2668
  144OSM    H9F15877   1.785   4.257   7.138 -0.0875  0.2788  1.4976
  144OSM   C10F15878   1.643   4.262   7.297  0.1642  0.1487 -0.3104
  144OSM   H10F15879   1.712   4.208   7.364  1.3923  0.1599 -1.5223
  144OSM   C11F15880   1.517   4.313   7.368 -0.5840  0.3484 -0.3900
  144OSM   H11F15881   1.431   4.254   7.329  0.4269 -0.2561 -1.7601
  144OSM   H11G15882   1.502   4.419   7.339  0.1182  0.8099  0.8588
  144OSM   C12F15883   1.503   4.314   7.531 -0.6815  0.3801  0.4193
  144OSM   H12F15884   1.397   4.341   7.552 -0.7508 -1.6887  3.3616
  144OSM   H12G15885   1.573   4.393   7.564 -0.1586 -0.1540  0.6189
  144OSM   C13F15886   1.531   4.184   7.597  0.7507  0.6441 -0.3917
  144OSM   H13F15887   1.623   4.133   7.561  1.4384  1.4356  0.2145
  144OSM   H13G15888   1.452   4.116   7.558  0.5581  0.6782 -0.0629
  144OSM   C14F15889   1.515   4.175   7.748  0.1510 -0.2662 -0.4263
  144OSM   H14F15890   1.526   4.068   7.775  0.9627 -0.0502  0.1421
  144OSM   H14G15891   1.409   4.196   7.776 -0.0726 -2.6637  0.7888
  144OSM   C15F15892   1.621   4.254   7.828 -0.5322  0.1081  0.4658
  144OSM   H15F15893   1.624   4.363   7.803 -0.9361 -0.4626 -2.5377
  144OSM   H15G15894   1.719   4.226   7.783 -0.5430  2.4609 -1.1901
  144OSM   C16F15895   1.612   4.230   7.979 -0.0476  0.4026  0.3109
  144OSM   H16F15896   1.601   4.121   7.998  0.3335  0.1284 -0.9444
  144OSM   H16G15897   1.520   4.273   8.024  0.1520  0.2890  0.8377
  144OSM   C17F15898   1.724   4.285   8.065 -0.4950  0.6361  0.6661
  144OSM   H17F15899   1.731   4.393   8.036  0.9702  0.3737 -0.0601
  144OSM   H17G15900   1.818   4.238   8.029 -1.6245  0.4788 -2.3949
  144OSM   C18F15901   1.710   4.269   8.217  0.0990  0.4663 -0.1784
  144OSM   H18F15902   1.626   4.332   8.253  0.2523  0.5859 -0.0275
  144OSM   H18G15903   1.807   4.308   8.254 -0.1964  0.1954  0.9350
  144OSM   H18H15904   1.703   4.162   8.247  0.8318  0.6872  0.8311
  145SAPE     N15905   4.707   3.881  10.503 -0.7550  0.0768 -0.2374
  145SAPE   HN115906   4.805   3.863  10.476 -1.9333 -1.5202 -4.1272
  145SAPE   HN215907   4.650   3.816  10.444 -1.9256  1.8904 -1.1824
  145SAPE   HN315908   4.692   3.975  10.462  0.4537  0.6842  0.6531
  145SAPE   C1215909   4.642   3.868  10.638 -1.2089 -0.6114 -0.3015
  145SAPE  H12A15910   4.682   3.953  10.697 -1.3710 -1.4086  1.0019
  145SAPE  H12B15911   4.668   3.771  10.685  1.1876  0.7982  1.5100
  145SAPE   C1115912   4.489   3.892  10.625  0.6628  0.8596 -0.1960
  145SAPE  H11A15913   4.456   3.975  10.692 -3.1383 -0.4999 -0.1139
  145SAPE  H11B15914   4.443   3.797  10.659  2.3277  0.4029  0.8977
  145SAPE     P15915   4.291   3.969  10.469  0.0294  0.2780 -0.0275
  145SAPE   O1315916   4.210   3.868  10.539  0.0526  0.6757  0.2080
  145SAPE   O1415917   4.285   4.103  10.526  0.0634 -0.1577  0.7552
  145SAPE   O1215918   4.448   3.920  10.492 -0.3960  0.1797  0.1762
  145SAPE   O1115919   4.282   3.972  10.312  0.3712  0.4307  0.3380
  145SAPE    C115920   4.277   3.854  10.241  0.3457  0.0939  0.0179
  145SAPE    HA15921   4.240   3.770  10.304 -0.7848  2.3305  2.5331
  145SAPE    HB15922   4.216   3.866  10.149  1.2732 -1.8734 -0.9221
  145SAPE    C215923   4.415   3.811  10.200  0.2778  0.4382  0.3108
  145SAPE    HS15924   4.461   3.788  10.298 -0.5083 -1.7715  0.2228
  145SAPE   O2115925   4.483   3.915  10.125  0.0245 -0.8615 -0.0967
  145SAPE   C2115926   4.616   3.905  10.129 -0.0324  0.4676 -0.3114
  145SAPE   O2215927   4.678   3.844  10.213 -0.0961  0.4868 -0.0750
  145SAPE   C2215928   4.684   3.973  10.019 -0.1706 -0.1015  0.2502
  145SAPE   H2R15929   4.640   4.076  10.021  0.8003  0.3585 -0.8569
  145SAPE   H2S15930   4.791   3.992  10.039 -0.0662  1.0406 -1.2451
  145SAPE    C315931   4.429   3.679  10.119  0.5629 -0.2852 -0.2329
  145SAPE    HX15932   4.373   3.593  10.162  1.4047 -1.5416 -1.5474
  145SAPE    HY15933   4.537   3.655  10.117  0.4574 -0.7267 -0.9368
  145SAPE   O3115934   4.398   3.704   9.979 -0.6246 -0.1808 -0.2059
  145SAPE   C3115935   4.316   3.613   9.926 -0.2666  0.2634  0.0158
  145SAPE   O3215936   4.261   3.517   9.982  0.2504  0.0939  0.7526
  145SAPE   C3215937   4.272   3.658   9.786  0.3215  0.2173  0.3520
  145SAPE   H2X15938   4.247   3.766   9.797  1.8786  0.5384  1.0266
  145SAPE   H2Y15939   4.189   3.593   9.751 -0.8014  2.7166 -2.0428
  145SAPE   C2315940   4.671   3.898   9.893  1.1609  0.6108  0.2092
  145SAPE   H3R15941   4.569   3.864   9.864  1.9899 -1.4211 -0.4746
  145SAPE   H3S15942   4.717   3.798   9.909 -2.2246 -1.2413 -0.4906
  145SAPE   C2415943   4.743   3.969   9.778 -0.2604 -0.2481  0.3470
  145SAPE   H4R15944   4.736   3.905   9.687 -0.4252 -1.2189  1.0307
  145SAPE   H4S15945   4.850   3.978   9.804  0.3835 -2.0723 -1.4223
  145SAPE   C2515946   4.685   4.103   9.729  0.0889  0.4320 -0.6237
  145SAPE   H5R15947   4.681   4.173   9.814 -0.8378  1.7076 -1.6737
  145SAPE   C2615948   4.635   4.153   9.615 -0.0417 -0.5565 -0.1544
  145SAPE   H6R15949   4.594   4.255   9.611 -0.3181 -0.6444  0.3332
  145SAPE   C2715950   4.634   4.083   9.484  0.2675 -0.3759  0.6922
  145SAPE   H7R15951   4.663   3.977   9.495  0.7363 -0.5238 -1.4849
  145SAPE   H7S15952   4.716   4.126   9.423 -0.4762  0.7892  0.4732
  145SAPE   C2815953   4.502   4.090   9.410  0.4493  0.2444  0.5146
  145SAPE   H8R15954   4.415   4.079   9.477  0.4645  0.4379  0.5678
  145SAPE   C2915955   4.490   4.114   9.278 -0.0996 -0.0581 -0.1391
  145SAPE   H9R15956   4.391   4.109   9.229  0.6316  0.9315 -1.8293
  145SAPE  C21015957   4.597   4.129   9.171  0.1318  0.0594  0.1634
  145SAPE  H10R15958   4.622   4.042   9.106 -0.9985 -0.7721  0.8200
  145SAPE  H10S15959   4.691   4.154   9.224 -0.9001  3.0923  0.7627
  145SAPE  C21115960   4.579   4.241   9.073 -0.2227 -0.1603  0.2599
  145SAPE  H11R15961   4.618   4.339   9.104 -0.3852 -0.0668  0.1723
  145SAPE  C21215962   4.536   4.237   8.944  1.0009  0.3379 -1.0136
  145SAPE  H12R15963   4.551   4.333   8.893 -0.7202  0.8505 -0.6116
  145SAPE  C21315964   4.467   4.130   8.864  0.2462 -0.4797 -0.0897
  145SAPE  H13R15965   4.530   4.040   8.884  2.0281  0.9523  1.0258
  145SAPE  H13S15966   4.498   4.152   8.759 -1.9357 -3.3270 -1.4820
  145SAPE  C21415967   4.318   4.102   8.885 -0.2424  0.9097 -0.8056
  145SAPE  H14R15968   4.302   4.007   8.938  1.8191  0.3598 -1.0883
  145SAPE  C21515969   4.219   4.156   8.821  0.1176  0.2655 -0.2261
  145SAPE  H15R15970   4.117   4.138   8.858 -0.2416  0.9248 -0.8627
  145SAPE  C21615971   4.237   4.276   8.726 -0.2242  0.3100  0.0972
  145SAPE  H16R15972   4.180   4.251   8.634 -0.7621 -0.6158  0.6621
  145SAPE  H16S15973   4.344   4.298   8.704  0.2173 -1.4936  0.2555
  145SAPE  C21715974   4.159   4.398   8.791 -0.2708  0.3527 -0.4853
  145SAPE  H17R15975   4.211   4.443   8.879 -0.9406  0.3824 -0.0936
  145SAPE  H17S15976   4.065   4.370   8.843 -0.3918 -0.2140 -1.0133
  145SAPE  C21815977   4.138   4.516   8.695  0.2455  0.2395  0.5428
  145SAPE  H18R15978   4.075   4.474   8.614  0.2843  2.5161 -0.7594
  145SAPE  H18S15979   4.235   4.542   8.646 -0.2219 -0.3954 -0.7639
  145SAPE  C21915980   4.072   4.642   8.754  0.0676 -0.4524 -0.0994
  145SAPE  H19R15981   4.117   4.680   8.848  0.1375  3.7044 -1.6139
  145SAPE  H19S15982   3.975   4.597   8.783  0.8242 -1.0588  1.6027
  145SAPE  C22015983   4.041   4.762   8.657  0.0290 -0.0534 -0.4480
  145SAPE  H20R15984   3.986   4.725   8.567  0.4972  0.2167 -0.8482
  145SAPE  H20S15985   4.138   4.814   8.643  1.2785 -2.7161 -2.5904
  145SAPE  H20T15986   3.971   4.839   8.696  0.2435  0.4491 -1.0541
  145SAPE   C3315987   4.391   3.656   9.683  0.5208  0.2684 -0.8501
  145SAPE   H3X15988   4.434   3.553   9.682  0.2298  0.0603  1.6201
  145SAPE   H3Y15989   4.481   3.718   9.704  0.6276 -0.7027  2.0567
  145SAPE   C3415990   4.350   3.692   9.535 -0.0977 -0.2161  0.3367
  145SAPE   H4X15991   4.304   3.792   9.544  0.2706  0.0319 -0.4441
  145SAPE   H4Y15992   4.276   3.615   9.505  0.6189 -1.0304  0.6166
  145SAPE   C3515993   4.473   3.717   9.438  0.3283  0.1532  0.4124
  145SAPE   H5X15994   4.528   3.620   9.436  2.2591  1.2089 -1.7128
  145SAPE   H5Y15995   4.537   3.805   9.459 -0.2007  0.9702 -1.2734
  145SAPE   C3615996   4.418   3.735   9.295 -0.0439  0.5746 -0.1318
  145SAPE   H6X15997   4.388   3.841   9.278 -1.0507  0.3160 -0.0405
  145SAPE   H6Y15998   4.326   3.673   9.291 -0.3518  0.9781  0.4542
  145SAPE   C3715999   4.504   3.698   9.178  0.2429  0.0522  0.6876
  145SAPE   H7X16000   4.517   3.588   9.181 -0.0421 -0.0762 -1.4011
  145SAPE   H7Y16001   4.603   3.746   9.194  1.2232 -1.8630  0.6417
  145SAPE   C3816002   4.443   3.741   9.038 -0.3477 -0.2151  0.2298
  145SAPE   H8X16003   4.531   3.743   8.970  0.0453  1.1936  0.7384
  145SAPE   H8Y16004   4.405   3.842   9.064 -0.2099 -0.4711  1.5266
  145SAPE   C3916005   4.329   3.653   8.978  0.0151  0.0208 -0.0253
  145SAPE   H9X16006   4.245   3.646   9.050  0.3321 -1.3431  0.2361
  145SAPE   H9Y16007   4.358   3.550   8.949  1.4251  0.7801 -1.4890
  145SAPE  C31016008   4.287   3.697   8.842 -0.3435 -0.1384  0.2199
  145SAPE  H10X16009   4.254   3.801   8.863 -2.6537 -0.6795 -0.4086
  145SAPE  H10Y16010   4.194   3.643   8.811  0.1185 -1.0349  0.3426
  145SAPE  C31116011   4.400   3.695   8.738 -0.7878  0.5563 -0.1991
  145SAPE  H11X16012   4.427   3.587   8.733 -0.8254  0.4311  1.5723
  145SAPE  H11Y16013   4.491   3.740   8.782  0.3137  0.9657 -2.7144
  145SAPE  C31216014   4.362   3.745   8.599 -0.2996  0.3691 -0.2583
  145SAPE  H12X16015   4.269   3.698   8.563 -0.3111  1.4020 -1.6567
  145SAPE  H12Y16016   4.441   3.703   8.533  0.2422 -1.6083  1.5460
  145SAPE  C31316017   4.353   3.896   8.590 -0.1043 -0.9791  0.3389
  145SAPE  H13X16018   4.437   3.937   8.650  1.3317  0.4679 -2.4660
  145SAPE  H13Y16019   4.258   3.931   8.635  0.9273  3.4842 -0.4704
  145SAPE  C31416020   4.352   3.948   8.441 -0.5155 -0.6283 -0.2309
  145SAPE  H14X16021   4.250   3.925   8.401 -0.2483  0.7372 -1.8041
  145SAPE  H14Y16022   4.434   3.904   8.380  0.6378  2.7711 -1.3418
  145SAPE  C31516023   4.386   4.096   8.428  0.0740 -0.8109 -0.2688
  145SAPE  H15X16024   4.488   4.121   8.463 -0.7233  1.6249  0.5344
  145SAPE  H15Y16025   4.328   4.150   8.506  1.7640 -0.3173  0.6950
  145SAPE  C31616026   4.367   4.159   8.291 -0.1742  0.3613 -0.4051
  145SAPE  H16X16027   4.265   4.130   8.255  0.6140 -3.2311 -0.1097
  145SAPE  H16Y16028   4.447   4.123   8.223  0.8083  0.4753  0.6727
  145SAPE  C31716029   4.391   4.311   8.275 -0.2391  0.6582 -0.2327
  145SAPE  H17X16030   4.391   4.344   8.169 -1.6032  2.5474  0.3166
  145SAPE  H17Y16031   4.491   4.331   8.318  0.5662 -1.8102 -0.7992
  145SAPE  C31816032   4.274   4.401   8.342  0.1856  0.0637  0.1897
  145SAPE  H18X16033   4.277   4.508   8.312  1.4478  0.4551  1.5920
  145SAPE  H18Y16034   4.289   4.402   8.452 -0.7829 -0.6044  0.3447
  145SAPE  H18Z16035   4.170   4.365   8.329  0.2121  0.4011 -1.0464
  146SAPE     N16036   3.858   5.910  10.456  0.2217  0.3474  0.2039
  146SAPE   HN116037   3.839   5.958  10.546  1.1717  2.0874 -0.4652
  146SAPE   HN216038   3.781   5.847  10.427  1.6005 -1.7795  0.8830
  146SAPE   HN316039   3.945   5.856  10.475  1.0197  0.9676 -1.4457
  146SAPE   C1216040   3.897   6.000  10.343 -0.3360  0.3390 -0.2208
  146SAPE  H12A16041   3.896   5.938  10.250 -2.7097 -0.8669  0.5173
  146SAPE  H12B16042   3.999   6.039  10.362  1.4744 -2.9116 -2.2834
  146SAPE   C1116043   3.797   6.120  10.344  0.1540  0.3886  0.2196
  146SAPE  H11A16044   3.703   6.063  10.331  2.1822 -2.9396 -1.0918
  146SAPE  H11B16045   3.808   6.176  10.248  0.0343 -2.9162 -1.8730
  146SAPE     P16046   3.906   6.299  10.499  0.1152  0.1510 -0.0447
  146SAPE   O1316047   3.832   6.428  10.514  0.4730  0.0182 -0.7766
  146SAPE   O1416048   3.969   6.248  10.619 -0.7998 -0.1579 -0.4400
  146SAPE   O1216049   3.795   6.191  10.463 -0.3136 -0.0629  0.0202
  146SAPE   O1116050   4.002   6.304  10.370  0.6068  0.0132 -0.1035
  146SAPE    C116051   4.064   6.429  10.332  0.0103  0.3625 -0.5523
  146SAPE    HA16052   3.994   6.513  10.350  0.5649  0.4001  1.7919
  146SAPE    HB16053   4.163   6.448  10.376 -0.2432  0.3636  0.0266
  146SAPE    C216054   4.092   6.428  10.177 -0.2042 -0.7425  0.1116
  146SAPE    HS16055   3.998   6.417  10.120  0.1364 -2.8238 -0.1309
  146SAPE   O2116056   4.180   6.317  10.146  0.3222 -0.5709 -0.0066
  146SAPE   C2116057   4.129   6.200  10.131  0.5394  1.1580 -0.6823
  146SAPE   O2216058   4.012   6.175  10.107  0.2997 -0.1608 -0.6198
  146SAPE   C2216059   4.243   6.105  10.100 -0.1553  0.3969 -0.2612
  146SAPE   H2R16060   4.340   6.156  10.120  1.1940 -2.5089  1.1571
  146SAPE   H2S16061   4.230   6.026  10.177  1.9189 -0.0211 -0.2874
  146SAPE    C316062   4.154   6.569  10.129  0.5903 -0.0141  0.6047
  146SAPE    HX16063   4.237   6.598  10.196 -0.2984  0.0094  1.7295
  146SAPE    HY16064   4.071   6.643  10.126 -2.1744 -2.9215 -1.4934
  146SAPE   O3116065   4.208   6.564   9.998 -0.2254  0.6986 -0.2989
  146SAPE   C3116066   4.118   6.542   9.894 -0.1384  0.7598 -0.6654
  146SAPE   O3216067   3.994   6.530   9.908 -0.2550 -0.0726  0.1606
  146SAPE   C3216068   4.196   6.530   9.766  0.1934  0.8451 -0.4003
  146SAPE   H2X16069   4.223   6.423   9.764  0.1387  0.8165 -2.5277
  146SAPE   H2Y16070   4.281   6.602   9.765  0.7519  0.1935 -1.1459
  146SAPE   C2316071   4.234   6.046   9.958  0.1814  0.1378  0.2511
  146SAPE   H3R16072   4.258   6.130   9.889  0.0142  0.0691  0.1076
  146SAPE   H3S16073   4.134   6.004   9.936  0.1535  0.4866 -0.3256
  146SAPE   C2416074   4.344   5.942   9.933  0.2516 -0.5082  0.1814
  146SAPE   H4R16075   4.336   5.877  10.022 -0.5260  1.1899  1.3912
  146SAPE   H4S16076   4.447   5.982   9.930  0.7246 -1.4960  1.9384
  146SAPE   C2516077   4.315   5.873   9.804 -0.2870 -0.2488  0.2088
  146SAPE   H5R16078   4.297   5.928   9.710 -1.7653  0.5731  0.9459
  146SAPE   C2616079   4.320   5.743   9.794 -0.2839 -0.3821  0.0126
  146SAPE   H6R16080   4.306   5.686   9.701 -1.7938 -0.2882  0.1536
  146SAPE   C2716081   4.325   5.640   9.907 -0.0797  0.5233  0.7768
  146SAPE   H7R16082   4.308   5.684  10.008 -0.2703 -0.1304  1.0330
  146SAPE   H7S16083   4.427   5.596   9.906 -0.9063 -1.5737  1.7610
  146SAPE   C2816084   4.222   5.533   9.895  0.2043 -0.2982 -0.5257
  146SAPE   H8R16085   4.127   5.545   9.949  0.1311 -0.1823 -0.6769
  146SAPE   C2916086   4.233   5.426   9.809  0.5962 -0.3501 -0.1698
  146SAPE   H9R16087   4.153   5.353   9.791  1.0430 -1.1385  0.9698
  146SAPE  C21016088   4.356   5.391   9.726  0.6134 -0.1799  0.4716
  146SAPE  H10R16089   4.436   5.366   9.799  0.4187 -1.3046  0.3257
  146SAPE  H10S16090   4.401   5.468   9.660  4.0943 -0.7757  1.9171
  146SAPE  C21116091   4.332   5.264   9.648  0.6020  0.0690 -0.1002
  146SAPE  H11R16092   4.311   5.175   9.709 -1.1685  0.4767 -0.0670
  146SAPE  C21216093   4.302   5.259   9.519 -0.4419 -0.2084  0.0127
  146SAPE  H12R16094   4.298   5.160   9.470  0.7180 -0.5838  0.6343
  146SAPE  C21316095   4.306   5.385   9.439 -0.0139  0.0923 -0.1407
  146SAPE  H13R16096   4.318   5.357   9.332 -0.1937 -2.0050  0.3509
  146SAPE  H13S16097   4.389   5.452   9.467 -0.5579  0.3126  0.9791
  146SAPE  C21416098   4.181   5.473   9.454 -0.0990 -0.6362  0.4670
  146SAPE  H14R16099   4.096   5.454   9.522 -1.5944 -0.8912 -1.4020
  146SAPE  C21516100   4.177   5.601   9.411  0.0099 -0.2442  0.5599
  146SAPE  H15R16101   4.087   5.659   9.438 -0.4561 -0.2834 -0.8564
  146SAPE  C21616102   4.282   5.676   9.334 -0.0940 -0.2209  0.2173
  146SAPE  H16R16103   4.250   5.695   9.229 -2.3961 -0.9435  0.7284
  146SAPE  H16S16104   4.382   5.629   9.333  0.7742  1.5236 -0.1240
  146SAPE  C21716105   4.295   5.811   9.406  0.3812  0.1509 -0.3582
  146SAPE  H17R16106   4.330   5.798   9.510  3.1961  0.0643 -1.2320
  146SAPE  H17S16107   4.197   5.864   9.402  1.1120  1.9566  2.5092
  146SAPE  C21816108   4.392   5.903   9.328 -0.3211  0.2897  0.0683
  146SAPE  H18R16109   4.344   5.929   9.232 -0.2149  1.6456  0.3622
  146SAPE  H18S16110   4.485   5.848   9.305 -0.0271  1.3101 -1.2817
  146SAPE  C21916111   4.441   6.028   9.401  0.2978 -0.1596 -0.4315
  146SAPE  H19R16112   4.529   6.068   9.347  1.0199 -1.8807 -0.5817
  146SAPE  H19S16113   4.470   5.989   9.501  1.4877 -0.6652 -0.9672
  146SAPE  C22016114   4.324   6.131   9.414  0.1483 -0.5337  0.2159
  146SAPE  H20R16115   4.289   6.175   9.318 -2.1150 -2.0759  0.2635
  146SAPE  H20S16116   4.364   6.213   9.477 -0.7090 -1.2180  1.6817
  146SAPE  H20T16117   4.230   6.086   9.450 -0.5349  0.0368 -0.7930
  146SAPE   C3316118   4.106   6.560   9.644  0.0610  0.2891  0.5887
  146SAPE   H3X16119   4.080   6.668   9.638  4.1921  1.3907 -0.6686
  146SAPE   H3Y16120   4.015   6.496   9.638 -0.7402  1.3539  1.1104
  146SAPE   C3416121   4.187   6.539   9.518 -0.8390  0.2689 -0.2130
  146SAPE   H4X16122   4.214   6.431   9.520  0.2065  0.5211  0.0638
  146SAPE   H4Y16123   4.282   6.597   9.518  0.5321 -1.7702 -1.9990
  146SAPE   C3516124   4.105   6.571   9.391  0.1330 -0.2630  0.0460
  146SAPE   H5X16125   4.071   6.677   9.404  1.6429  0.1558  0.7446
  146SAPE   H5Y16126   4.013   6.508   9.392 -0.2888  0.3171  1.8508
  146SAPE   C3616127   4.181   6.547   9.255  0.2034  0.3095  0.8300
  146SAPE   H6X16128   4.223   6.445   9.244  1.2982  0.9347 -1.3092
  146SAPE   H6Y16129   4.274   6.607   9.263  0.6711 -0.2964  0.0304
  146SAPE   C3716130   4.113   6.591   9.120 -0.1734 -0.4788  0.5186
  146SAPE   H7X16131   4.081   6.697   9.127 -0.6612 -0.5989  0.1459
  146SAPE   H7Y16132   4.014   6.541   9.108 -1.7233  2.6734 -0.8427
  146SAPE   C3816133   4.206   6.585   8.997  0.2673 -0.3357  0.2659
  146SAPE   H8X16134   4.216   6.477   8.971 -1.4970 -0.2910 -0.7630
  146SAPE   H8Y16135   4.306   6.620   9.029  0.0218  1.0530 -0.4031
  146SAPE   C3916136   4.148   6.674   8.891 -0.4425  1.2924  0.5896
  146SAPE   H9X16137   4.219   6.683   8.806 -2.7342 -0.4707 -1.6655
  146SAPE   H9Y16138   4.139   6.777   8.930  0.4198  1.4463  0.4035
  146SAPE  C31016139   4.016   6.633   8.835  0.0205  0.1736  0.0794
  146SAPE  H10X16140   3.931   6.656   8.902 -1.1495  0.6844 -1.5182
  146SAPE  H10Y16141   4.017   6.522   8.824  3.3272  0.2332 -1.2282
  146SAPE  C31116142   3.986   6.695   8.702  0.5369 -0.4236  0.6957
  146SAPE  H11X16143   3.895   6.655   8.652 -2.1040  2.3660  2.9552
  146SAPE  H11Y16144   4.068   6.675   8.629 -0.8159 -0.9321 -0.7224
  146SAPE  C31216145   3.966   6.849   8.699  0.2792  0.9784  0.2561
  146SAPE  H12X16146   4.061   6.889   8.742  1.0617 -0.5568  0.0512
  146SAPE  H12Y16147   3.886   6.890   8.763  0.3480  0.6920  0.5283
  146SAPE  C31316148   3.944   6.904   8.561 -0.6906  0.9996  0.2239
  146SAPE  H13X16149   3.845   6.876   8.521  0.0763 -1.5028 -0.0869
  146SAPE  H13Y16150   4.019   6.860   8.492 -0.9944 -2.3290  1.8400
  146SAPE  C31416151   3.959   7.055   8.550 -0.2709 -0.4891  0.0242
  146SAPE  H14X16152   4.054   7.080   8.602  0.4147 -0.4912 -1.1930
  146SAPE  H14Y16153   3.883   7.102   8.616 -1.0163 -1.1626 -0.3421
  146SAPE  C31516154   3.940   7.102   8.407  0.4065 -0.1646 -0.1308
  146SAPE  H15X16155   3.863   7.036   8.361  1.3885 -0.6114 -1.1697
  146SAPE  H15Y16156   4.025   7.079   8.339 -0.7853 -3.4879 -0.7017
  146SAPE  C31616157   3.909   7.251   8.386 -0.0177  0.1337 -0.0776
  146SAPE  H16X16158   3.991   7.315   8.424  1.8797 -2.7876  1.1102
  146SAPE  H16Y16159   3.815   7.278   8.439 -0.1984  0.3976 -0.5209
  146SAPE  C31716160   3.867   7.279   8.238 -0.0564  0.1177 -0.2985
  146SAPE  H17X16161   3.795   7.197   8.222  1.5594 -1.0311 -2.1727
  146SAPE  H17Y16162   3.955   7.266   8.170  0.6457 -0.5888  0.7270
  146SAPE  C31816163   3.802   7.417   8.208  0.0289 -0.4375  0.0449
  146SAPE  H18X16164   3.879   7.488   8.245 -0.0763  0.4651 -1.3881
  146SAPE  H18Y16165   3.702   7.430   8.255 -0.6697 -0.2679 -1.4305
  146SAPE  H18Z16166   3.798   7.433   8.099 -2.3433 -0.8553  0.0177
  147SAPE     N16167   6.214   2.366  10.723  0.7058  0.1343  0.0918
  147SAPE   HN116168   6.143   2.296  10.751  0.7491 -0.7477 -1.8311
  147SAPE   HN216169   6.300   2.338  10.773  2.6833  1.2944 -2.4210
  147SAPE   HN316170   6.186   2.460  10.759  2.3543  0.4619  0.5916
  147SAPE   C1216171   6.219   2.348  10.571  0.2440 -0.1564  0.2848
  147SAPE  H12A16172   6.262   2.247  10.556  1.0685  0.2435 -0.0604
  147SAPE  H12B16173   6.269   2.433  10.520 -0.2787 -0.0019  0.0228
  147SAPE   C1116174   6.076   2.361  10.516 -0.7530 -1.0416  0.8002
  147SAPE  H11A16175   6.012   2.275  10.544  0.9448 -2.7597 -0.3602
  147SAPE  H11B16176   6.092   2.361  10.406  4.4874  0.1284  1.2841
  147SAPE     P16177   5.977   2.597  10.458 -0.3382  0.2739 -0.0495
  147SAPE   O1316178   5.869   2.676  10.523  0.1073  0.2259  0.5108
  147SAPE   O1416179   6.097   2.668  10.413  0.8348 -0.2606 -0.0006
  147SAPE   O1216180   6.022   2.480  10.560  0.5588  0.0503 -0.2984
  147SAPE   O1116181   5.921   2.505  10.339 -0.1624 -0.4331 -0.2983
  147SAPE    C116182   5.784   2.477  10.322  0.7296 -0.2329  0.1148
  147SAPE    HA16183   5.716   2.554  10.364 -1.5220 -1.8557 -0.3273
  147SAPE    HB16184   5.770   2.464  10.212 -1.8414  1.1823  0.1957
  147SAPE    C216185   5.740   2.343  10.388 -1.0431  0.2790  0.1412
  147SAPE    HS16186   5.803   2.341  10.479  1.3999  2.3198 -1.3829
  147SAPE   O2116187   5.773   2.230  10.303 -0.8952 -0.8655  0.2819
  147SAPE   C2116188   5.780   2.118  10.360 -0.1542  0.3430 -0.4646
  147SAPE   O2216189   5.759   2.088  10.477 -0.1062 -0.1464 -0.3251
  147SAPE   C2216190   5.824   2.018  10.259  0.3654  0.5938  0.0125
  147SAPE   H2R16191   5.882   1.942  10.315  2.1506  0.5906 -1.7119
  147SAPE   H2S16192   5.736   1.961  10.223 -0.8621  2.6743 -0.4165
  147SAPE    C316193   5.593   2.337  10.446 -0.1963 -0.3551  0.9144
  147SAPE    HX16194   5.573   2.429  10.505  1.3608  0.8832 -0.3777
  147SAPE    HY16195   5.588   2.256  10.522  1.6930  0.2215  1.7032
  147SAPE   O3116196   5.491   2.324  10.345 -0.3948 -0.1868  0.9009
  147SAPE   C3116197   5.453   2.202  10.320  0.4328  0.4846 -0.1125
  147SAPE   O3216198   5.484   2.100  10.377 -0.0941 -0.2018 -0.3699
  147SAPE   C3216199   5.348   2.197  10.203 -0.1689 -0.1161 -0.3492
  147SAPE   H2X16200   5.248   2.195  10.251  0.7463 -1.5347  1.6472
  147SAPE   H2Y16201   5.356   2.094  10.162 -0.1086  0.3861 -1.6417
  147SAPE   C2316202   5.905   2.072  10.136 -0.8076  0.8143 -0.1729
  147SAPE   H3R16203   5.976   2.148  10.173 -1.0284  1.5234 -1.1567
  147SAPE   H3S16204   5.829   2.124  10.073 -2.3521 -1.2656 -0.1430
  147SAPE   C2416205   5.975   1.960  10.057 -0.5449 -0.0034  0.4172
  147SAPE   H4R16206   5.900   1.885  10.024  0.7580 -0.3059 -2.1430
  147SAPE   H4S16207   6.041   1.903  10.126 -2.5922 -2.6030  0.3677
  147SAPE   C2516208   6.057   2.011   9.936  0.3602  0.1021  0.3288
  147SAPE   H5R16209   6.154   2.061   9.940  0.5131  0.0256 -1.6317
  147SAPE   C2616210   6.013   2.003   9.808  0.3313  0.0392  0.0422
  147SAPE   H6R16211   6.071   2.044   9.724 -0.3945  1.5705  0.2641
  147SAPE   C2716212   5.874   1.955   9.763 -0.0962  0.4087  0.4461
  147SAPE   H7R16213   5.817   1.901   9.842  0.5630 -0.9286  0.0354
  147SAPE   H7S16214   5.882   1.870   9.692 -1.2456  2.4677 -2.2951
  147SAPE   C2816215   5.793   2.072   9.705  0.2219 -0.3755 -0.2801
  147SAPE   H8R16216   5.786   2.153   9.779  3.3537 -0.2802  0.0328
  147SAPE   C2916217   5.745   2.084   9.583 -0.0045  0.9334 -0.0582
  147SAPE   H9R16218   5.690   2.177   9.561 -2.1065  0.0635  1.2326
  147SAPE  C21016219   5.746   1.980   9.469 -0.6823 -0.9396 -0.0800
  147SAPE  H10R16220   5.652   1.970   9.411  0.1192 -0.1360 -1.5833
  147SAPE  H10S16221   5.748   1.880   9.517 -3.2097 -0.6940  0.6584
  147SAPE  C21116222   5.851   1.992   9.370  0.3148  0.6073 -0.0860
  147SAPE  H11R16223   5.952   1.990   9.414 -0.6690  1.5472  2.3509
  147SAPE  C21216224   5.837   1.989   9.233  0.4576  0.1334 -0.5443
  147SAPE  H12R16225   5.928   1.993   9.171  0.5710  3.0003 -0.3434
  147SAPE  C21316226   5.710   1.973   9.154 -0.4108 -0.7675 -0.3009
  147SAPE  H13R16227   5.645   1.896   9.202 -0.1112 -0.5692  0.4306
  147SAPE  H13S16228   5.716   1.939   9.049  0.3088  0.4697 -0.6731
  147SAPE  C21416229   5.626   2.102   9.149 -0.3447  0.3235 -0.2953
  147SAPE  H14R16230   5.649   2.176   9.228  0.1693  1.2350 -1.2829
  147SAPE  C21516231   5.530   2.132   9.062  0.9118  0.4814 -0.4424
  147SAPE  H15R16232   5.471   2.224   9.074  0.7849  0.5954 -1.8515
  147SAPE  C21616233   5.487   2.046   8.946 -0.8982  1.0973 -0.0474
  147SAPE  H16R16234   5.387   2.077   8.909 -1.2157  1.7423  1.2516
  147SAPE  H16S16235   5.471   1.939   8.972 -0.6171  1.4607  1.8219
  147SAPE  C21716236   5.589   2.040   8.824 -0.0330 -0.9553  0.7524
  147SAPE  H17R16237   5.687   2.001   8.858  0.2685 -1.4116 -0.5741
  147SAPE  H17S16238   5.604   2.148   8.802 -0.6409 -0.7969  1.0682
  147SAPE  C21816239   5.541   1.961   8.697  0.0558  0.2772  0.2916
  147SAPE  H18R16240   5.476   2.024   8.634 -0.4739  1.6422  2.1005
  147SAPE  H18S16241   5.483   1.875   8.735 -0.9464  2.3897  4.1855
  147SAPE  C21916242   5.667   1.916   8.618 -0.2517 -0.0179 -0.4763
  147SAPE  H19R16243   5.700   1.831   8.681 -0.2115  0.1527 -0.2659
  147SAPE  H19S16244   5.753   1.986   8.617 -1.3937  1.4487 -1.9269
  147SAPE  C22016245   5.638   1.872   8.475  0.1578 -0.2635 -0.2465
  147SAPE  H20R16246   5.720   1.813   8.427 -0.6260 -0.7627 -1.0036
  147SAPE  H20S16247   5.609   1.957   8.409 -4.0125 -1.9183 -0.8130
  147SAPE  H20T16248   5.548   1.809   8.485  1.3795 -2.0813 -0.2215
  147SAPE   C3316249   5.368   2.307  10.093 -0.0920 -0.0272  0.1535
  147SAPE   H3X16250   5.362   2.410  10.132  0.0969 -0.9553  2.8480
  147SAPE   H3Y16251   5.273   2.298  10.036 -0.1551 -0.9438  0.3738
  147SAPE   C3416252   5.494   2.305  10.003 -0.1652  0.9347  0.0327
  147SAPE   H4X16253   5.520   2.199   9.983  2.2442  1.7521 -1.5480
  147SAPE   H4Y16254   5.573   2.347  10.068 -0.3114  0.5580  0.4574
  147SAPE   C3516255   5.493   2.402   9.889 -0.0119 -0.4266  0.2596
  147SAPE   H5X16256   5.461   2.502   9.927  1.2496 -0.6207  1.9322
  147SAPE   H5Y16257   5.421   2.371   9.810 -1.3402 -1.0628  1.6685
  147SAPE   C3616258   5.633   2.426   9.835 -0.1172  0.7462 -0.3557
  147SAPE   H6X16259   5.687   2.338   9.794 -0.7437  0.7289 -1.1824
  147SAPE   H6Y16260   5.703   2.460   9.915  1.8523  1.7823 -2.3983
  147SAPE   C3716261   5.624   2.540   9.735  0.2791 -0.3618  0.7965
  147SAPE   H7X16262   5.727   2.580   9.723  0.5494 -0.9982  0.9695
  147SAPE   H7Y16263   5.562   2.629   9.758  2.6950  1.9679 -1.0773
  147SAPE   C3816264   5.584   2.502   9.586  0.2001  0.5990 -0.1995
  147SAPE   H8X16265   5.474   2.496   9.570  0.1134 -3.0744  0.8338
  147SAPE   H8Y16266   5.615   2.396   9.577 -0.7142  0.1412  1.5288
  147SAPE   C3916267   5.658   2.581   9.480  0.3295  0.6077 -0.5322
  147SAPE   H9X16268   5.767   2.575   9.501  0.0460  0.5325  1.0801
  147SAPE   H9Y16269   5.621   2.686   9.477  3.1839  1.8210  1.5529
  147SAPE  C31016270   5.632   2.518   9.346  0.9448 -1.0201  0.7018
  147SAPE  H10X16271   5.523   2.530   9.329  1.2784 -0.9571 -1.5709
  147SAPE  H10Y16272   5.661   2.410   9.349  2.8649 -0.7875 -3.2357
  147SAPE  C31116273   5.711   2.583   9.232 -0.0591  0.1241  0.1540
  147SAPE  H11X16274   5.819   2.563   9.249  0.0233 -0.4804 -0.9675
  147SAPE  H11Y16275   5.682   2.690   9.242 -3.3771 -0.7053  0.7398
  147SAPE  C31216276   5.690   2.530   9.095  0.1091 -0.3042  0.5088
  147SAPE  H12X16277   5.584   2.497   9.087  0.6704 -1.8621 -1.1345
  147SAPE  H12Y16278   5.745   2.439   9.062 -2.7887 -2.2437  0.5805
  147SAPE  C31316279   5.706   2.644   8.987 -0.6382  0.2899 -0.7784
  147SAPE  H13X16280   5.615   2.707   8.995 -1.5371 -1.1720  1.9183
  147SAPE  H13Y16281   5.696   2.596   8.887  1.4667  2.7079 -2.2814
  147SAPE  C31416282   5.831   2.728   8.996 -0.1530 -0.5261 -0.4875
  147SAPE  H14X16283   5.919   2.671   9.032 -0.1589 -0.2409 -0.0180
  147SAPE  H14Y16284   5.816   2.804   9.075 -0.2950 -1.4567  0.4105
  147SAPE  C31516285   5.865   2.802   8.868  0.3710 -0.6976  0.2565
  147SAPE  H15X16286   5.808   2.898   8.872 -0.1805 -0.7794 -3.0393
  147SAPE  H15Y16287   5.822   2.742   8.786  0.6493 -1.1112  0.4085
  147SAPE  C31616288   6.006   2.849   8.838 -0.2826 -0.4855  0.3640
  147SAPE  H16X16289   6.082   2.769   8.823 -0.2665 -0.2168 -1.0951
  147SAPE  H16Y16290   6.046   2.930   8.904 -1.7425 -0.3504  1.1116
  147SAPE  C31716291   6.004   2.921   8.698  0.5445 -0.4433  0.1163
  147SAPE  H17X16292   5.933   3.006   8.700  2.9537  1.7676 -1.5570
  147SAPE  H17Y16293   5.969   2.843   8.626  0.4140  1.0237 -1.4832
  147SAPE  C31816294   6.143   2.978   8.660  0.1781 -0.1379 -0.4056
  147SAPE  H18X16295   6.231   2.910   8.662  0.1080 -0.2740  2.1412
  147SAPE  H18Y16296   6.164   3.057   8.736 -1.5754  0.2952 -0.3174
  147SAPE  H18Z16297   6.157   3.030   8.563 -0.1088  3.4563  1.3200
  148SAPE     N16298   0.450   3.475  10.753  0.4607  0.0675  0.5389
  148SAPE   HN116299   0.442   3.575  10.726 -0.4801 -0.6539 -2.2144
  148SAPE   HN216300   0.360   3.425  10.744  2.3002 -3.3092 -0.8077
  148SAPE   HN316301   0.475   3.483  10.854  1.4717 -1.0416  0.4037
  148SAPE   C1216302   0.568   3.425  10.664  0.2544  0.2349 -0.0667
  148SAPE  H12A16303   0.599   3.327  10.705  1.9799  1.4082  1.6311
  148SAPE  H12B16304   0.657   3.487  10.687  1.4561 -1.8989  1.2644
  148SAPE   C1116305   0.547   3.396  10.513  0.1863  0.5281 -0.5288
  148SAPE  H11A16306   0.642   3.350  10.477  1.4501  2.0076  0.7693
  148SAPE  H11B16307   0.543   3.491  10.455 -0.2785  0.2567 -0.9508
  148SAPE     P16308   0.446   3.153  10.506 -0.0016 -0.7167  0.0036
  148SAPE   O1316309   0.582   3.124  10.561  0.7452  1.0028  0.4468
  148SAPE   O1416310   0.334   3.092  10.581 -0.4472  0.2312  0.0593
  148SAPE   O1216311   0.425   3.315  10.498 -0.6115  0.5096  0.1825
  148SAPE   O1116312   0.435   3.100  10.356  0.1798 -0.5085  0.1937
  148SAPE    C116313   0.524   3.157  10.266 -0.0378  0.0949  0.7770
  148SAPE    HA16314   0.518   3.267  10.251  0.6235  0.0572  0.1915
  148SAPE    HB16315   0.631   3.138  10.289 -0.3217 -1.2272  1.0837
  148SAPE    C216316   0.513   3.108  10.119  0.1573  0.1448 -0.4462
  148SAPE    HS16317   0.407   3.137  10.100  0.0921  2.6203  2.8592
  148SAPE   O2116318   0.535   2.963  10.107 -0.2913 -0.7019 -0.5287
  148SAPE   C2116319   0.444   2.901  10.031 -0.0832  0.1933  0.1938
  148SAPE   O2216320   0.369   2.960   9.952 -0.1731 -0.1637 -0.2031
  148SAPE   C2216321   0.455   2.748  10.053 -0.1173 -0.1828  0.6192
  148SAPE   H2R16322   0.552   2.714  10.095 -0.6578 -1.7796  0.6523
  148SAPE   H2S16323   0.386   2.726  10.138 -1.7076  0.0423 -0.5740
  148SAPE    C316324   0.618   3.177  10.027  0.4776  0.0306  0.0010
  148SAPE    HX16325   0.718   3.144  10.060  0.3706  0.0259  0.3250
  148SAPE    HY16326   0.613   3.286  10.052  2.4369  0.0610  0.4219
  148SAPE   O3116327   0.600   3.152   9.885 -0.1364 -0.8715 -0.1464
  148SAPE   C3116328   0.503   3.216   9.825  0.7614  0.3464  0.4558
  148SAPE   O3216329   0.437   3.298   9.881  0.7212  0.4371  0.1490
  148SAPE   C3216330   0.488   3.162   9.682  0.0789 -0.5572 -0.3600
  148SAPE   H2X16331   0.508   3.053   9.691 -0.8178 -0.6487  0.7629
  148SAPE   H2Y16332   0.574   3.199   9.622  1.5747 -1.5042  1.1059
  148SAPE   C2316333   0.405   2.654   9.944 -0.2463  0.5519 -0.4344
  148SAPE   H3R16334   0.312   2.691   9.895  0.1182  2.1449  0.0101
  148SAPE   H3S16335   0.382   2.564  10.004  0.5424  0.3863 -0.3775
  148SAPE   C2416336   0.520   2.608   9.856 -0.4382  0.4039  0.3982
  148SAPE   H4R16337   0.515   2.501   9.829  0.5179  0.3318  0.4889
  148SAPE   H4S16338   0.617   2.631   9.904 -0.8904  0.8249  1.1315
  148SAPE   C2516339   0.520   2.676   9.722  0.6691 -0.3140  0.0139
  148SAPE   H5R16340   0.529   2.785   9.727  0.1543 -0.1319 -2.0758
  148SAPE   C2616341   0.516   2.615   9.597 -0.2178  0.4645 -0.0836
  148SAPE   H6R16342   0.493   2.676   9.508 -0.5586  3.4797  1.9412
  148SAPE   C2716343   0.515   2.468   9.572  0.0752  0.2459 -0.0423
  148SAPE   H7R16344   0.429   2.431   9.632  0.2565 -0.1017  0.0040
  148SAPE   H7S16345   0.607   2.413   9.603 -0.3256 -0.8933 -0.8179
  148SAPE   C2816346   0.492   2.424   9.424 -0.0695 -0.7429 -0.5073
  148SAPE   H8R16347   0.385   2.420   9.399 -0.0865 -0.9331 -0.4011
  148SAPE   C2916348   0.595   2.404   9.334  0.0937  0.9306 -0.1357
  148SAPE   H9R16349   0.565   2.360   9.237 -0.8397 -2.4177  1.5078
  148SAPE  C21016350   0.744   2.414   9.363 -0.5258  0.2246  0.3742
  148SAPE  H10R16351   0.766   2.430   9.471 -1.1617  0.8432  0.4187
  148SAPE  H10S16352   0.775   2.511   9.320  0.5828 -0.4590 -0.4335
  148SAPE  C21116353   0.831   2.305   9.306 -0.5906 -0.5063 -0.0571
  148SAPE  H11R16354   0.822   2.214   9.366 -1.3486 -0.5999 -0.2992
  148SAPE  C21216355   0.901   2.310   9.191 -0.7620 -0.3849  0.2829
  148SAPE  H12R16356   0.959   2.220   9.166  1.7155  1.1507  0.1979
  148SAPE  C21316357   0.920   2.426   9.094  0.8617 -0.0456  0.6961
  148SAPE  H13R16358   0.880   2.527   9.117 -1.9441 -0.2343 -2.4975
  148SAPE  H13S16359   0.860   2.411   9.001 -2.4762  0.9388  2.5095
  148SAPE  C21416360   1.062   2.446   9.047  0.6433  0.1011 -0.0218
  148SAPE  H14R16361   1.129   2.487   9.124  0.1698  1.2667 -0.2082
  148SAPE  C21516362   1.112   2.429   8.926  0.5665 -0.3198 -0.0530
  148SAPE  H15R16363   1.220   2.444   8.909  0.6182 -0.7290 -0.0876
  148SAPE  C21616364   1.028   2.371   8.803 -0.2493  0.4393  0.5072
  148SAPE  H16R16365   0.954   2.293   8.831 -1.8584  1.3888 -0.9235
  148SAPE  H16S16366   1.087   2.325   8.720 -0.6750 -2.0852  1.5006
  148SAPE  C21716367   0.940   2.482   8.747  0.6337 -0.0287 -0.1578
  148SAPE  H17R16368   1.001   2.564   8.704 -0.1968  0.8967  0.4110
  148SAPE  H17S16369   0.881   2.532   8.826 -0.6859 -0.2911 -0.9374
  148SAPE  C21816370   0.843   2.444   8.636  0.1132  0.0388  0.7772
  148SAPE  H18R16371   0.887   2.384   8.554 -0.1697  0.0861  0.5913
  148SAPE  H18S16372   0.823   2.541   8.587 -1.1633 -1.1051 -1.0614
  148SAPE  C21916373   0.714   2.375   8.699 -0.8586 -0.3590  0.7996
  148SAPE  H19R16374   0.662   2.451   8.760  1.7027  1.8583  0.4185
  148SAPE  H19S16375   0.746   2.294   8.768 -0.4803 -1.1297 -0.2530
  148SAPE  C22016376   0.610   2.324   8.610  0.6848  0.8184  0.8697
  148SAPE  H20R16377   0.532   2.270   8.668 -3.5111  1.9256 -3.1768
  148SAPE  H20S16378   0.644   2.238   8.548 -0.1767  0.5800  0.7097
  148SAPE  H20T16379   0.555   2.391   8.541  1.7086 -1.3656 -2.2954
  148SAPE   C3316380   0.346   3.179   9.618  0.4123  0.2277  0.4507
  148SAPE   H3X16381   0.342   3.290   9.622  0.6279  0.2834 -0.5967
  148SAPE   H3Y16382   0.276   3.126   9.686  0.2861 -1.3231 -0.8451
  148SAPE   C3416383   0.349   3.117   9.476  0.4627 -0.1506 -0.4229
  148SAPE   H4X16384   0.360   3.010   9.505  2.8880  1.0396  3.8845
  148SAPE   H4Y16385   0.433   3.166   9.422 -1.4283  1.5600 -1.9814
  148SAPE   C3516386   0.220   3.112   9.391 -0.0040 -0.1448  0.0564
  148SAPE   H5X16387   0.177   3.214   9.389  1.9533  0.7553 -2.9473
  148SAPE   H5Y16388   0.141   3.058   9.447 -2.0325  3.2800  0.7866
  148SAPE   C3616389   0.243   3.058   9.247  1.0033 -0.4628 -0.1472
  148SAPE   H6X16390   0.320   3.124   9.201 -0.4857  1.2503 -0.2894
  148SAPE   H6Y16391   0.157   3.045   9.179  1.4982  1.0207 -1.1245
  148SAPE   C3716392   0.315   2.917   9.256 -0.1745  0.1567 -0.0172
  148SAPE   H7X16393   0.250   2.850   9.316 -2.0412  1.4650 -0.5022
  148SAPE   H7Y16394   0.413   2.920   9.309 -0.0187 -1.4140 -0.1513
  148SAPE   C3816395   0.337   2.844   9.124 -0.0080  0.1358 -0.3270
  148SAPE   H8X16396   0.409   2.908   9.069 -0.3627  1.4070  0.6672
  148SAPE   H8Y16397   0.242   2.824   9.069  0.7060 -1.6717 -1.0072
  148SAPE   C3916398   0.417   2.715   9.161 -0.2764 -0.2405 -0.1716
  148SAPE   H9X16399   0.356   2.655   9.233  1.9771 -2.2174  0.2020
  148SAPE   H9Y16400   0.517   2.723   9.208 -0.2362 -0.2828 -0.2507
  148SAPE  C31016401   0.433   2.628   9.041 -0.0139 -0.2479  0.5170
  148SAPE  H10X16402   0.499   2.542   9.068 -0.2823 -0.0858  1.7692
  148SAPE  H10Y16403   0.484   2.668   8.951  0.5526 -1.1034  0.4422
  148SAPE  C31116404   0.302   2.567   8.994 -0.3823 -0.9729 -0.3672
  148SAPE  H11X16405   0.229   2.646   8.965 -0.0022  0.3599  1.9896
  148SAPE  H11Y16406   0.261   2.528   9.090  2.2455  1.6665  2.0132
  148SAPE  C31216407   0.339   2.467   8.884  0.1732  0.2880  0.7073
  148SAPE  H12X16408   0.418   2.396   8.916  0.6376  0.7610  0.6178
  148SAPE  H12Y16409   0.379   2.521   8.796 -1.9088  0.0273 -0.4522
  148SAPE  C31316410   0.219   2.365   8.849  0.1447 -0.2812 -0.1128
  148SAPE  H13X16411   0.178   2.338   8.948  0.4056  0.9951  0.3706
  148SAPE  H13Y16412   0.264   2.279   8.796  2.1716 -0.9450  2.4873
  148SAPE  C31416413   0.101   2.416   8.762 -0.4444 -0.3946  0.1237
  148SAPE  H14X16414   0.137   2.480   8.678 -0.7323  3.5018  2.7200
  148SAPE  H14Y16415   0.047   2.484   8.830 -0.2406  1.1492 -1.1975
  148SAPE  C31516416   0.016   2.303   8.714 -0.0748 -0.3134  0.4179
  148SAPE  H15X16417   0.086   2.231   8.666 -1.0629 -1.9509  1.3346
  148SAPE  H15Y16418  -0.058   2.342   8.641 -0.4729 -0.0401  0.9597
  148SAPE  C31616419  -0.071   2.229   8.813 -0.5394 -0.0683  0.1601
  148SAPE  H16X16420  -0.011   2.192   8.899 -0.7054 -1.3562 -0.2658
  148SAPE  H16Y16421  -0.110   2.142   8.758 -0.1280  0.3279 -0.7837
  148SAPE  C31716422  -0.187   2.305   8.868 -0.1910 -0.5080  0.3565
  148SAPE  H17X16423  -0.266   2.334   8.795  0.7020  1.2022  0.0262
  148SAPE  H17Y16424  -0.150   2.404   8.902 -3.7819  0.9361  0.5609
  148SAPE  C31816425  -0.251   2.245   8.994  0.0804  0.6194 -0.8246
  148SAPE  H18X16426  -0.169   2.234   9.069 -1.9509  0.0151  1.4508
  148SAPE  H18Y16427  -0.291   2.142   8.980  0.7494  0.3955 -1.1716
  148SAPE  H18Z16428  -0.330   2.317   9.022 -1.8782 -0.1476 -3.9457
  149SAPE     N16429   3.407   5.273  10.553  0.0413  0.3869 -0.3594
  149SAPE   HN116430   3.393   5.342  10.630  0.0016  0.0657 -0.0769
  149SAPE   HN216431   3.361   5.185  10.583  0.6440  0.5854  1.2147
  149SAPE   HN316432   3.510   5.257  10.551 -0.2862 -2.0765 -0.9931
  149SAPE   C1216433   3.368   5.334  10.429 -0.6898  0.3495  0.6726
  149SAPE  H12A16434   3.347   5.257  10.352 -0.3198  1.9290 -1.0870
  149SAPE  H12B16435   3.444   5.403  10.387 -0.5072 -0.2507 -0.0108
  149SAPE   C1116436   3.239   5.415  10.441 -0.1499 -0.1921 -0.0012
  149SAPE  H11A16437   3.192   5.420  10.340 -1.4891  1.2879  0.6488
  149SAPE  H11B16438   3.276   5.518  10.464  2.7751 -0.9427 -0.8929
  149SAPE     P16439   3.008   5.415  10.571 -0.1785 -0.0062  0.1395
  149SAPE   O1316440   2.937   5.298  10.620  0.7740  0.4719  0.2846
  149SAPE   O1416441   3.016   5.533  10.665 -0.0730  0.4548 -0.2253
  149SAPE   O1216442   3.152   5.361  10.533 -0.4261 -0.8484 -0.2322
  149SAPE   O1116443   2.950   5.471  10.431 -0.4907  0.0005 -0.0298
  149SAPE    C116444   2.861   5.379  10.366  0.3847 -0.3630  0.2197
  149SAPE    HA16445   2.803   5.313  10.434  0.1201  0.4706  0.8149
  149SAPE    HB16446   2.789   5.442  10.311  1.4534  1.5681  0.9547
  149SAPE    C216447   2.935   5.287  10.250  0.7737 -0.6905 -0.0212
  149SAPE    HS16448   3.024   5.258  10.310  0.0518 -1.1911  0.8327
  149SAPE   O2116449   2.969   5.366  10.131  0.3792 -0.0995  0.3431
  149SAPE   C2116450   3.083   5.339  10.072  0.4991  0.0284  0.4442
  149SAPE   O2216451   3.160   5.253  10.112  0.3986 -0.2332  0.0216
  149SAPE   C2216452   3.103   5.434   9.957 -0.2355  0.1778 -0.1143
  149SAPE   H2R16453   3.008   5.486   9.934  0.3828  0.8588 -1.2523
  149SAPE   H2S16454   3.174   5.515   9.985  3.3788 -3.5583  2.9997
  149SAPE    C316455   2.844   5.169  10.205  0.1930 -0.3025 -0.0165
  149SAPE    HX16456   2.803   5.137  10.303  4.0818  0.6519  2.0983
  149SAPE    HY16457   2.898   5.078  10.171 -1.3627 -0.6266 -1.8593
  149SAPE   O3116458   2.729   5.203  10.121  0.0225  0.2603  0.4783
  149SAPE   C3116459   2.745   5.199   9.991  0.5004 -0.3741  0.4950
  149SAPE   O3216460   2.835   5.143   9.934  0.0894 -0.4238 -0.6478
  149SAPE   C3216461   2.626   5.262   9.920  0.6894 -0.4536  0.2465
  149SAPE   H2X16462   2.575   5.327   9.995  1.3789  1.4676 -0.8575
  149SAPE   H2Y16463   2.558   5.184   9.881 -0.7471  1.4204 -1.2242
  149SAPE   C2316464   3.152   5.366   9.834 -0.5053  0.1374 -0.1548
  149SAPE   H3R16465   3.063   5.307   9.803 -0.1465 -1.3752  1.5261
  149SAPE   H3S16466   3.236   5.299   9.862 -2.2154 -1.7447  0.7139
  149SAPE   C2416467   3.198   5.462   9.718 -0.0102  0.6014 -0.0038
  149SAPE   H4R16468   3.286   5.516   9.759 -0.8643  1.7165  0.4227
  149SAPE   H4S16469   3.113   5.526   9.689 -0.0443 -0.1101 -1.5536
  149SAPE   C2516470   3.261   5.388   9.600  0.0841  0.3161 -0.5036
  149SAPE   H5R16471   3.313   5.295   9.629  1.8217  2.0174  2.2601
  149SAPE   C2616472   3.246   5.427   9.470  0.7115 -0.5449  0.5453
  149SAPE   H6R16473   3.300   5.379   9.387  3.1126  1.0338  1.0737
  149SAPE   C2716474   3.172   5.552   9.423 -0.5783  0.6373  0.4235
  149SAPE   H7R16475   3.080   5.569   9.484 -1.4113  1.5455 -1.0316
  149SAPE   H7S16476   3.146   5.541   9.315 -0.6537 -0.9753  0.5685
  149SAPE   C2816477   3.261   5.669   9.446  0.0763 -0.2009  0.0810
  149SAPE   H8R16478   3.231   5.732   9.531  2.4604 -0.5169  1.2539
  149SAPE   C2916479   3.366   5.708   9.369 -0.0965 -0.0805  0.7208
  149SAPE   H9R16480   3.423   5.799   9.391  0.7456 -0.3827 -0.1032
  149SAPE  C21016481   3.412   5.637   9.237  0.5050 -0.7011 -0.3470
  149SAPE  H10R16482   3.349   5.549   9.215 -3.4022  1.8466 -0.3424
  149SAPE  H10S16483   3.518   5.606   9.244  0.9422  0.4339 -1.4589
  149SAPE  C21116484   3.415   5.727   9.113 -0.2980  0.1161  0.5047
  149SAPE  H11R16485   3.470   5.821   9.130  3.6919 -2.4340  3.5150
  149SAPE  C21216486   3.341   5.710   9.003 -0.0516 -0.3353  0.1471
  149SAPE  H12R16487   3.353   5.788   8.926 -2.7018  0.5535  0.5229
  149SAPE  C21316488   3.273   5.600   8.947  0.5613  0.0432 -0.5186
  149SAPE  H13R16489   3.189   5.631   8.881 -0.4526  0.2450  0.8070
  149SAPE  H13S16490   3.236   5.540   9.033 -0.0031  0.3181 -0.5629
  149SAPE  C21416491   3.363   5.509   8.867 -0.3915  0.3179  0.9013
  149SAPE  H14R16492   3.370   5.411   8.917 -2.6017  0.1306  0.9483
  149SAPE  C21516493   3.431   5.534   8.754  0.6324  0.0160 -0.2297
  149SAPE  H15R16494   3.493   5.456   8.707  0.4593 -1.0123  1.1805
  149SAPE  C21616495   3.417   5.664   8.673  0.1700  0.6668 -0.2900
  149SAPE  H16R16496   3.336   5.724   8.719 -0.6078 -0.3048 -0.3469
  149SAPE  H16S16497   3.377   5.638   8.573 -2.6402 -1.4562  1.2440
  149SAPE  C21716498   3.548   5.747   8.687  0.2245  0.1839  0.1426
  149SAPE  H17R16499   3.575   5.738   8.794  0.9826 -1.3035 -0.1453
  149SAPE  H17S16500   3.526   5.854   8.666  2.6417  0.5679 -0.7760
  149SAPE  C21816501   3.656   5.687   8.591 -0.5298  0.1842  0.2907
  149SAPE  H18R16502   3.620   5.708   8.488 -0.2747 -0.3141  0.1015
  149SAPE  H18S16503   3.658   5.577   8.603  0.8479  0.0580 -0.8407
  149SAPE  C21916504   3.786   5.758   8.632 -0.2252  0.0332  1.0215
  149SAPE  H19R16505   3.809   5.738   8.738  0.1691 -2.3262  0.5596
  149SAPE  H19S16506   3.753   5.864   8.632  0.0493  0.2403 -2.4730
  149SAPE  C22016507   3.909   5.740   8.539  0.9690 -0.5086  0.0406
  149SAPE  H20R16508   3.926   5.633   8.515 -1.5948 -0.9113 -0.2251
  149SAPE  H20S16509   4.001   5.786   8.581  0.4913 -1.2872  2.0639
  149SAPE  H20T16510   3.888   5.783   8.439 -2.2574 -1.3774  0.2389
  149SAPE   C3316511   2.684   5.346   9.801  0.1599 -0.3657  0.4216
  149SAPE   H3X16512   2.763   5.420   9.826 -0.4686  0.2863  0.4983
  149SAPE   H3Y16513   2.604   5.413   9.763  0.1980 -1.0348 -0.8968
  149SAPE   C3416514   2.724   5.257   9.677 -0.5452 -0.1591  0.6931
  149SAPE   H4X16515   2.631   5.209   9.639 -2.0838  2.8824  0.3607
  149SAPE   H4Y16516   2.793   5.173   9.699 -0.4801 -0.7964 -1.5943
  149SAPE   C3516517   2.776   5.347   9.571 -0.0615  0.0588  0.4952
  149SAPE   H5X16518   2.873   5.381   9.613  0.9578 -0.3077 -1.4312
  149SAPE   H5Y16519   2.716   5.439   9.555  0.7000  0.9538  2.4827
  149SAPE   C3616520   2.797   5.282   9.436 -0.1592  0.5654  0.6344
  149SAPE   H6X16521   2.691   5.262   9.407 -0.2990 -0.9082  2.0062
  149SAPE   H6Y16522   2.846   5.184   9.452  1.4470  0.9655 -1.4352
  149SAPE   C3716523   2.879   5.365   9.336  0.1987  0.1249 -0.4258
  149SAPE   H7X16524   2.981   5.390   9.372 -0.0179  1.2959 -0.5981
  149SAPE   H7Y16525   2.817   5.457   9.328  0.6179  0.4142 -0.3981
  149SAPE   C3816526   2.882   5.299   9.203 -0.9423  0.9333 -0.8497
  149SAPE   H8X16527   2.775   5.298   9.175 -1.9847 -0.2114  2.7526
  149SAPE   H8Y16528   2.923   5.196   9.205  0.2344  1.3845 -0.4197
  149SAPE   C3916529   2.983   5.372   9.110 -0.1690  0.2632  0.4361
  149SAPE   H9X16530   3.082   5.354   9.158  0.2852 -1.2855 -1.0019
  149SAPE   H9Y16531   2.957   5.480   9.118  1.6056  0.7926 -0.4359
  149SAPE  C31016532   2.985   5.323   8.969 -0.1830  0.2492  0.0936
  149SAPE  H10X16533   3.032   5.222   8.975  1.0813  0.7752 -0.5725
  149SAPE  H10Y16534   3.064   5.377   8.913  1.5268 -1.4823  0.7038
  149SAPE  C31116535   2.853   5.322   8.891 -0.2430  0.3928 -0.1754
  149SAPE  H11X16536   2.821   5.423   8.858 -1.4526 -0.6190 -2.2380
  149SAPE  H11Y16537   2.778   5.279   8.960 -1.7394  2.1543 -0.6295
  149SAPE  C31216538   2.867   5.227   8.771  0.5442  0.3789  1.1408
  149SAPE  H12X16539   2.859   5.124   8.810  0.6217 -0.2864 -0.5086
  149SAPE  H12Y16540   2.967   5.240   8.724 -0.2340 -1.2493 -1.1515
  149SAPE  C31316541   2.744   5.262   8.686  0.2243 -0.6126  0.7799
  149SAPE  H13X16542   2.749   5.369   8.654 -1.0035 -0.4859  0.9711
  149SAPE  H13Y16543   2.655   5.255   8.752 -0.1677  0.4662  0.3900
  149SAPE  C31416544   2.724   5.163   8.574 -0.1973 -0.0576 -0.2084
  149SAPE  H14X16545   2.617   5.168   8.545 -0.7646  2.3360  2.0153
  149SAPE  H14Y16546   2.749   5.061   8.611 -0.3696 -0.5640 -1.4407
  149SAPE  C31516547   2.809   5.185   8.450  0.1818  0.5806  0.2046
  149SAPE  H15X16548   2.916   5.163   8.470 -0.3253 -2.4907  0.1210
  149SAPE  H15Y16549   2.813   5.294   8.429  1.7956  0.2643 -1.4164
  149SAPE  C31616550   2.761   5.116   8.313  0.0220 -0.0355 -0.7024
  149SAPE  H16X16551   2.655   5.147   8.310  0.5977  2.2276  0.0137
  149SAPE  H16Y16552   2.759   5.008   8.337 -1.6970  0.6567  3.0231
  149SAPE  C31716553   2.850   5.141   8.189  0.0444 -0.0702  0.5112
  149SAPE  H17X16554   2.952   5.100   8.206  1.1830  1.9262 -1.0181
  149SAPE  H17Y16555   2.852   5.251   8.176 -3.4914  0.0363 -0.0550
  149SAPE  C31816556   2.789   5.077   8.064  0.0686 -0.4866  0.3907
  149SAPE  H18X16557   2.804   4.967   8.063 -1.7561 -0.8084  2.1034
  149SAPE  H18Y16558   2.816   5.116   7.963 -0.3036 -1.4499 -0.0982
  149SAPE  H18Z16559   2.679   5.095   8.064  0.2483  0.7165 -0.3469
  150SAPE     N16560   5.063   5.729  10.721 -0.2767 -0.5302 -0.1414
  150SAPE   HN116561   5.030   5.824  10.694  0.4921 -0.2847 -0.2511
  150SAPE   HN216562   5.167   5.721  10.724 -0.3027 -0.6454  1.4709
  150SAPE   HN316563   5.037   5.663  10.645  1.2192 -0.5312 -0.6950
  150SAPE   C1216564   5.009   5.690  10.856  0.7052  0.7044 -0.6273
  150SAPE  H12A16565   5.037   5.770  10.928 -1.1435  1.9798 -1.2527
  150SAPE  H12B16566   5.052   5.594  10.891 -1.2687  0.3448  0.9996
  150SAPE   C1116567   4.857   5.672  10.855 -0.2575 -0.0858 -0.3568
  150SAPE  H11A16568   4.817   5.769  10.818 -0.5018  0.3405  0.9932
  150SAPE  H11B16569   4.818   5.662  10.958 -0.0180  1.5071 -0.0896
  150SAPE     P16570   4.788   5.420  10.815 -0.0581 -0.0196 -0.1800
  150SAPE   O1316571   4.911   5.340  10.833 -0.3375 -0.2197  0.0046
  150SAPE   O1416572   4.695   5.427  10.926  0.3351  0.0355 -0.1231
  150SAPE   O1216573   4.821   5.561  10.762  0.5186  0.3817 -0.7590
  150SAPE   O1116574   4.709   5.353  10.693 -0.2675 -0.3745 -0.5516
  150SAPE    C116575   4.778   5.288  10.591  0.5255 -0.1576  0.0808
  150SAPE    HA16576   4.826   5.199  10.638 -0.3006 -0.0405  1.1743
  150SAPE    HB16577   4.708   5.241  10.520 -0.4214  1.8143 -0.3497
  150SAPE    C216578   4.886   5.360  10.504 -0.5175  0.2539  0.4461
  150SAPE    HS16579   4.964   5.406  10.569 -0.7605  1.0155  0.2129
  150SAPE   O2116580   4.826   5.458  10.425  0.4017  0.0115 -0.0752
  150SAPE   C2116581   4.873   5.571  10.417 -0.5248  0.5474 -0.1334
  150SAPE   O2216582   4.968   5.620  10.478 -0.3452  0.4294  0.7862
  150SAPE   C2216583   4.783   5.658  10.318 -0.6878 -0.4531 -0.2803
  150SAPE   H2R16584   4.766   5.603  10.223 -0.7051 -0.0220 -0.5331
  150SAPE   H2S16585   4.692   5.681  10.377  1.3899  2.8884  2.0115
  150SAPE    C316586   4.962   5.260  10.411  0.2193 -0.2697 -0.4216
  150SAPE    HX16587   4.885   5.205  10.353  0.6237 -0.4996 -0.7407
  150SAPE    HY16588   5.015   5.183  10.470 -0.4304  0.2144  0.8225
  150SAPE   O3116589   5.053   5.330  10.322  0.0554  0.1888  0.1537
  150SAPE   C3116590   5.184   5.311  10.330 -0.1999 -0.6218 -0.5560
  150SAPE   O3216591   5.240   5.248  10.421  0.3236 -0.5133  0.2854
  150SAPE   C3216592   5.248   5.363  10.206  0.2884 -0.2493 -0.0555
  150SAPE   H2X16593   5.348   5.314  10.209  0.1196 -0.8591 -2.3850
  150SAPE   H2Y16594   5.249   5.474  10.197 -0.1867 -0.3439 -1.4798
  150SAPE   C2316595   4.842   5.801  10.299 -0.0889  0.4353 -0.1268
  150SAPE   H3R16596   4.944   5.793  10.256  0.0367  1.5090 -0.0607
  150SAPE   H3S16597   4.843   5.835  10.405  0.5885  0.2839 -0.0746
  150SAPE   C2416598   4.755   5.897  10.216 -0.2341  0.8881  0.2728
  150SAPE   H4R16599   4.826   5.976  10.183  0.2895  0.4818  0.3984
  150SAPE   H4S16600   4.682   5.937  10.290 -0.3743 -2.1013  1.9316
  150SAPE   C2516601   4.680   5.825  10.108 -0.1708 -0.0806  0.1699
  150SAPE   H5R16602   4.579   5.805  10.145 -0.2184  0.8998  0.5960
  150SAPE   C2616603   4.716   5.795   9.981  0.3581 -0.5594 -0.1501
  150SAPE   H6R16604   4.643   5.751   9.912  1.7987 -1.6708 -1.0229
  150SAPE   C2716605   4.850   5.804   9.920  0.5851 -0.0661 -0.1820
  150SAPE   H7R16606   4.919   5.858   9.989  0.0853 -2.1273  2.0934
  150SAPE   H7S16607   4.835   5.868   9.831 -0.8010  0.2411  0.2451
  150SAPE   C2816608   4.904   5.669   9.888  0.0195 -0.1304  1.0283
  150SAPE   H8R16609   4.922   5.609   9.979 -1.0127 -0.3390  1.1118
  150SAPE   C2916610   4.929   5.617   9.767 -0.0684 -0.8898  0.7423
  150SAPE   H9R16611   4.964   5.513   9.766  1.5708 -0.3653  0.8091
  150SAPE  C21016612   4.909   5.688   9.632 -0.0073  0.5038  0.1491
  150SAPE  H10R16613   4.962   5.640   9.546  1.3719 -0.6706  1.6009
  150SAPE  H10S16614   4.952   5.789   9.646  1.9999 -0.3653  0.5602
  150SAPE  C21116615   4.760   5.691   9.601 -0.7045 -0.6103 -0.5785
  150SAPE  H11R16616   4.700   5.737   9.681  0.7599 -0.9200  0.7538
  150SAPE  C21216617   4.697   5.644   9.491  0.1551 -0.6042  0.0229
  150SAPE  H12R16618   4.587   5.647   9.489  0.1472  0.8771  1.0019
  150SAPE  C21316619   4.764   5.596   9.365  0.4943 -0.0016  0.0690
  150SAPE  H13R16620   4.807   5.494   9.381  1.6518  0.7393  2.0906
  150SAPE  H13S16621   4.851   5.657   9.331  0.5929  0.5415  1.2593
  150SAPE  C21416622   4.662   5.596   9.244  0.4575  0.4905 -0.6844
  150SAPE  H14R16623   4.569   5.542   9.268 -0.6994  2.5792 -0.2204
  150SAPE  C21516624   4.676   5.646   9.121 -0.4214 -0.6803  0.3955
  150SAPE  H15R16625   4.594   5.643   9.048  1.9441  0.6959 -2.5831
  150SAPE  C21616626   4.798   5.717   9.064 -0.0542 -0.2470  0.1553
  150SAPE  H16R16627   4.795   5.718   8.953 -2.7733 -0.8273  0.1522
  150SAPE  H16S16628   4.886   5.660   9.102 -1.0818 -1.8530  0.2358
  150SAPE  C21716629   4.802   5.852   9.130 -0.3497 -0.3324 -0.1098
  150SAPE  H17R16630   4.900   5.886   9.089 -0.5289 -0.4561 -0.6425
  150SAPE  H17S16631   4.810   5.853   9.241 -1.0724 -0.8227 -0.0466
  150SAPE  C21816632   4.685   5.954   9.092  0.5525  0.4452 -0.7255
  150SAPE  H18R16633   4.708   6.047   9.150  1.1867  0.1884 -0.5454
  150SAPE  H18S16634   4.588   5.908   9.120  0.2095  1.4325 -0.2327
  150SAPE  C21916635   4.682   5.968   8.944 -0.6288  0.2961  0.4964
  150SAPE  H19R16636   4.649   5.870   8.903 -1.0948  0.8976 -0.5716
  150SAPE  H19S16637   4.782   5.987   8.898 -1.1486 -0.6679 -1.1249
  150SAPE  C22016638   4.585   6.070   8.897  0.7522  0.1317 -0.1023
  150SAPE  H20R16639   4.601   6.163   8.955 -0.4081  0.1253  0.2627
  150SAPE  H20S16640   4.480   6.043   8.921 -0.0722  4.0306  1.6078
  150SAPE  H20T16641   4.590   6.086   8.787 -1.8006 -2.6193 -0.7414
  150SAPE   C3316642   5.174   5.313  10.076  0.2312 -0.3409  0.1295
  150SAPE   H3X16643   5.064   5.313  10.094 -0.1433  0.6647 -1.8289
  150SAPE   H3Y16644   5.200   5.207  10.054 -2.4096 -0.8883 -0.7141
  150SAPE   C3416645   5.200   5.393   9.946  0.2957 -0.0048  0.2634
  150SAPE   H4X16646   5.308   5.416   9.956  0.7201 -2.4171  2.3071
  150SAPE   H4Y16647   5.147   5.490   9.938  0.2418 -0.0351  0.2471
  150SAPE   C3516648   5.167   5.315   9.820 -0.7961 -0.1408  0.4466
  150SAPE   H5X16649   5.069   5.347   9.777 -0.5077 -0.0342 -0.1420
  150SAPE   H5Y16650   5.161   5.204   9.827  1.8822 -0.4518 -0.7919
  150SAPE   C3616651   5.280   5.335   9.712  0.2175 -0.1445  0.1617
  150SAPE   H6X16652   5.354   5.254   9.728 -1.1595 -1.2854  0.9479
  150SAPE   H6Y16653   5.331   5.433   9.729  1.4307 -0.9595  1.5037
  150SAPE   C3716654   5.228   5.322   9.570  0.3206  0.1069 -0.4116
  150SAPE   H7X16655   5.171   5.412   9.535 -1.1112 -1.0994 -1.3181
  150SAPE   H7Y16656   5.152   5.242   9.583  0.5059 -0.2180 -1.2651
  150SAPE   C3816657   5.327   5.294   9.461  0.2784  0.2422  0.0558
  150SAPE   H8X16658   5.384   5.202   9.487  0.6622  0.4023 -0.2114
  150SAPE   H8Y16659   5.400   5.375   9.440 -0.6724  0.5973 -2.1188
  150SAPE   C3916660   5.265   5.257   9.325  0.5341 -0.6014 -0.3744
  150SAPE   H9X16661   5.176   5.191   9.331 -0.8298  1.1434 -0.9136
  150SAPE   H9Y16662   5.336   5.190   9.271 -0.8887 -1.6597 -1.0065
  150SAPE  C31016663   5.242   5.382   9.235  0.5671 -0.2921 -0.1407
  150SAPE  H10X16664   5.307   5.466   9.267  0.4385 -0.9911  2.1855
  150SAPE  H10Y16665   5.138   5.419   9.249  0.5278 -0.6789  0.6299
  150SAPE  C31116666   5.270   5.356   9.089  0.3970  0.2646  0.5541
  150SAPE  H11X16667   5.207   5.281   9.037  1.0819 -0.8457  1.2940
  150SAPE  H11Y16668   5.378   5.338   9.067  0.1148 -0.4606 -0.2989
  150SAPE  C31216669   5.246   5.484   9.009  0.0640 -0.6570  0.2924
  150SAPE  H12X16670   5.320   5.565   9.026  0.7939 -0.8558 -1.6927
  150SAPE  H12Y16671   5.141   5.517   9.023  0.2580  0.3578 -0.5369
  150SAPE  C31316672   5.257   5.459   8.857  0.3663 -0.9877 -0.1879
  150SAPE  H13X16673   5.202   5.370   8.820  0.2023 -0.7020 -0.6463
  150SAPE  H13Y16674   5.358   5.419   8.837  0.1075 -1.6245 -0.2611
  150SAPE  C31416675   5.231   5.587   8.769 -0.6183  0.0057 -0.3396
  150SAPE  H14X16676   5.265   5.557   8.668 -1.5482 -0.6680 -0.4711
  150SAPE  H14Y16677   5.289   5.677   8.799  1.7129 -1.7298  0.6660
  150SAPE  C31516678   5.079   5.615   8.751 -0.2541 -0.3770 -0.0538
  150SAPE  H15X16679   5.033   5.647   8.846  0.9851 -0.0813  0.4680
  150SAPE  H15Y16680   5.033   5.519   8.721 -1.9629  0.7984 -1.4310
  150SAPE  C31616681   5.054   5.721   8.640  0.5541  0.5805 -0.1797
  150SAPE  H16X16682   5.070   5.686   8.536 -2.0048  1.4204 -0.9255
  150SAPE  H16Y16683   5.131   5.799   8.658 -0.6296  2.0988 -1.3972
  150SAPE  C31716684   4.921   5.807   8.655 -0.7093  0.4589 -0.2607
  150SAPE  H17X16685   4.917   5.848   8.758  1.1325 -0.3269  0.1747
  150SAPE  H17Y16686   4.842   5.730   8.643 -0.3291 -0.4812  2.5402
  150SAPE  C31816687   4.900   5.923   8.558  0.0713 -0.5991 -0.6287
  150SAPE  H18X16688   4.900   5.892   8.452 -0.5702  0.9228 -1.1039
  150SAPE  H18Y16689   4.985   5.994   8.565  1.0295 -1.7875  0.0311
  150SAPE  H18Z16690   4.807   5.978   8.586  1.2449 -0.2062  3.0099
  151SAPE     N16691   1.390   3.027  10.749 -0.2189  0.5130 -0.0509
  151SAPE   HN116692   1.479   2.992  10.708  0.1622 -0.6225  1.6260
  151SAPE   HN216693   1.417   3.105  10.812  0.3341  0.9955 -0.8753
  151SAPE   HN316694   1.361   2.938  10.796  0.0796  0.8987  0.9019
  151SAPE   C1216695   1.306   3.067  10.632 -0.6279 -0.0941  0.0310
  151SAPE  H12A16696   1.205   3.067  10.678 -0.6253 -0.7268  0.0442
  151SAPE  H12B16697   1.323   2.996  10.548  0.4770 -0.3487  0.4488
  151SAPE   C1116698   1.335   3.211  10.589 -0.3030 -0.4084  0.8086
  151SAPE  H11A16699   1.310   3.270  10.680  1.5778 -1.6641  2.2149
  151SAPE  H11B16700   1.274   3.246  10.503 -0.0578 -2.0229 -0.0740
  151SAPE     P16701   1.546   3.370  10.572 -0.5019 -0.2979 -0.3154
  151SAPE   O1316702   1.535   3.415  10.709  0.1480  0.3003 -0.1319
  151SAPE   O1416703   1.688   3.374  10.511 -0.0437 -0.8459 -0.7987
  151SAPE   O1216704   1.473   3.227  10.559 -0.4407 -0.9847  0.3224
  151SAPE   O1116705   1.454   3.450  10.485 -0.2405 -0.4252  0.3051
  151SAPE    C116706   1.440   3.414  10.346 -0.0707 -0.4207 -0.6903
  151SAPE    HA16707   1.536   3.427  10.291  0.5724 -0.1484  0.4527
  151SAPE    HB16708   1.403   3.310  10.337  1.6178 -1.0841 -0.3885
  151SAPE    C216709   1.340   3.519  10.276 -0.4142  0.2989 -0.3851
  151SAPE    HS16710   1.350   3.510  10.166 -2.1375  1.0203 -0.6440
  151SAPE   O2116711   1.352   3.646  10.320 -1.0040 -0.1397  0.6198
  151SAPE   C2116712   1.458   3.714  10.272  0.0599  0.2090  0.3923
  151SAPE   O2216713   1.548   3.668  10.201  0.0652 -0.1836  0.0788
  151SAPE   C2216714   1.454   3.858  10.316 -0.1417 -0.8058  0.3619
  151SAPE   H2R16715   1.356   3.904  10.287 -0.2703 -1.1707  0.2151
  151SAPE   H2S16716   1.456   3.862  10.427  1.4149 -2.0127  0.4004
  151SAPE    C316717   1.191   3.484  10.306  0.1471 -0.7208 -0.8103
  151SAPE    HX16718   1.125   3.553  10.249  1.9071  1.6460 -0.1371
  151SAPE    HY16719   1.186   3.495  10.417  0.7464  1.0587 -0.9226
  151SAPE   O3116720   1.173   3.343  10.274 -0.8944  0.8415 -0.0662
  151SAPE   C3116721   1.127   3.316  10.147  0.0855  0.3850 -0.4139
  151SAPE   O3216722   1.132   3.392  10.056  0.2080 -0.0369  0.3299
  151SAPE   C3216723   1.074   3.171  10.143 -0.2654  0.0342  1.0590
  151SAPE   H2X16724   0.983   3.152  10.203 -2.6985 -0.6561 -2.5291
  151SAPE   H2Y16725   1.156   3.103  10.176  1.8478  1.1022 -1.5357
  151SAPE   C2316726   1.574   3.941  10.261 -0.0434 -0.0560  0.0768
  151SAPE   H3R16727   1.671   3.887  10.266 -0.6184 -1.4716 -2.0708
  151SAPE   H3S16728   1.596   4.020  10.335 -1.5777  2.1056 -1.6450
  151SAPE   C2416729   1.545   4.008  10.119  0.2424  0.2541  0.5028
  151SAPE   H4R16730   1.490   3.926  10.068  0.5850 -0.1646  0.8063
  151SAPE   H4S16731   1.637   4.037  10.063 -0.3435 -3.4857 -2.9017
  151SAPE   C2516732   1.458   4.133  10.138  0.0148  0.6521 -0.0331
  151SAPE   H5R16733   1.423   4.137  10.242  0.2994  2.9253  0.0414
  151SAPE   C2616734   1.443   4.232  10.055  0.6698 -0.2048  0.0301
  151SAPE   H6R16735   1.377   4.308  10.100  1.5801  0.9507 -0.5316
  151SAPE   C2716736   1.489   4.257   9.914 -0.2003 -0.2170 -0.5990
  151SAPE   H7R16737   1.505   4.153   9.877 -0.9686 -0.2248 -0.9202
  151SAPE   H7S16738   1.589   4.306   9.909 -0.2595  0.1382  1.2251
  151SAPE   C2816739   1.398   4.321   9.812 -0.3580 -0.2824  0.1555
  151SAPE   H8R16740   1.292   4.340   9.836 -1.3333  0.3135 -3.7854
  151SAPE   C2916741   1.431   4.331   9.683 -0.2031 -0.1429  0.2948
  151SAPE   H9R16742   1.359   4.366   9.608 -0.6028 -0.7316  0.3968
  151SAPE  C21016743   1.569   4.299   9.625 -0.1867  1.0408  0.1227
  151SAPE  H10R16744   1.636   4.259   9.704  0.3223  0.3986 -0.6246
  151SAPE  H10S16745   1.618   4.386   9.576 -0.1538  0.6281 -0.5869
  151SAPE  C21116746   1.566   4.195   9.516  0.1692  0.2493 -0.2608
  151SAPE  H11R16747   1.542   4.096   9.557 -0.6122  1.1029  1.4638
  151SAPE  C21216748   1.569   4.203   9.384  0.2284  1.0025 -0.6857
  151SAPE  H12R16749   1.564   4.107   9.331 -0.4255 -0.9496  2.6079
  151SAPE  C21316750   1.574   4.331   9.304  0.1002  0.0634  0.3061
  151SAPE  H13R16751   1.657   4.342   9.231 -0.0974  2.5374  0.3953
  151SAPE  H13S16752   1.576   4.419   9.371  1.2371  0.4027 -0.1601
  151SAPE  C21416753   1.447   4.350   9.218 -0.0114 -0.0621 -0.2826
  151SAPE  H14R16754   1.361   4.400   9.265 -2.1037 -3.5196 -0.0983
  151SAPE  C21516755   1.430   4.315   9.092 -0.0135 -0.1839 -0.4051
  151SAPE  H15R16756   1.334   4.333   9.042 -0.3865 -0.7908  0.0854
  151SAPE  C21616757   1.530   4.237   9.003 -0.2334  0.2637  0.6063
  151SAPE  H16R16758   1.464   4.166   8.949  1.2841  1.3197 -2.9203
  151SAPE  H16S16759   1.602   4.175   9.060 -0.3585 -0.2000  0.2745
  151SAPE  C21716760   1.595   4.335   8.915 -0.5602  0.4870 -0.5219
  151SAPE  H17R16761   1.683   4.371   8.972  0.4930 -2.4843 -0.1406
  151SAPE  H17S16762   1.545   4.423   8.869 -1.1777 -0.1276 -1.0415
  151SAPE  C21816763   1.652   4.258   8.795 -0.3286  0.0298 -0.2192
  151SAPE  H18R16764   1.562   4.239   8.733 -1.5675 -0.8299  1.7348
  151SAPE  H18S16765   1.684   4.161   8.837 -0.7878  0.4217  1.0793
  151SAPE  C21916766   1.770   4.315   8.712  0.2501  0.3187 -0.0638
  151SAPE  H19R16767   1.733   4.415   8.683 -1.2349  0.5753  2.3789
  151SAPE  H19S16768   1.781   4.257   8.618 -1.7025  1.8837 -1.3171
  151SAPE  C22016769   1.896   4.323   8.798  0.5316 -0.2399  0.2914
  151SAPE  H20R16770   1.933   4.224   8.834  1.7056 -0.0800 -0.4394
  151SAPE  H20S16771   1.888   4.392   8.885  2.1973 -0.1447  0.4025
  151SAPE  H20T16772   1.972   4.370   8.732  0.7380  0.0000  0.6880
  151SAPE   C3316773   1.037   3.136   9.992  0.5414  0.4984 -0.0191
  151SAPE   H3X16774   1.108   3.185   9.922 -0.3138 -0.1206 -1.3455
  151SAPE   H3Y16775   0.947   3.186   9.949 -0.1049  1.5859  2.4151
  151SAPE   C3416776   1.020   2.988   9.967 -0.1649  0.3377  0.3574
  151SAPE   H4X16777   0.937   2.941  10.024 -0.5805 -0.6039 -0.9723
  151SAPE   H4Y16778   1.117   2.939   9.988  0.3807  0.5486 -1.4652
  151SAPE   C3516779   1.007   2.967   9.813  0.1888  0.5823 -0.1288
  151SAPE   H5X16780   1.048   2.866   9.791  0.1665  0.2383  1.3080
  151SAPE   H5Y16781   1.071   3.040   9.759  3.1977 -2.0319 -0.3704
  151SAPE   C3616782   0.857   2.985   9.761  0.0318 -0.4719 -0.3507
  151SAPE   H6X16783   0.842   3.090   9.728 -1.3912 -0.1857  1.0732
  151SAPE   H6Y16784   0.786   2.961   9.844  0.3236  3.0339  1.0703
  151SAPE   C3716785   0.813   2.919   9.626  0.5160  0.3382 -0.4747
  151SAPE   H7X16786   0.719   2.974   9.605  0.7550  0.4974 -1.1355
  151SAPE   H7Y16787   0.809   2.809   9.645  2.0868  0.4006  0.3888
  151SAPE   C3816788   0.928   2.938   9.524  0.0889  0.1152 -0.1667
  151SAPE   H8X16789   1.021   2.894   9.564  1.4641  1.4451 -1.7540
  151SAPE   H8Y16790   0.946   3.047   9.510  1.0919 -0.0261 -0.0248
  151SAPE   C3916791   0.897   2.860   9.385 -0.7245 -0.0593 -0.4208
  151SAPE   H9X16792   0.898   2.752   9.408  0.3828  0.2454  1.1603
  151SAPE   H9Y16793   0.981   2.888   9.318 -0.6240 -0.6840 -0.5520
  151SAPE  C31016794   0.769   2.901   9.324 -0.3523 -0.6078  0.1233
  151SAPE  H10X16795   0.773   3.012   9.318  1.0968 -0.5355  1.5205
  151SAPE  H10Y16796   0.677   2.878   9.381 -0.4648  0.4455  0.3866
  151SAPE  C31116797   0.771   2.862   9.177 -0.7869  0.3165 -0.4534
  151SAPE  H11X16798   0.677   2.896   9.129 -0.4657  0.7281 -0.7948
  151SAPE  H11Y16799   0.782   2.753   9.156  0.5397 -0.0277  1.7068
  151SAPE  C31216800   0.892   2.904   9.088 -0.1963  0.6115 -0.6745
  151SAPE  H12X16801   0.974   2.829   9.092 -1.0508 -0.3954 -1.6204
  151SAPE  H12Y16802   0.932   2.999   9.130  3.4141 -1.1574  0.2497
  151SAPE  C31316803   0.858   2.935   8.945  0.4478 -0.1212  0.0711
  151SAPE  H13X16804   0.809   2.854   8.887  1.2925  0.6309 -1.7643
  151SAPE  H13Y16805   0.955   2.967   8.902  0.6747  0.4646  0.9753
  151SAPE  C31416806   0.766   3.063   8.936 -0.0003 -0.2127 -0.2710
  151SAPE  H14X16807   0.837   3.144   8.964  3.0174 -3.4103  2.2078
  151SAPE  H14Y16808   0.696   3.057   9.022 -0.8467 -1.2647 -1.0060
  151SAPE  C31516809   0.706   3.076   8.800  0.0247 -0.4038  0.1919
  151SAPE  H15X16810   0.619   3.144   8.811  0.5658 -0.0473  2.9804
  151SAPE  H15Y16811   0.667   2.975   8.774 -0.1528 -0.5882  1.1596
  151SAPE  C31616812   0.795   3.128   8.692  1.0498  0.2715 -0.0961
  151SAPE  H16X16813   0.871   3.050   8.667  2.2759  0.9783  1.2416
  151SAPE  H16Y16814   0.836   3.224   8.729  0.5536  1.1233 -1.6513
  151SAPE  C31716815   0.717   3.166   8.566 -0.0679  0.7650  0.1247
  151SAPE  H17X16816   0.631   3.237   8.569 -0.2924  0.5327 -0.5603
  151SAPE  H17Y16817   0.663   3.074   8.534  1.4294  0.5091 -1.8897
  151SAPE  C31816818   0.799   3.190   8.439 -0.2261 -1.0315 -0.1678
  151SAPE  H18X16819   0.747   3.163   8.345 -0.3426  2.7715 -1.3740
  151SAPE  H18Y16820   0.895   3.133   8.436 -0.0742 -0.8636  1.1953
  151SAPE  H18Z16821   0.822   3.299   8.436 -0.2482 -1.0397 -0.7784
  152SAPE     N16822   2.783   1.588  10.459  0.4693 -0.0396 -0.2448
  152SAPE   HN116823   2.728   1.649  10.523 -1.4764  0.3706 -2.1772
  152SAPE   HN216824   2.725   1.566  10.375 -0.0006 -1.8425  0.5110
  152SAPE   HN316825   2.793   1.495  10.504 -1.8723 -0.1801  0.1431
  152SAPE   C1216826   2.910   1.655  10.422 -0.1336  0.8792 -0.5215
  152SAPE  H12A16827   2.957   1.710  10.506 -0.5620  1.3892 -0.6090
  152SAPE  H12B16828   2.888   1.744  10.359 -2.7631  1.1902  0.6698
  152SAPE   C1116829   3.006   1.554  10.358 -0.0420 -0.3744 -0.0766
  152SAPE  H11A16830   3.099   1.612  10.339 -1.8205  2.0221 -2.0569
  152SAPE  H11B16831   2.966   1.511  10.264 -0.2613 -0.3956  0.0262
  152SAPE     P16832   3.112   1.460  10.585  0.0172  0.1409 -0.0529
  152SAPE   O1316833   3.016   1.536  10.670  0.5497 -0.0583 -0.3291
  152SAPE   O1416834   3.153   1.329  10.638  0.3381 -0.1928  0.2851
  152SAPE   O1216835   3.039   1.449  10.445 -0.9100 -0.2517 -0.0200
  152SAPE   O1116836   3.232   1.553  10.547 -0.0704 -0.3220 -0.1148
  152SAPE    C116837   3.364   1.502  10.515  0.1182 -0.2752 -0.3264
  152SAPE    HA16838   3.428   1.527  10.602 -0.3208 -1.5606  0.3947
  152SAPE    HB16839   3.363   1.391  10.514 -0.9422 -0.2851 -1.5809
  152SAPE    C216840   3.415   1.561  10.380 -0.1270  0.4717 -0.0739
  152SAPE    HS16841   3.416   1.671  10.389 -0.6652  0.5195 -0.6231
  152SAPE   O2116842   3.329   1.508  10.275 -0.0483 -0.3502  0.4161
  152SAPE   C2116843   3.297   1.598  10.181 -0.5551  0.6717  0.5243
  152SAPE   O2216844   3.307   1.719  10.193 -0.0933 -0.8271 -0.2143
  152SAPE   C2216845   3.249   1.528  10.050  0.6397 -0.6277  0.0402
  152SAPE   H2R16846   3.335   1.464  10.022  3.3640  1.3375  3.0868
  152SAPE   H2S16847   3.160   1.470  10.080 -1.1023  1.2797 -1.1338
  152SAPE    C316848   3.561   1.518  10.345 -0.0967  0.3423  1.0721
  152SAPE    HX16849   3.571   1.407  10.345  3.8501  0.4487 -2.3813
  152SAPE    HY16850   3.625   1.572  10.418 -0.0786  0.6851  0.8044
  152SAPE   O3116851   3.596   1.563  10.215  0.5448 -0.4533  0.3761
  152SAPE   C3116852   3.701   1.509  10.156  0.8401 -0.3398  0.1115
  152SAPE   O3216853   3.760   1.409  10.192  0.5600 -0.0091 -0.4917
  152SAPE   C3216854   3.709   1.571  10.015  0.4674 -0.0268  0.3084
  152SAPE   H2X16855   3.750   1.674  10.018 -0.4680  0.4585 -1.7087
  152SAPE   H2Y16856   3.612   1.576   9.962  0.4253  0.8339  0.4452
  152SAPE   C2316857   3.208   1.626   9.935 -0.0743  0.5792  0.6564
  152SAPE   H3R16858   3.128   1.699   9.963  0.8648  2.5104 -1.4243
  152SAPE   H3S16859   3.162   1.559   9.860  0.0858  0.8980  0.2722
  152SAPE   C2416860   3.326   1.711   9.873  0.1483  0.8854 -1.0417
  152SAPE   H4R16861   3.400   1.635   9.842 -2.0612 -1.2611 -1.4183
  152SAPE   H4S16862   3.376   1.772   9.951 -0.2109 -1.8624  1.5403
  152SAPE   C2516863   3.281   1.804   9.765  0.2565 -0.7010  0.4594
  152SAPE   H5R16864   3.231   1.890   9.811 -1.6910 -2.5576  2.0527
  152SAPE   C2616865   3.311   1.790   9.635  0.9858 -0.4997  0.1147
  152SAPE   H6R16866   3.274   1.867   9.566  0.6204  1.9075  2.8262
  152SAPE   C2716867   3.365   1.669   9.563 -0.4842 -0.3263 -0.5960
  152SAPE   H7R16868   3.319   1.575   9.602  0.3744 -0.2881  0.5340
  152SAPE   H7S16869   3.474   1.665   9.580 -0.4449 -0.8569 -0.9334
  152SAPE   C2816870   3.346   1.649   9.412  0.1205  0.0986  0.1991
  152SAPE   H8R16871   3.238   1.653   9.389  0.2261 -0.4575 -0.3908
  152SAPE   C2916872   3.432   1.636   9.311  0.3061 -0.4619 -0.1814
  152SAPE   H9R16873   3.403   1.619   9.207  3.3402  1.5308 -1.4989
  152SAPE  C21016874   3.581   1.621   9.337 -0.3840  0.1225  0.1736
  152SAPE  H10R16875   3.600   1.528   9.394  0.2913  0.3693  0.3714
  152SAPE  H10S16876   3.603   1.710   9.401 -1.6166  1.5374 -1.2719
  152SAPE  C21116877   3.665   1.627   9.207 -0.0284  0.1485 -0.2585
  152SAPE  H11R16878   3.714   1.536   9.169 -0.8101 -0.1064 -0.6839
  152SAPE  C21216879   3.696   1.735   9.131  0.2619  0.0698 -0.0130
  152SAPE  H12R16880   3.759   1.715   9.043 -0.4056 -0.5719 -0.3510
  152SAPE  C21316881   3.656   1.875   9.169 -0.4646  0.2289 -0.0715
  152SAPE  H13R16882   3.744   1.933   9.204  0.1251 -1.4018  1.2687
  152SAPE  H13S16883   3.591   1.881   9.260  2.5595  2.2417  2.1727
  152SAPE  C21416884   3.588   1.948   9.058  0.6197 -0.1076  0.1889
  152SAPE  H14R16885   3.481   1.971   9.070  0.1503 -2.2044  0.2980
  152SAPE  C21516886   3.643   1.996   8.942  0.4667 -0.3480 -0.4328
  152SAPE  H15R16887   3.577   2.050   8.872 -0.5348 -2.0723 -0.8753
  152SAPE  C21616888   3.794   2.003   8.919 -0.2622  0.4595 -0.6946
  152SAPE  H16R16889   3.844   1.916   8.966  1.1136  1.0817 -0.9795
  152SAPE  H16S16890   3.843   2.085   8.976  0.6163 -1.3989  1.3654
  152SAPE  C21716891   3.829   2.002   8.773 -0.7862  0.0313 -0.4353
  152SAPE  H17R16892   3.799   1.903   8.732  2.9355 -1.2079 -0.5323
  152SAPE  H17S16893   3.939   2.011   8.770 -0.7324 -0.6335 -0.4640
  152SAPE  C21816894   3.758   2.107   8.694  0.3137 -0.3453  0.4258
  152SAPE  H18R16895   3.733   2.202   8.748 -0.8203 -0.3701 -0.0405
  152SAPE  H18S16896   3.656   2.074   8.666 -0.0587  1.3045 -0.2667
  152SAPE  C21916897   3.829   2.152   8.568  0.5830  0.7550  0.4544
  152SAPE  H19R16898   3.839   2.059   8.509 -1.2911  0.7295  0.1195
  152SAPE  H19S16899   3.929   2.192   8.596  0.7688  0.1692  0.6418
  152SAPE  C22016900   3.749   2.261   8.483  0.0261 -0.0793  0.2930
  152SAPE  H20R16901   3.766   2.363   8.523 -1.5310 -0.0833  1.0219
  152SAPE  H20S16902   3.640   2.250   8.499 -0.1959 -0.8386 -1.5249
  152SAPE  H20T16903   3.777   2.271   8.376 -0.0299  0.1216  0.2967
  152SAPE   C3316904   3.802   1.491   9.919 -0.2687 -0.0926 -0.0673
  152SAPE   H3X16905   3.780   1.383   9.927 -0.3123 -0.0219  0.8583
  152SAPE   H3Y16906   3.908   1.499   9.950 -0.3537  2.1056 -0.1417
  152SAPE   C3416907   3.787   1.533   9.775  0.6601 -0.7417 -0.8098
  152SAPE   H4X16908   3.794   1.642   9.755  0.7741 -0.7758 -0.9532
  152SAPE   H4Y16909   3.681   1.520   9.745 -0.1248  0.4743  1.2266
  152SAPE   C3516910   3.879   1.454   9.682 -0.4585  0.3152 -0.4697
  152SAPE   H5X16911   3.857   1.346   9.701 -2.3851  0.2570 -2.6228
  152SAPE   H5Y16912   3.981   1.474   9.720  0.4692 -0.8005 -2.2298
  152SAPE   C3616913   3.875   1.500   9.537  0.0446  0.1705  0.2976
  152SAPE   H6X16914   3.874   1.610   9.521 -0.3862  0.1440  0.1274
  152SAPE   H6Y16915   3.775   1.465   9.503  1.2290 -2.5322 -0.6301
  152SAPE   C3716916   3.993   1.453   9.444 -0.5139  0.3247 -0.2866
  152SAPE   H7X16917   4.021   1.345   9.451 -0.2098  0.3392 -1.2458
  152SAPE   H7Y16918   4.081   1.517   9.464 -0.2946 -0.5784  2.0042
  152SAPE   C3816919   3.972   1.486   9.289 -0.2876  0.2050 -0.5597
  152SAPE   H8X16920   3.948   1.593   9.268 -2.1351 -0.4767 -2.1258
  152SAPE   H8Y16921   3.886   1.426   9.254 -1.1386 -0.1085  1.8520
  152SAPE   C3916922   4.105   1.459   9.209  0.7130  0.2460  0.4131
  152SAPE   H9X16923   4.155   1.366   9.244  0.5128 -0.9824 -2.3095
  152SAPE   H9Y16924   4.171   1.544   9.234 -1.2003  1.5243  1.4083
  152SAPE  C31016925   4.098   1.438   9.059  0.3608  0.2628  0.3202
  152SAPE  H10X16926   4.033   1.348   9.051  0.3818  0.3910 -1.8745
  152SAPE  H10Y16927   4.196   1.397   9.028  0.1704 -0.2629  0.4014
  152SAPE  C31116928   4.051   1.548   8.977 -0.0576  0.1844 -0.1781
  152SAPE  H11X16929   4.124   1.630   8.993  0.8374 -0.1729 -2.1685
  152SAPE  H11Y16930   3.953   1.575   9.021  0.2817  0.5544  0.3677
  152SAPE  C31216931   4.032   1.517   8.829 -0.4930 -0.0036 -1.0127
  152SAPE  H12X16932   3.960   1.432   8.828  1.2780 -1.5950  0.0787
  152SAPE  H12Y16933   4.121   1.476   8.776 -0.6058 -2.1872  0.3670
  152SAPE  C31316934   3.977   1.635   8.745  1.0840 -1.2434 -0.1384
  152SAPE  H13X16935   4.039   1.726   8.754  0.4655 -0.9136  0.9485
  152SAPE  H13Y16936   3.871   1.657   8.769 -0.5910 -2.1777 -5.2987
  152SAPE  C31416937   3.981   1.618   8.595 -0.3062 -0.0162  0.0829
  152SAPE  H14X16938   3.948   1.514   8.573  0.7718  0.0831 -2.3624
  152SAPE  H14Y16939   4.084   1.631   8.557  0.2813  0.7059  1.8363
  152SAPE  C31516940   3.893   1.715   8.518  0.7528 -0.5470 -0.0449
  152SAPE  H15X16941   3.940   1.815   8.532 -1.5066  0.6859 -0.7344
  152SAPE  H15Y16942   3.791   1.700   8.560  0.9869 -0.5914  0.5093
  152SAPE  C31616943   3.879   1.684   8.370 -0.0408 -0.6730  0.0574
  152SAPE  H16X16944   3.899   1.576   8.348 -0.2631 -1.0242  1.5110
  152SAPE  H16Y16945   3.945   1.740   8.300 -1.0957 -1.1764 -1.3949
  152SAPE  C31716946   3.735   1.696   8.310  0.2591 -0.3903 -0.5973
  152SAPE  H17X16947   3.708   1.803   8.324 -0.1878 -0.8370  3.2141
  152SAPE  H17Y16948   3.664   1.630   8.366  1.1682 -0.6203  0.3226
  152SAPE  C31816949   3.739   1.659   8.164  0.3523 -0.4537  0.5383
  152SAPE  H18X16950   3.795   1.731   8.102 -1.0213  0.2988  0.1191
  152SAPE  H18Y16951   3.637   1.663   8.119  1.1605 -1.4724 -1.5000
  152SAPE  H18Z16952   3.780   1.556   8.159 -0.5343 -0.8371  0.9235
  153SAPE     N16953   1.939   3.419  10.681 -0.3999 -0.6401  0.0559
  153SAPE   HN116954   1.997   3.477  10.617 -1.3349  0.3210  0.0539
  153SAPE   HN216955   1.910   3.327  10.641 -3.2687  0.4160 -0.4891
  153SAPE   HN316956   1.862   3.484  10.703  0.9565  0.3418  2.2016
  153SAPE   C1216957   2.023   3.405  10.809  0.0907 -0.2953  0.2670
  153SAPE  H12A16958   2.094   3.326  10.775 -1.5449 -1.2856 -0.9972
  153SAPE  H12B16959   1.957   3.369  10.891 -1.2307 -0.6064 -0.8845
  153SAPE   C1116960   2.097   3.535  10.838  0.1402  0.2366  0.7192
  153SAPE  H11A16961   2.161   3.516  10.927 -0.7971 -1.8865  1.0081
  153SAPE  H11B16962   2.017   3.606  10.869 -0.5310 -0.0324 -0.3332
  153SAPE     P16963   2.303   3.649  10.735 -0.4088  0.6068 -0.0912
  153SAPE   O1316964   2.296   3.767  10.823 -0.3664 -0.1507  0.1996
  153SAPE   O1416965   2.404   3.538  10.753  0.1369 -0.1481 -0.0627
  153SAPE   O1216966   2.160   3.583  10.718 -0.3955 -0.3409  0.1872
  153SAPE   O1116967   2.333   3.704  10.590 -0.2952 -0.7416  0.8672
  153SAPE    C116968   2.239   3.740  10.489 -0.2297  0.4699  0.0984
  153SAPE    HA16969   2.137   3.709  10.521  0.0163 -0.1602  0.2884
  153SAPE    HB16970   2.236   3.848  10.464 -1.6510  0.7088  1.1343
  153SAPE    C216971   2.271   3.656  10.360  0.3862  0.1471  0.0734
  153SAPE    HS16972   2.284   3.549  10.384  2.1791  0.5284  1.0286
  153SAPE   O2116973   2.390   3.714  10.313  0.2047  0.3199 -0.1393
  153SAPE   C2116974   2.464   3.646  10.220 -0.4673  0.2397  0.5778
  153SAPE   O2216975   2.441   3.533  10.186 -0.1811  0.7306 -0.5011
  153SAPE   C2216976   2.562   3.740  10.160 -0.2810  0.8979 -0.2693
  153SAPE   H2R16977   2.511   3.801  10.083 -0.3635 -0.2805 -1.1659
  153SAPE   H2S16978   2.602   3.806  10.240  0.3801 -0.9860  1.0271
  153SAPE    C316979   2.157   3.674  10.251 -0.0468  0.2398 -0.5644
  153SAPE    HX16980   2.156   3.781  10.222 -0.1126  1.0819  2.2187
  153SAPE    HY16981   2.055   3.651  10.289 -0.6819  2.2798 -0.9320
  153SAPE   O3116982   2.186   3.595  10.131  0.0519 -0.2100 -0.1235
  153SAPE   C3116983   2.158   3.465  10.151  0.0856  0.0589  0.1245
  153SAPE   O3216984   2.105   3.424  10.254  0.0607 -0.8019  0.0565
  153SAPE   C3216985   2.175   3.376  10.027 -0.3129 -0.1759  0.3856
  153SAPE   H2X16986   2.074   3.362   9.982  0.4878  0.8764 -1.9151
  153SAPE   H2Y16987   2.218   3.279  10.062  0.5857 -1.2778 -3.2907
  153SAPE   C2316988   2.683   3.658  10.097  0.2437  0.9100 -0.0762
  153SAPE   H3R16989   2.705   3.574  10.167  0.6016  1.2465  0.2133
  153SAPE   H3S16990   2.774   3.720  10.097  0.4330  0.6894 -1.7879
  153SAPE   C2416991   2.648   3.607   9.958 -0.0086 -0.2879 -0.5540
  153SAPE   H4R16992   2.641   3.692   9.887 -2.7707  0.1147  0.0976
  153SAPE   H4S16993   2.551   3.552   9.963 -1.0830  1.5508 -0.2978
  153SAPE   C2516994   2.760   3.514   9.928  0.2036  0.5508  0.4299
  153SAPE   H5R16995   2.789   3.450  10.013 -1.7368 -0.7885  0.1454
  153SAPE   C2616996   2.843   3.527   9.824 -0.0248  0.9342  0.3357
  153SAPE   H6R16997   2.918   3.448   9.809 -0.4165  0.4928  0.6796
  153SAPE   C2716998   2.832   3.625   9.709 -0.0324 -0.1024  0.5832
  153SAPE   H7R16999   2.793   3.721   9.748  0.4768 -0.3399  1.7376
  153SAPE   H7S17000   2.755   3.577   9.645 -0.9979 -0.5268  2.0080
  153SAPE   C2817001   2.963   3.648   9.625  0.4124 -0.1256  0.0443
  153SAPE   H8R17002   3.054   3.623   9.682  1.0920  0.3069 -0.8123
  153SAPE   C2917003   2.979   3.693   9.494  0.2269 -0.0128  0.7112
  153SAPE   H9R17004   3.073   3.671   9.442 -0.9488 -1.0599 -1.1151
  153SAPE  C21017005   2.859   3.704   9.405  0.1677 -0.0659 -0.2959
  153SAPE  H10R17006   2.781   3.777   9.437  0.8483 -0.4003  2.4038
  153SAPE  H10S17007   2.815   3.602   9.400 -1.3362  0.4819  0.8772
  153SAPE  C21117008   2.916   3.746   9.267  0.2201 -0.5382 -0.4061
  153SAPE  H11R17009   2.897   3.850   9.237 -0.4072 -0.4160  0.3529
  153SAPE  C21217010   2.964   3.672   9.167  0.9328  0.5972 -0.2793
  153SAPE  H12R17011   3.013   3.713   9.077  1.6770 -1.1625 -0.7019
  153SAPE  C21317012   2.997   3.519   9.187 -0.3469 -0.7578  0.1294
  153SAPE  H13R17013   3.023   3.500   9.294 -1.7426 -1.0263  0.4435
  153SAPE  H13S17014   3.091   3.492   9.134  0.1245  1.2829 -0.1321
  153SAPE  C21417015   2.880   3.431   9.145 -0.0098  0.1075  0.5224
  153SAPE  H14R17016   2.778   3.471   9.145 -0.9281 -1.9660 -1.8369
  153SAPE  C21517017   2.884   3.293   9.146 -0.6614 -0.6432  1.3975
  153SAPE  H15R17018   2.790   3.241   9.122 -0.7296 -0.4260  1.1908
  153SAPE  C21617019   3.016   3.211   9.156  0.5068 -0.7573  0.8872
  153SAPE  H16R17020   3.097   3.267   9.106  0.2072 -1.0640  0.0378
  153SAPE  H16S17021   3.011   3.120   9.092 -0.9180  0.8427 -1.4085
  153SAPE  C21717022   3.058   3.181   9.294  0.4590  0.1240  0.6075
  153SAPE  H17R17023   3.059   3.275   9.353 -1.4756 -0.2225  1.2823
  153SAPE  H17S17024   3.163   3.144   9.295  0.2512 -0.4937  0.3432
  153SAPE  C21817025   2.980   3.086   9.389 -0.0426 -0.4091  0.3999
  153SAPE  H18R17026   3.053   3.057   9.468  2.2275  2.1918 -0.5923
  153SAPE  H18S17027   2.956   2.989   9.340 -2.1633  0.2924 -0.0964
  153SAPE  C21917028   2.843   3.138   9.435 -0.0169 -0.7188  0.3219
  153SAPE  H19R17029   2.810   3.067   9.514 -0.8115 -0.1390  0.5216
  153SAPE  H19S17030   2.770   3.140   9.351 -2.0252  4.2775  1.8066
  153SAPE  C22017031   2.827   3.270   9.499 -0.2345  0.5647 -0.6287
  153SAPE  H20R17032   2.859   3.358   9.438  0.0265  1.6666  1.0271
  153SAPE  H20S17033   2.887   3.272   9.592 -2.2578 -0.1848  0.7518
  153SAPE  H20T17034   2.724   3.298   9.531 -0.1734 -1.4217  1.5408
  153SAPE   C3317035   2.271   3.439   9.921 -0.3167  0.6200 -0.2843
  153SAPE   H3X17036   2.371   3.442   9.968 -0.3330 -0.0873 -0.1901
  153SAPE   H3Y17037   2.242   3.542   9.894  0.2648  0.5143 -1.3688
  153SAPE   C3417038   2.266   3.360   9.787  0.1739  0.0152 -0.3739
  153SAPE   H4X17039   2.166   3.356   9.739  0.1198 -1.7736 -0.1738
  153SAPE   H4Y17040   2.285   3.253   9.810  0.5689  0.3630  1.0045
  153SAPE   C3517041   2.364   3.414   9.681 -0.5868 -0.3477  0.2349
  153SAPE   H5X17042   2.405   3.330   9.621  2.4481  2.4024 -1.9198
  153SAPE   H5Y17043   2.453   3.454   9.733 -1.5872  2.1373  0.1485
  153SAPE   C3617044   2.302   3.519   9.586 -0.0423  0.8477  0.0367
  153SAPE   H6X17045   2.256   3.593   9.654 -3.4198 -0.1229 -0.9819
  153SAPE   H6Y17046   2.219   3.472   9.528 -1.4878  0.6879  2.1072
  153SAPE   C3717047   2.406   3.570   9.490 -0.4530 -0.1628 -0.3127
  153SAPE   H7X17048   2.478   3.490   9.464  0.1484  0.4580 -0.6033
  153SAPE   H7Y17049   2.471   3.649   9.535  0.0119  0.8640 -2.6660
  153SAPE   C3817050   2.363   3.637   9.364  0.6594 -0.2753  0.4108
  153SAPE   H8X17051   2.305   3.727   9.392  0.9837 -0.1174  0.5719
  153SAPE   H8Y17052   2.290   3.567   9.317 -0.7261  1.1348  0.3696
  153SAPE   C3917053   2.470   3.658   9.259  0.1483 -0.1517  0.1777
  153SAPE   H9X17054   2.523   3.562   9.245  1.9117  0.5370  1.7158
  153SAPE   H9Y17055   2.544   3.726   9.306 -1.6566  1.8686  0.3101
  153SAPE  C31017056   2.412   3.708   9.131 -0.4510 -0.5158  0.2126
  153SAPE  H10X17057   2.354   3.801   9.147  0.9874  0.2789  1.0581
  153SAPE  H10Y17058   2.326   3.645   9.099 -1.0010  0.5273 -0.4093
  153SAPE  C31117059   2.511   3.719   9.017  0.2809 -0.2524  0.4144
  153SAPE  H11X17060   2.541   3.613   9.006  1.1797 -0.0728  1.0058
  153SAPE  H11Y17061   2.602   3.778   9.043 -0.0372  1.0712 -1.2772
  153SAPE  C31217062   2.461   3.756   8.882  0.0373  0.1162  0.5552
  153SAPE  H12X17063   2.428   3.862   8.876  0.5826  0.2021 -2.6467
  153SAPE  H12Y17064   2.375   3.694   8.850  0.9822 -0.0480 -1.8253
  153SAPE  C31317065   2.567   3.747   8.769  0.5847  0.0899 -0.1863
  153SAPE  H13X17066   2.602   3.646   8.740  0.2552  0.2714 -1.2568
  153SAPE  H13Y17067   2.646   3.814   8.808 -1.4091  2.4636  0.0667
  153SAPE  C31417068   2.517   3.809   8.640 -0.4870 -0.1714 -0.0878
  153SAPE  H14X17069   2.471   3.910   8.643 -0.3297 -0.0324 -1.5634
  153SAPE  H14Y17070   2.439   3.741   8.599 -1.5471  0.7857  0.2843
  153SAPE  C31517071   2.617   3.812   8.521  0.1985 -0.1070 -0.3237
  153SAPE  H15X17072   2.648   3.706   8.511  0.5633  0.1009 -1.5857
  153SAPE  H15Y17073   2.693   3.888   8.549 -0.7531  0.2859  1.3983
  153SAPE  C31617074   2.561   3.844   8.380 -0.4990 -0.2503 -0.5240
  153SAPE  H16X17075   2.519   3.946   8.366  0.9527  0.3492 -0.7536
  153SAPE  H16Y17076   2.473   3.780   8.358 -0.8750 -1.6844  4.0822
  153SAPE  C31717077   2.663   3.829   8.255 -0.0440  0.1845 -0.4337
  153SAPE  H17X17078   2.697   3.723   8.263 -0.1049  0.2617  1.4799
  153SAPE  H17Y17079   2.752   3.890   8.281 -1.4082  2.0993 -0.1103
  153SAPE  C31817080   2.610   3.862   8.121  0.4772 -0.4494 -0.0054
  153SAPE  H18X17081   2.590   3.971   8.110  0.3501 -0.7001 -3.9347
  153SAPE  H18Y17082   2.512   3.812   8.107  1.6176 -2.5221 -1.2172
  153SAPE  H18Z17083   2.681   3.850   8.036 -0.8675  1.9350 -1.6049
  154SAPE     N17084   3.403   2.190  10.277 -0.5453 -0.2133 -0.5584
  154SAPE   HN117085   3.397   2.113  10.208  1.1409 -1.6387  0.7809
  154SAPE   HN217086   3.416   2.282  10.230 -0.8918  1.2094  1.9262
  154SAPE   HN317087   3.489   2.164  10.330 -0.6840 -2.1930 -1.2249
  154SAPE   C1217088   3.285   2.205  10.369  0.6260  1.0624 -0.0974
  154SAPE  H12A17089   3.317   2.239  10.470  0.0397 -0.2614  0.5552
  154SAPE  H12B17090   3.246   2.103  10.385 -3.4099  2.4727  0.3240
  154SAPE   C1117091   3.180   2.293  10.309  0.9022 -0.0539  0.3578
  154SAPE  H11A17092   3.097   2.293  10.384  2.1786 -1.8852  1.8670
  154SAPE  H11B17093   3.137   2.247  10.218 -2.1956 -1.7753  2.5007
  154SAPE     P17094   3.189   2.554  10.336 -0.2997  0.3345 -0.1508
  154SAPE   O1317095   3.189   2.536  10.484  0.3895 -0.3353  0.2531
  154SAPE   O1417096   3.268   2.666  10.274 -0.2606  0.0593  0.0257
  154SAPE   O1217097   3.239   2.420  10.272  0.0586  0.5015 -0.4804
  154SAPE   O1117098   3.040   2.568  10.293 -0.1399 -0.4298 -0.5756
  154SAPE    C117099   2.998   2.590  10.160 -0.1793 -0.6711 -0.2232
  154SAPE    HA17100   2.911   2.658  10.163  0.7518  0.7596 -2.7258
  154SAPE    HB17101   3.071   2.631  10.087  0.2349 -2.0104 -0.6051
  154SAPE    C217102   2.929   2.474  10.094 -0.2605  0.6384  0.3459
  154SAPE    HS17103   3.002   2.401  10.055 -0.8294  0.8264 -1.1373
  154SAPE   O2117104   2.845   2.526   9.993 -0.3811  0.5299  0.4176
  154SAPE   C2117105   2.907   2.587   9.890 -0.0177 -0.1340 -0.4787
  154SAPE   O2217106   3.026   2.598   9.873  0.8049 -0.1145 -0.1894
  154SAPE   C2217107   2.793   2.658   9.804 -0.2370  0.2346  0.1109
  154SAPE   H2R17108   2.715   2.583   9.779 -0.7511  0.4797  0.9702
  154SAPE   H2S17109   2.754   2.746   9.858  0.1952 -0.4030  1.5151
  154SAPE    C317110   2.837   2.399  10.194  0.0596  0.0376 -0.5554
  154SAPE    HX17111   2.792   2.480  10.255  0.8801 -1.2539  1.9171
  154SAPE    HY17112   2.905   2.345  10.263 -0.9247  0.5955  0.9159
  154SAPE   O3117113   2.735   2.317  10.136  0.0093  0.5074  1.0668
  154SAPE   C3117114   2.775   2.213  10.053  0.8911 -0.4159 -0.3328
  154SAPE   O3217115   2.888   2.183  10.032 -0.1144 -0.9609 -0.2526
  154SAPE   C3217116   2.654   2.131  10.019  0.1209 -0.0610  0.2009
  154SAPE   H2X17117   2.563   2.193  10.036  0.5309  0.5775  0.1114
  154SAPE   H2Y17118   2.656   2.042  10.085 -0.0172 -0.2734 -0.0767
  154SAPE   C2317119   2.859   2.736   9.680  0.1743 -0.6797 -0.2093
  154SAPE   H3R17120   2.954   2.687   9.651  2.0998  2.0033  1.1416
  154SAPE   H3S17121   2.899   2.834   9.713 -1.6906  0.5948 -1.4983
  154SAPE   C2417122   2.748   2.749   9.568 -1.0276  0.3172 -0.0184
  154SAPE   H4R17123   2.791   2.830   9.504  0.4547 -0.3794  0.0430
  154SAPE   H4S17124   2.648   2.786   9.597 -2.0872 -1.7071 -0.9387
  154SAPE   C2517125   2.718   2.620   9.500 -1.1524  0.4257 -0.2776
  154SAPE   H5R17126   2.714   2.542   9.578 -1.0360  2.0963  1.4767
  154SAPE   C2617127   2.716   2.579   9.372 -0.4554  0.2545 -0.7272
  154SAPE   H6R17128   2.679   2.477   9.353 -1.2137  0.4655 -0.4176
  154SAPE   C2717129   2.725   2.673   9.257  0.1626 -0.1967  0.2482
  154SAPE   H7R17130   2.664   2.764   9.268  0.5498 -0.0326  1.0720
  154SAPE   H7S17131   2.686   2.629   9.162 -2.2199  2.8463 -0.3133
  154SAPE   C2817132   2.860   2.741   9.257  0.1131 -0.4501  0.0131
  154SAPE   H8R17133   2.913   2.747   9.353 -0.8893  0.9446  0.5188
  154SAPE   C2917134   2.921   2.809   9.157  0.2815  0.0968  0.3930
  154SAPE   H9R17135   3.024   2.848   9.169  0.0159  0.7201  0.7396
  154SAPE  C21017136   2.869   2.826   9.016 -0.2248  0.6130  0.0624
  154SAPE  H10R17137   2.811   2.735   8.988  1.1119  0.8695 -4.1620
  154SAPE  H10S17138   2.962   2.821   8.955  0.7972 -1.7856  1.6808
  154SAPE  C21117139   2.781   2.954   9.001 -0.0454  0.4200  0.3938
  154SAPE  H11R17140   2.697   2.947   9.071 -1.1017 -3.6556 -0.9820
  154SAPE  C21217141   2.779   3.057   8.912  0.0979  1.3898 -0.1984
  154SAPE  H12R17142   2.693   3.126   8.908 -0.9467  0.1148 -0.4753
  154SAPE  C21317143   2.880   3.070   8.806  0.3315 -0.6708  0.1716
  154SAPE  H13R17144   2.836   3.011   8.722 -1.2197 -0.0335  0.5006
  154SAPE  H13S17145   2.979   3.029   8.837  1.2095  1.4818  0.3854
  154SAPE  C21417146   2.923   3.209   8.766  0.0986 -0.1020 -0.5047
  154SAPE  H14R17147   2.966   3.261   8.853 -1.0885 -5.4439  3.8309
  154SAPE  C21517148   2.912   3.275   8.653  0.3324  0.4988  0.3638
  154SAPE  H15R17149   2.948   3.379   8.658 -0.3268  0.8247 -1.2168
  154SAPE  C21617150   2.853   3.232   8.522  0.0836 -0.3172 -0.8684
  154SAPE  H16R17151   2.871   3.124   8.509 -0.1256 -0.2042 -2.2818
  154SAPE  H16S17152   2.904   3.279   8.435  3.3788 -0.9525  0.5737
  154SAPE  C21717153   2.700   3.253   8.535 -1.0706  0.0088  0.3650
  154SAPE  H17R17154   2.681   3.361   8.550  1.5429  0.5264  0.3604
  154SAPE  H17S17155   2.663   3.193   8.620  0.9181 -1.0380  0.5622
  154SAPE  C21817156   2.628   3.185   8.414  0.0935 -0.0779 -0.0304
  154SAPE  H18R17157   2.520   3.173   8.436  0.7090 -0.8871  2.9731
  154SAPE  H18S17158   2.665   3.080   8.408  1.8885  0.4135  1.4596
  154SAPE  C21917159   2.638   3.252   8.280  0.7509 -0.4525 -0.2957
  154SAPE  H19R17160   2.743   3.281   8.258 -0.0375  3.3321  0.1902
  154SAPE  H19S17161   2.587   3.348   8.303 -2.1399 -1.9751  0.0477
  154SAPE  C22017162   2.573   3.197   8.153  0.3420  0.3284  0.4759
  154SAPE  H20R17163   2.475   3.152   8.181 -0.0927  0.6169 -0.5309
  154SAPE  H20S17164   2.650   3.129   8.111 -0.7867 -0.3904 -0.5172
  154SAPE  H20T17165   2.555   3.278   8.079 -0.8852 -0.6218 -0.3143
  154SAPE   C3317166   2.675   2.097   9.872  0.0026 -0.0309 -1.3722
  154SAPE   H3X17167   2.594   2.025   9.851 -0.0090 -1.4917  2.7554
  154SAPE   H3Y17168   2.768   2.037   9.864 -0.1040 -0.8214  1.8869
  154SAPE   C3417169   2.660   2.217   9.787  0.1757  0.0882 -0.0739
  154SAPE   H4X17170   2.715   2.308   9.817  0.6054 -0.4370  0.7867
  154SAPE   H4Y17171   2.552   2.242   9.798  0.2964 -0.2550  2.5529
  154SAPE   C3517172   2.689   2.186   9.639  0.1821 -0.1398 -0.1176
  154SAPE   H5X17173   2.785   2.131   9.628 -0.5836 -1.0712 -2.8878
  154SAPE   H5Y17174   2.710   2.284   9.591  2.5941 -1.6616 -2.4103
  154SAPE   C3617175   2.588   2.116   9.551  0.6381 -0.3054 -0.0217
  154SAPE   H6X17176   2.489   2.166   9.564 -0.5971 -2.7697  0.7527
  154SAPE   H6Y17177   2.581   2.012   9.591 -0.7569  0.1111  0.9254
  154SAPE   C3717178   2.621   2.123   9.404  0.0794  0.6676  0.2001
  154SAPE   H7X17179   2.719   2.080   9.377 -0.6418 -2.1503  1.6417
  154SAPE   H7Y17180   2.618   2.231   9.376 -3.5517  1.0011  1.3182
  154SAPE   C3817181   2.510   2.047   9.324 -0.4566 -0.0652 -0.3148
  154SAPE   H8X17182   2.407   2.072   9.356 -0.0419 -0.5783  1.5317
  154SAPE   H8Y17183   2.544   1.947   9.356  4.5052  1.5479  0.2900
  154SAPE   C3917184   2.524   2.068   9.168  0.1950 -0.0006 -0.2204
  154SAPE   H9X17185   2.625   2.036   9.134  0.8195  0.3792  1.2148
  154SAPE   H9Y17186   2.526   2.175   9.138  0.2733 -0.0407 -0.3581
  154SAPE  C31017187   2.418   2.002   9.078  0.2455  0.3729  0.0948
  154SAPE  H10X17188   2.320   2.023   9.124 -0.2322 -1.1402 -0.1748
  154SAPE  H10Y17189   2.434   1.892   9.087 -0.7706  0.2375  0.3962
  154SAPE  C31117190   2.437   2.033   8.932  0.1498 -0.0200 -0.0241
  154SAPE  H11X17191   2.544   2.015   8.911  0.2849  0.5885  0.1149
  154SAPE  H11Y17192   2.416   2.137   8.899  4.1286  0.9416  0.0726
  154SAPE  C31217193   2.355   1.941   8.834 -0.0300  0.2696 -0.4120
  154SAPE  H12X17194   2.253   1.928   8.875 -1.1238  1.4628 -2.6184
  154SAPE  H12Y17195   2.406   1.842   8.839  2.3035  1.4052 -0.3541
  154SAPE  C31317196   2.356   1.976   8.688 -0.3887  0.2064  0.3196
  154SAPE  H13X17197   2.459   1.965   8.649 -0.1866  2.6765 -0.0225
  154SAPE  H13Y17198   2.315   2.079   8.675 -0.1389  0.5478  2.0305
  154SAPE  C31417199   2.267   1.879   8.602 -0.2228 -0.2178  0.0384
  154SAPE  H14X17200   2.161   1.887   8.633 -0.5318 -1.4154 -0.6753
  154SAPE  H14Y17201   2.295   1.772   8.607  0.5903  0.0318  1.6258
  154SAPE  C31517202   2.265   1.918   8.452 -0.7637 -0.2710  0.7318
  154SAPE  H15X17203   2.271   2.029   8.454 -0.9348 -0.2111 -0.6686
  154SAPE  H15Y17204   2.172   1.883   8.403  1.4962 -1.2838 -3.4025
  154SAPE  C31617205   2.395   1.883   8.371 -0.1477 -0.1084  0.0044
  154SAPE  H16X17206   2.471   1.941   8.428 -0.0783 -1.3020  1.2028
  154SAPE  H16Y17207   2.400   1.928   8.270  1.5062 -1.5769 -0.6230
  154SAPE  C31717208   2.417   1.727   8.371 -0.7923 -0.0848 -0.4198
  154SAPE  H17X17209   2.323   1.676   8.339 -1.0785 -1.7100  2.6288
  154SAPE  H17Y17210   2.449   1.698   8.473  2.9894 -0.9616 -1.7036
  154SAPE  C31817211   2.531   1.677   8.282  0.8990  0.1206  0.0707
  154SAPE  H18X17212   2.559   1.570   8.299  1.3972  0.4741  1.6997
  154SAPE  H18Y17213   2.621   1.741   8.296  0.4416  0.7492  0.1476
  154SAPE  H18Z17214   2.504   1.704   8.178  0.8248  2.0602  0.5690
  155SAPE     N17215   2.493   2.977   9.953  0.1370  0.0955  0.4670
  155SAPE   HN117216   2.564   2.923  10.007 -0.1113  0.3143  1.0122
  155SAPE   HN217217   2.422   3.010  10.021  1.6148 -0.2702  2.2797
  155SAPE   HN317218   2.440   2.913   9.891 -1.4032 -2.7254  4.2753
  155SAPE   C1217219   2.555   3.087   9.881  0.1013  0.0179  0.4624
  155SAPE  H12A17220   2.475   3.156   9.848 -0.2998 -0.9218 -0.6235
  155SAPE  H12B17221   2.596   3.036   9.791  0.6935 -1.8936  1.7508
  155SAPE   C1117222   2.655   3.175   9.960  0.0750  0.2975  0.0961
  155SAPE  H11A17223   2.601   3.244  10.027 -2.2201 -0.1104 -1.2485
  155SAPE  H11B17224   2.706   3.240   9.885 -0.0283  0.0348 -0.2062
  155SAPE     P17225   2.805   3.129  10.172  0.2628 -0.2838 -0.3840
  155SAPE   O1317226   2.733   3.248  10.221 -0.5180  0.2347  0.1788
  155SAPE   O1417227   2.800   3.005  10.249 -0.0976  0.3727  0.0529
  155SAPE   O1217228   2.744   3.091  10.033 -0.0855 -0.0230 -0.0280
  155SAPE   O1117229   2.954   3.167  10.145 -0.4452  0.2057 -0.2190
  155SAPE    C117230   2.997   3.220  10.011  0.6198 -0.2083 -0.0730
  155SAPE    HA17231   2.919   3.261   9.944  0.9849  1.7966  0.6752
  155SAPE    HB17232   3.056   3.312  10.032  1.5639 -0.9299  0.5269
  155SAPE    C217233   3.097   3.127   9.934 -0.2407 -0.5029  0.4045
  155SAPE    HS17234   3.189   3.124   9.997 -0.8196  3.0098  1.6421
  155SAPE   O2117235   3.113   3.203   9.809 -0.1792 -0.1212  0.3555
  155SAPE   C2117236   3.239   3.227   9.770  0.0654 -0.0399  0.5596
  155SAPE   O2217237   3.335   3.165   9.815 -0.0778 -0.1468  0.0324
  155SAPE   C2217238   3.248   3.327   9.658  0.1938  0.5212 -0.6583
  155SAPE   H2R17239   3.172   3.288   9.587 -1.0564 -0.2436  1.0417
  155SAPE   H2S17240   3.210   3.427   9.688 -0.2929  0.3872 -0.8148
  155SAPE    C317241   3.038   2.987   9.920 -0.4648 -0.6916  0.3356
  155SAPE    HX17242   2.933   3.007   9.890  0.2760  0.0496 -1.9988
  155SAPE    HY17243   3.046   2.948  10.024  3.4240  0.8278  0.7796
  155SAPE   O3117244   3.106   2.912   9.812  0.7147 -0.3991 -0.1099
  155SAPE   C3117245   3.226   2.864   9.851  0.4924  0.6241  0.2260
  155SAPE   O3217246   3.286   2.873   9.956  0.0739  0.0992  0.1915
  155SAPE   C3217247   3.278   2.777   9.737  0.1744 -0.0390  0.0100
  155SAPE   H2X17248   3.222   2.682   9.728 -0.0207  0.1366 -0.6707
  155SAPE   H2Y17249   3.374   2.734   9.773  0.5693 -0.0794 -1.0300
  155SAPE   C2317250   3.389   3.327   9.581  0.0253  0.0202  0.0806
  155SAPE   H3R17251   3.421   3.226   9.548  0.1364  0.3715 -0.9446
  155SAPE   H3S17252   3.459   3.373   9.654 -1.3384  2.7615 -0.2269
  155SAPE   C2417253   3.379   3.428   9.463  0.3317 -0.3955 -0.2387
  155SAPE   H4R17254   3.345   3.521   9.515  0.2094 -1.0573  0.9064
  155SAPE   H4S17255   3.309   3.389   9.387 -1.5668  2.6064 -0.2034
  155SAPE   C2517256   3.516   3.447   9.407 -0.7197 -0.5273  0.8117
  155SAPE   H5R17257   3.599   3.433   9.477  2.6685 -0.5169 -2.8669
  155SAPE   C2617258   3.541   3.450   9.273 -0.9084 -0.1177 -0.2077
  155SAPE   H6R17259   3.645   3.445   9.240 -0.1789  1.9647  1.5602
  155SAPE   C2717260   3.441   3.450   9.157  0.0185  0.1721 -0.2141
  155SAPE   H7R17261   3.360   3.378   9.186  0.5393 -0.8099 -1.1232
  155SAPE   H7S17262   3.474   3.394   9.067 -0.9821 -0.4221 -0.2372
  155SAPE   C2817263   3.378   3.585   9.129 -0.4306  0.2340  0.2048
  155SAPE   H8R17264   3.350   3.651   9.212  1.9740 -1.5377  2.6252
  155SAPE   C2917265   3.354   3.620   9.003  0.1555 -0.6173 -0.0323
  155SAPE   H9R17266   3.307   3.719   8.992  2.9968  0.7094 -1.1663
  155SAPE  C21017267   3.371   3.544   8.872 -0.1723 -0.4027 -0.2114
  155SAPE  H10R17268   3.423   3.446   8.870 -1.8322 -1.2970 -1.5648
  155SAPE  H10S17269   3.432   3.613   8.810 -2.3712  0.0416 -2.0138
  155SAPE  C21117270   3.242   3.508   8.803 -1.0015  0.5072 -0.1597
  155SAPE  H11R17271   3.176   3.433   8.847  0.3842 -0.1755  0.8561
  155SAPE  C21217272   3.194   3.557   8.692 -0.4399  0.6566  0.3500
  155SAPE  H12R17273   3.102   3.510   8.653  0.6170 -0.9930 -0.2690
  155SAPE  C21317274   3.254   3.678   8.617  0.1872  0.7616 -0.3215
  155SAPE  H13R17275   3.346   3.646   8.563  0.7326  0.9754  0.4637
  155SAPE  H13S17276   3.304   3.745   8.690 -2.0903 -0.3410  2.4043
  155SAPE  C21417277   3.168   3.765   8.525  0.2479 -0.2669 -0.4839
  155SAPE  H14R17278   3.185   3.757   8.417  1.8028  0.4765 -0.3349
  155SAPE  C21517279   3.083   3.859   8.574 -0.6605 -0.2733 -0.6694
  155SAPE  H15R17280   3.015   3.911   8.505  1.6758  1.2648 -1.9324
  155SAPE  C21617281   3.064   3.893   8.723 -0.2653  0.5097 -0.0363
  155SAPE  H16R17282   3.111   3.819   8.791  1.0663  2.4249  1.2242
  155SAPE  H16S17283   2.958   3.868   8.746  0.5954 -4.7952 -0.5391
  155SAPE  C21717284   3.112   4.038   8.747  0.1338 -0.0793 -0.4790
  155SAPE  H17R17285   3.050   4.105   8.684 -0.5885 -1.1413 -0.9303
  155SAPE  H17S17286   3.221   4.053   8.736  0.2578  0.1279  0.8219
  155SAPE  C21817287   3.079   4.068   8.895 -0.3430 -0.1791 -0.0571
  155SAPE  H18R17288   3.137   3.996   8.958 -1.8743  0.5611  2.3064
  155SAPE  H18S17289   2.971   4.048   8.909 -0.1455  0.3881  3.0493
  155SAPE  C21917290   3.116   4.211   8.932 -0.1099 -0.4355 -0.2575
  155SAPE  H19R17291   3.085   4.283   8.854  0.3113 -0.8912 -0.8480
  155SAPE  H19S17292   3.227   4.208   8.937 -0.0830  0.8726  0.3981
  155SAPE  C22017293   3.042   4.259   9.059 -0.2899  0.5979  1.1110
  155SAPE  H20R17294   3.075   4.198   9.146 -0.7955 -2.5732 -0.7818
  155SAPE  H20S17295   2.935   4.237   9.038  0.3229 -1.3988 -0.2566
  155SAPE  H20T17296   3.057   4.368   9.078  1.2430  0.5424  0.4020
  155SAPE   C3317297   3.291   2.855   9.607 -0.0048 -0.7282  0.1539
  155SAPE   H3X17298   3.394   2.897   9.613 -0.1942  0.2968 -2.3610
  155SAPE   H3Y17299   3.212   2.934   9.599  0.7129  0.2766  2.2628
  155SAPE   C3417300   3.293   2.768   9.481  0.0076 -0.3041 -0.3465
  155SAPE   H4X17301   3.203   2.704   9.474 -0.2015 -0.4269  2.2850
  155SAPE   H4Y17302   3.381   2.700   9.487 -0.5885 -1.1727 -1.2019
  155SAPE   C3517303   3.301   2.839   9.350  0.1832 -0.5020 -0.2584
  155SAPE   H5X17304   3.386   2.910   9.364 -0.2893  0.0554 -0.1654
  155SAPE   H5Y17305   3.210   2.901   9.335 -0.0707 -0.3874  1.4908
  155SAPE   C3617306   3.324   2.745   9.233  0.3175  0.5447 -0.3910
  155SAPE   H6X17307   3.232   2.685   9.215  0.2521  0.7897 -0.8977
  155SAPE   H6Y17308   3.403   2.672   9.261 -0.3084  1.2246  3.9208
  155SAPE   C3717309   3.363   2.803   9.095  0.0593  0.4448 -0.6685
  155SAPE   H7X17310   3.407   2.725   9.029  0.8032 -0.3203  0.6654
  155SAPE   H7Y17311   3.440   2.877   9.125  0.0776  0.5321 -0.9347
  155SAPE   C3817312   3.258   2.873   9.013 -0.0154 -0.3680  0.4540
  155SAPE   H8X17313   3.191   2.949   9.057 -2.2883 -1.3762 -1.0670
  155SAPE   H8Y17314   3.193   2.791   8.975  0.4974 -1.3953  1.6958
  155SAPE   C3917315   3.336   2.942   8.894  0.4125  0.1070 -0.1263
  155SAPE   H9X17316   3.381   2.863   8.829 -1.3387 -1.7465  0.7981
  155SAPE   H9Y17317   3.420   2.998   8.941  0.6237 -1.0547  0.9508
  155SAPE  C31017318   3.266   3.045   8.802 -0.2708  0.1128 -0.2937
  155SAPE  H10X17319   3.238   3.139   8.855 -0.3020  1.2688 -2.2924
  155SAPE  H10Y17320   3.173   2.992   8.771 -0.9257 -0.1611  1.9000
  155SAPE  C31117321   3.354   3.076   8.680 -0.7581 -0.4332 -0.2211
  155SAPE  H11X17322   3.393   2.980   8.640 -1.0818 -1.0272  0.8372
  155SAPE  H11Y17323   3.448   3.130   8.704  0.1084 -1.1545 -1.8402
  155SAPE  C31217324   3.286   3.165   8.575  0.0286  0.3558 -0.1873
  155SAPE  H12X17325   3.235   3.246   8.631 -0.0451  1.3908 -1.7118
  155SAPE  H12Y17326   3.202   3.105   8.533  1.1427  0.3031 -2.4535
  155SAPE  C31317327   3.383   3.201   8.466 -0.2725  1.0647  0.9525
  155SAPE  H13X17328   3.419   3.112   8.412 -0.0037  1.0570  1.1452
  155SAPE  H13Y17329   3.472   3.252   8.507  1.2223 -0.0842 -0.7519
  155SAPE  C31417330   3.320   3.300   8.364 -0.4116 -0.0964  0.4706
  155SAPE  H14X17331   3.383   3.316   8.274 -1.9970 -0.2203 -0.7111
  155SAPE  H14Y17332   3.311   3.401   8.411  1.7966  2.0554 -3.1973
  155SAPE  C31517333   3.191   3.246   8.304  0.6284  0.0170 -0.4212
  155SAPE  H15X17334   3.117   3.233   8.386 -0.3600 -4.1597 -1.7345
  155SAPE  H15Y17335   3.213   3.143   8.268 -0.6398 -0.4917  0.2141
  155SAPE  C31617336   3.124   3.330   8.184  0.8951 -0.2150 -0.2615
  155SAPE  H16X17337   3.197   3.336   8.100  0.5057  1.9952 -0.4974
  155SAPE  H16Y17338   3.100   3.433   8.218  2.4686 -0.5415  2.0667
  155SAPE  C31717339   2.995   3.255   8.134 -0.1569  0.1960 -0.6938
  155SAPE  H17X17340   2.936   3.221   8.222  2.6733 -0.7886  0.9305
  155SAPE  H17Y17341   3.031   3.160   8.088 -0.0761 -0.7493  1.2195
  155SAPE  C31817342   2.913   3.323   8.026  0.2186  0.2605 -0.1578
  155SAPE  H18X17343   2.849   3.403   8.068 -3.5733 -1.0836 -2.8253
  155SAPE  H18Y17344   2.845   3.246   7.984 -1.0408  2.0988 -1.6415
  155SAPE  H18Z17345   2.985   3.360   7.951  1.1527  0.9769  1.0530
  156SAPE     N17346   1.589   2.060  10.870  0.3296 -0.2098 -0.3076
  156SAPE   HN117347   1.536   2.040  10.958 -0.9755  3.0835 -0.1934
  156SAPE   HN217348   1.688   2.028  10.876  0.0442 -0.9020  1.3527
  156SAPE   HN317349   1.589   2.164  10.859  0.7920  0.1163  2.1625
  156SAPE   C1217350   1.526   2.000  10.745  0.0274  0.2197 -0.2329
  156SAPE  H12A17351   1.432   2.054  10.722  1.2832  1.8626 -1.7582
  156SAPE  H12B17352   1.512   1.894  10.777  0.7415  0.2989  0.3639
  156SAPE   C1117353   1.606   2.016  10.612  0.0461  0.3803 -0.4487
  156SAPE  H11A17354   1.591   2.119  10.573  2.6421  1.3167  0.7949
  156SAPE  H11B17355   1.552   1.947  10.543  1.1226 -0.5027 -0.4557
  156SAPE     P17356   1.855   2.057  10.545  0.3044 -0.1694 -0.5352
  156SAPE   O1317357   1.839   2.198  10.575 -0.3348 -0.5580  0.1722
  156SAPE   O1417358   1.986   1.999  10.571 -0.2415 -0.1797  0.1215
  156SAPE   O1217359   1.744   1.972  10.626  0.3334 -0.8387  0.7058
  156SAPE   O1117360   1.830   2.034  10.390 -0.5760  0.7356  0.5116
  156SAPE    C117361   1.851   1.905  10.329  0.0748 -0.3712 -0.1475
  156SAPE    HA17362   1.938   1.854  10.376 -0.1984 -0.0947  0.6910
  156SAPE    HB17363   1.767   1.834  10.349  0.5925 -1.5428 -1.9426
  156SAPE    C217364   1.885   1.894  10.184  0.5524  0.3611  0.3361
  156SAPE    HS17365   1.995   1.909  10.180  0.6644 -0.1892  1.1949
  156SAPE   O2117366   1.807   1.978  10.100  0.1095 -0.7943  0.1043
  156SAPE   C2117367   1.859   2.100  10.081  0.7018  0.0487 -0.5748
  156SAPE   O2217368   1.966   2.134  10.126 -0.0244 -0.0896  0.0752
  156SAPE   C2217369   1.775   2.189   9.986  0.3751  0.1316  0.5906
  156SAPE   H2R17370   1.736   2.129   9.901 -1.1639  0.0513  1.3233
  156SAPE   H2S17371   1.681   2.210  10.041 -0.1467  0.8144 -0.5156
  156SAPE    C317372   1.884   1.750  10.139 -0.5693  0.3897  0.1478
  156SAPE    HX17373   1.788   1.699  10.159 -1.1756  1.7369  0.8301
  156SAPE    HY17374   1.957   1.697  10.203 -0.6175 -0.3538 -0.4080
  156SAPE   O3117375   1.917   1.744  10.000 -0.1505 -0.5677 -0.1987
  156SAPE   C3117376   1.930   1.618   9.965  0.0975  0.1087  0.5369
  156SAPE   O3217377   1.927   1.526  10.042 -0.1067  0.5454 -0.3313
  156SAPE   C3217378   1.963   1.606   9.813  0.1313  0.2215 -0.2204
  156SAPE   H2X17379   2.053   1.668   9.794  0.1919  0.0781 -0.4091
  156SAPE   H2Y17380   1.874   1.632   9.751 -0.4255 -1.3942 -0.1536
  156SAPE   C2317381   1.845   2.327   9.942  0.0126 -0.2176 -0.4809
  156SAPE   H3R17382   1.893   2.377  10.028 -0.5463  0.7592 -0.7137
  156SAPE   H3S17383   1.768   2.400   9.910  0.7457  0.5340 -0.5541
  156SAPE   C2417384   1.960   2.328   9.831 -0.2599  0.1203  0.2381
  156SAPE   H4R17385   2.049   2.288   9.884  1.5081  4.4851  1.0193
  156SAPE   H4S17386   1.989   2.432   9.803  1.5805  0.1515  2.0601
  156SAPE   C2517387   1.918   2.251   9.709 -0.3746  0.1635  0.3486
  156SAPE   H5R17388   1.923   2.141   9.708 -1.9366  0.0089 -2.4223
  156SAPE   C2617389   1.859   2.296   9.596 -0.3671 -0.8489 -0.0576
  156SAPE   H6R17390   1.850   2.230   9.508 -0.4010 -1.3233  0.2953
  156SAPE   C2717391   1.833   2.446   9.566 -0.2074 -0.5912 -0.3110
  156SAPE   H7R17392   1.928   2.505   9.570  0.0508 -1.0381  1.8710
  156SAPE   H7S17393   1.766   2.486   9.645  0.1715 -0.2757 -0.1443
  156SAPE   C2817394   1.757   2.475   9.440  0.2779  0.1979  0.1862
  156SAPE   H8R17395   1.660   2.424   9.425  1.4029 -3.1407  2.9852
  156SAPE   C2917396   1.784   2.558   9.337  0.4429 -0.0463  0.0992
  156SAPE   H9R17397   1.717   2.553   9.250  2.2603 -1.1286 -1.3150
  156SAPE  C21017398   1.907   2.637   9.303  0.0972  0.6345  0.5056
  156SAPE  H10R17399   1.922   2.620   9.194 -1.7152 -2.2870  0.5888
  156SAPE  H10S17400   1.997   2.589   9.347  1.6786 -0.0679 -3.1362
  156SAPE  C21117401   1.900   2.775   9.356  0.5731  0.3800 -0.1655
  156SAPE  H11R17402   1.902   2.777   9.466  2.4886 -0.2720 -0.1517
  156SAPE  C21217403   1.908   2.889   9.288 -0.0532 -0.2444 -0.0804
  156SAPE  H12R17404   1.876   2.978   9.343  0.0711 -0.9485  1.1545
  156SAPE  C21317405   1.929   2.914   9.140 -0.5791  0.5561  0.0124
  156SAPE  H13R17406   1.932   3.024   9.122 -1.7229  0.3312 -1.7325
  156SAPE  H13S17407   1.837   2.874   9.094 -0.2487 -0.5621  0.3005
  156SAPE  C21417408   2.053   2.863   9.073 -0.2488 -0.6425  0.0020
  156SAPE  H14R17409   2.148   2.873   9.128  0.7359  0.0277 -1.7236
  156SAPE  C21517410   2.070   2.785   8.960 -0.5524 -0.2515 -0.0314
  156SAPE  H15R17411   2.173   2.761   8.929  0.2102  2.2629  0.2903
  156SAPE  C21617412   1.962   2.728   8.873  0.1305  0.1679 -0.3637
  156SAPE  H16R17413   1.972   2.760   8.767 -1.0292  0.3834 -0.4257
  156SAPE  H16S17414   1.862   2.765   8.903  0.7966  0.7774  1.1964
  156SAPE  C21717415   1.960   2.577   8.861  0.2213 -0.0619  0.5057
  156SAPE  H17R17416   1.958   2.532   8.963 -1.5563  0.2171  0.6282
  156SAPE  H17S17417   2.048   2.537   8.807 -1.0647 -0.5129 -1.3303
  156SAPE  C21817418   1.837   2.531   8.786  0.1779  0.2581  0.0962
  156SAPE  H18R17419   1.744   2.553   8.842 -0.1728 -2.1319  0.5723
  156SAPE  H18S17420   1.854   2.421   8.788 -1.0724  0.0034 -1.2465
  156SAPE  C21917421   1.824   2.561   8.627 -0.1649 -0.8248 -0.1467
  156SAPE  H19R17422   1.923   2.566   8.575 -0.8465  0.3779 -1.4089
  156SAPE  H19S17423   1.777   2.661   8.614  0.1728 -0.6766 -0.2479
  156SAPE  C22017424   1.735   2.468   8.549 -0.3545  0.7605 -0.3820
  156SAPE  H20R17425   1.700   2.505   8.450 -2.4745 -3.9595 -1.6706
  156SAPE  H20S17426   1.653   2.431   8.614  0.0153  0.6636  0.0338
  156SAPE  H20T17427   1.794   2.375   8.538 -3.2472 -1.6964  2.9802
  156SAPE   C3317428   2.005   1.458   9.787  0.8854  0.2705 -0.4898
  156SAPE   H3X17429   1.919   1.389   9.801  2.4133 -1.4101  1.0408
  156SAPE   H3Y17430   2.067   1.412   9.866  0.4658 -0.1604 -0.4045
  156SAPE   C3417431   2.072   1.430   9.659 -0.2257  0.3623  0.7134
  156SAPE   H4X17432   2.178   1.462   9.653 -0.2079  0.3359  0.8809
  156SAPE   H4Y17433   2.014   1.484   9.581  0.6069  1.7556  1.0190
  156SAPE   C3517434   2.068   1.282   9.623 -0.2921 -0.2232 -0.2145
  156SAPE   H5X17435   1.975   1.236   9.664  0.0771 -0.4405  0.3842
  156SAPE   H5Y17436   2.146   1.226   9.679 -1.6721 -3.1237 -0.9607
  156SAPE   C3617437   2.092   1.252   9.475  0.7664 -0.7641 -0.2165
  156SAPE   H6X17438   2.115   1.145   9.458 -0.8602 -1.0380 -0.8772
  156SAPE   H6Y17439   2.179   1.315   9.446 -0.6146  1.6419  0.5740
  156SAPE   C3717440   1.978   1.287   9.381 -0.3508 -0.2427  0.3828
  156SAPE   H7X17441   1.934   1.389   9.388 -1.5433 -0.5108 -2.0794
  156SAPE   H7Y17442   1.895   1.214   9.394 -1.7168  1.1229 -0.3172
  156SAPE   C3817443   2.028   1.290   9.228 -0.4697  0.2095 -0.2318
  156SAPE   H8X17444   2.120   1.351   9.229 -0.9471  0.9475 -0.2490
  156SAPE   H8Y17445   1.942   1.328   9.169  0.0070  1.3395 -0.2103
  156SAPE   C3917446   2.058   1.149   9.168  0.0443  0.5066 -0.1968
  156SAPE   H9X17447   1.967   1.086   9.176  0.1786  0.4015  0.6855
  156SAPE   H9Y17448   2.131   1.095   9.232 -1.9147 -3.8544 -1.2756
  156SAPE  C31017449   2.121   1.159   9.030  0.5769 -0.2481  0.0501
  156SAPE  H10X17450   2.202   1.235   9.031  1.2243 -0.9216 -0.2252
  156SAPE  H10Y17451   2.043   1.194   8.959  0.9217 -0.7436 -0.5756
  156SAPE  C31117452   2.180   1.026   8.981 -0.0785  0.1184 -0.7833
  156SAPE  H11X17453   2.113   0.944   9.013  0.9962 -0.1019  1.0148
  156SAPE  H11Y17454   2.274   1.015   9.039 -0.4346 -2.3672 -0.5784
  156SAPE  C31217455   2.215   1.030   8.836  0.7148  0.1120  0.8679
  156SAPE  H12X17456   2.283   1.117   8.821  0.5870  0.0365 -0.2427
  156SAPE  H12Y17457   2.127   1.050   8.772  2.5047  1.7123 -1.2403
  156SAPE  C31317458   2.285   0.898   8.793 -0.4696  0.6420 -0.2492
  156SAPE  H13X17459   2.215   0.815   8.818  1.5520 -0.6396  1.5446
  156SAPE  H13Y17460   2.379   0.870   8.844  1.2466 -0.9717 -3.9450
  156SAPE  C31417461   2.330   0.894   8.652 -0.6432 -0.4045 -0.0696
  156SAPE  H14X17462   2.374   0.794   8.632 -0.1432 -0.1799 -0.1107
  156SAPE  H14Y17463   2.402   0.973   8.624  0.9323 -1.3964  1.0022
  156SAPE  C31517464   2.210   0.885   8.557 -0.1138 -0.2296  0.2595
  156SAPE  H15X17465   2.170   0.987   8.570 -0.8532 -0.5535  0.5875
  156SAPE  H15Y17466   2.144   0.809   8.605  1.7477 -4.1429 -2.8210
  156SAPE  C31617467   2.241   0.855   8.406  0.1743 -0.2207 -0.0178
  156SAPE  H16X17468   2.275   0.752   8.382 -1.1596 -0.2411 -2.1019
  156SAPE  H16Y17469   2.316   0.928   8.368  2.1492 -2.3712 -0.5088
  156SAPE  C31717470   2.113   0.880   8.330 -0.3354 -0.2280 -0.3602
  156SAPE  H17X17471   2.058   0.966   8.373  2.4177  0.0722  2.9962
  156SAPE  H17Y17472   2.039   0.798   8.338  0.1231 -0.7259 -1.0628
  156SAPE  C31817473   2.137   0.932   8.188 -0.0755 -0.0622  0.2188
  156SAPE  H18X17474   2.062   0.996   8.135 -0.0617  0.0826  0.3731
  156SAPE  H18Y17475   2.185   0.853   8.127  0.5288 -1.3481  2.2582
  156SAPE  H18Z17476   2.218   1.006   8.204 -0.3872  0.5878 -1.0590
  157SAPE     N17477   1.932   2.436  10.526  0.6110  0.4218  0.4744
  157SAPE   HN117478   2.035   2.442  10.542  0.9989 -1.5989 -0.7677
  157SAPE   HN217479   1.906   2.336  10.541  1.9886 -0.0219  0.1147
  157SAPE   HN317480   1.927   2.448  10.423 -0.8480 -2.3432  0.1333
  157SAPE   C1217481   1.846   2.534  10.598  0.1218 -0.1888 -0.0238
  157SAPE  H12A17482   1.866   2.520  10.706 -0.9096  1.3568  0.4055
  157SAPE  H12B17483   1.737   2.523  10.578 -0.5076  3.9917  0.0935
  157SAPE   C1117484   1.886   2.669  10.554  0.0602  0.6243 -0.2266
  157SAPE  H11A17485   1.895   2.678  10.444 -1.5951 -2.2218 -0.6899
  157SAPE  H11B17486   1.993   2.696  10.566  0.0657  0.2670  0.6109
  157SAPE     P17487   1.675   2.821  10.553  0.3541  0.0813 -0.1448
  157SAPE   O1317488   1.587   2.707  10.540 -0.6211 -0.2369 -0.4412
  157SAPE   O1417489   1.635   2.938  10.638 -0.4224 -0.1952  0.1121
  157SAPE   O1217490   1.813   2.770  10.610 -0.2892  0.0160 -0.1748
  157SAPE   O1117491   1.728   2.862  10.415  0.2206 -0.0049  0.5684
  157SAPE    C117492   1.670   2.965  10.335 -0.5593 -1.1828  0.1991
  157SAPE    HA17493   1.623   3.046  10.395  2.2143  0.5148  0.2748
  157SAPE    HB17494   1.748   3.015  10.273  0.7584 -1.8239  1.2972
  157SAPE    C217495   1.559   2.919  10.243 -0.0024  0.1405 -0.2310
  157SAPE    HS17496   1.514   2.831  10.293  0.2841  0.8152  1.2839
  157SAPE   O2117497   1.621   2.878  10.121 -0.1799  0.2915  0.1042
  157SAPE   C2117498   1.559   2.792  10.045 -0.2444 -0.3961  0.1769
  157SAPE   O2217499   1.472   2.716  10.076 -0.1245  0.5421 -0.7092
  157SAPE   C2217500   1.611   2.800   9.901 -0.1146 -0.1037  0.0241
  157SAPE   H2R17501   1.622   2.905   9.868  1.8307 -0.7264 -1.4748
  157SAPE   H2S17502   1.716   2.765   9.896 -0.5138 -1.2347 -0.9212
  157SAPE    C317503   1.453   3.028  10.216 -0.4062  0.3047 -0.1084
  157SAPE    HX17504   1.403   3.052  10.312 -1.5892 -1.4716 -0.2219
  157SAPE    HY17505   1.380   2.979  10.148  0.0123  0.8155 -0.9378
  157SAPE   O3117506   1.515   3.154  10.161  0.6091  0.4399 -0.2992
  157SAPE   C3117507   1.518   3.163  10.029 -0.1016 -0.7295 -0.4339
  157SAPE   O3217508   1.472   3.083   9.952 -0.5886  0.9101  0.2639
  157SAPE   C3217509   1.554   3.307   9.996  0.5761  0.6496  0.0575
  157SAPE   H2X17510   1.664   3.321   9.995  0.5955  0.7342 -2.3892
  157SAPE   H2Y17511   1.511   3.382  10.065  0.4823 -1.1401  2.0644
  157SAPE   C2317512   1.540   2.714   9.797 -0.6856 -0.0132  0.4397
  157SAPE   H3R17513   1.531   2.607   9.822 -1.2818  0.0371  0.4625
  157SAPE   H3S17514   1.602   2.725   9.705  0.5328 -2.6527  0.8644
  157SAPE   C2417515   1.407   2.781   9.762 -0.1540  0.3376 -0.1470
  157SAPE   H4R17516   1.350   2.780   9.857 -0.5016  2.0921 -0.2904
  157SAPE   H4S17517   1.344   2.707   9.708 -0.3485  1.9003 -2.2012
  157SAPE   C2517518   1.409   2.911   9.693  0.6718 -0.5073  0.1699
  157SAPE   H5R17519   1.428   2.999   9.756 -1.0477 -0.1796  0.2804
  157SAPE   C2617520   1.381   2.921   9.562  0.4654 -0.0093 -0.2907
  157SAPE   H6R17521   1.381   3.024   9.524 -0.7641 -0.4495 -1.5685
  157SAPE   C2717522   1.330   2.817   9.465 -0.6702  0.4652  0.3670
  157SAPE   H7R17523   1.235   2.850   9.419 -2.0136 -2.3286  0.9560
  157SAPE   H7S17524   1.291   2.724   9.511 -0.9250 -0.3737 -1.4699
  157SAPE   C2817525   1.440   2.783   9.365 -0.0950  0.5247  0.0014
  157SAPE   H8R17526   1.539   2.760   9.406 -0.2459 -2.1728 -0.9520
  157SAPE   C2917527   1.411   2.753   9.232 -0.1953  0.7495 -0.4270
  157SAPE   H9R17528   1.502   2.737   9.171 -0.2705 -0.8836 -0.1558
  157SAPE  C21017529   1.282   2.768   9.161 -0.8698  0.1149  0.4925
  157SAPE  H10R17530   1.200   2.743   9.233  0.1690 -0.9642  1.3398
  157SAPE  H10S17531   1.294   2.693   9.081 -0.7339 -0.0732  0.6896
  157SAPE  C21117532   1.263   2.906   9.103 -0.4713 -0.4961 -0.2032
  157SAPE  H11R17533   1.239   2.983   9.178  1.1788 -0.7404  0.6084
  157SAPE  C21217534   1.267   2.932   8.965 -0.3799  0.1958  0.0724
  157SAPE  H12R17535   1.237   3.033   8.935  1.6877  0.3244 -1.8751
  157SAPE  C21317536   1.284   2.844   8.847 -0.0693  0.0934 -0.1521
  157SAPE  H13R17537   1.276   2.904   8.754  1.4889  1.4012  0.5037
  157SAPE  H13S17538   1.206   2.765   8.841  0.1107 -0.0294 -0.9423
  157SAPE  C21417539   1.411   2.754   8.828 -0.3518  0.2484  0.5389
  157SAPE  H14R17540   1.494   2.788   8.891  0.4918  0.9555 -0.9154
  157SAPE  C21517541   1.421   2.648   8.751 -0.5147  0.2285  0.0437
  157SAPE  H15R17542   1.521   2.602   8.746  0.6240  2.1385  2.7069
  157SAPE  C21617543   1.317   2.590   8.659  0.2424 -0.3399  0.2243
  157SAPE  H16R17544   1.235   2.663   8.637  1.0643  0.7207  0.5757
  157SAPE  H16S17545   1.284   2.489   8.691  0.2487 -0.7711 -1.0757
  157SAPE  C21717546   1.385   2.576   8.522  0.2105  0.9833 -0.7269
  157SAPE  H17R17547   1.483   2.524   8.532 -0.1992  0.5141  1.3405
  157SAPE  H17S17548   1.412   2.674   8.477 -0.2577  2.3676  1.8474
  157SAPE  C21817549   1.299   2.501   8.425  0.3296  0.0613  0.1052
  157SAPE  H18R17550   1.192   2.534   8.425  0.5422  0.7840 -0.4407
  157SAPE  H18S17551   1.293   2.402   8.474  0.5050 -0.3804 -0.7548
  157SAPE  C21917552   1.344   2.492   8.276  0.0394 -0.9707 -0.8921
  157SAPE  H19R17553   1.426   2.418   8.262  3.4250  1.9531  1.4899
  157SAPE  H19S17554   1.382   2.592   8.246  1.8991 -1.1639  0.6083
  157SAPE  C22017555   1.229   2.441   8.185 -0.2487  0.4552  0.3386
  157SAPE  H20R17556   1.195   2.342   8.222 -1.2838  1.0354  0.9761
  157SAPE  H20S17557   1.251   2.444   8.076 -0.9083 -0.2854  0.1725
  157SAPE  H20T17558   1.140   2.507   8.188  0.6812  1.7377  0.2746
  157SAPE   C3317559   1.505   3.333   9.849  0.0835 -0.1253 -0.5062
  157SAPE   H3X17560   1.528   3.249   9.780 -0.4876  1.3962 -2.6365
  157SAPE   H3Y17561   1.572   3.415   9.816 -0.0327  0.8491  1.5098
  157SAPE   C3417562   1.358   3.376   9.844  0.2564 -0.2580  0.4055
  157SAPE   H4X17563   1.338   3.467   9.905 -0.3953 -0.0572 -0.0988
  157SAPE   H4Y17564   1.282   3.302   9.876 -2.0884  1.2197 -1.4115
  157SAPE   C3517565   1.317   3.419   9.700 -0.2436 -0.8569  0.7229
  157SAPE   H5X17566   1.411   3.439   9.645 -0.7370 -0.8496 -0.1364
  157SAPE   H5Y17567   1.251   3.509   9.689  1.1121  0.0109 -0.6780
  157SAPE   C3617568   1.251   3.298   9.622  0.3146  0.0193  0.0216
  157SAPE   H6X17569   1.158   3.267   9.673  1.5800 -1.3187  1.6482
  157SAPE   H6Y17570   1.314   3.207   9.634 -0.2225 -0.4888 -0.8974
  157SAPE   C3717571   1.223   3.333   9.475 -0.3521  0.0105 -0.3235
  157SAPE   H7X17572   1.317   3.365   9.426  0.0388 -1.3048 -0.4737
  157SAPE   H7Y17573   1.148   3.414   9.466  0.7191  1.2288  1.2713
  157SAPE   C3817574   1.171   3.210   9.397 -0.6360  0.3573  0.3090
  157SAPE   H8X17575   1.079   3.173   9.447 -2.5619  1.8526 -1.8724
  157SAPE   H8Y17576   1.234   3.119   9.398  0.5734  1.1447 -0.8753
  157SAPE   C3917577   1.117   3.248   9.258  0.3586  0.0895  0.2837
  157SAPE   H9X17578   1.054   3.338   9.278  1.9322  1.1019  0.9164
  157SAPE   H9Y17579   1.045   3.168   9.228 -2.2805  2.0032  1.1062
  157SAPE  C31017580   1.216   3.280   9.147  0.1403 -0.0521  0.6956
  157SAPE  H10X17581   1.273   3.185   9.132  2.1084  1.1326  0.2962
  157SAPE  H10Y17582   1.303   3.340   9.181  0.6562 -1.3866  1.8495
  157SAPE  C31117583   1.142   3.331   9.018 -0.3140  0.4025  0.8465
  157SAPE  H11X17584   1.107   3.433   9.048 -2.0750 -0.1145  0.6663
  157SAPE  H11Y17585   1.061   3.257   9.000 -0.4596  0.6514  0.4624
  157SAPE  C31217586   1.235   3.342   8.894 -0.4847  0.3427  0.3007
  157SAPE  H12X17587   1.278   3.245   8.860  1.3017  1.2673 -0.2187
  157SAPE  H12Y17588   1.321   3.409   8.915 -0.1393 -0.1705  0.5607
  157SAPE  C31317589   1.165   3.410   8.781  0.6283 -0.1285 -0.1029
  157SAPE  H13X17590   1.125   3.505   8.823  0.8751  0.2559 -0.7145
  157SAPE  H13Y17591   1.085   3.341   8.748  0.7623  0.6122 -2.1233
  157SAPE  C31417592   1.261   3.442   8.669 -0.2251  0.1730  0.0026
  157SAPE  H14X17593   1.312   3.349   8.635 -1.4791  0.3055 -2.4213
  157SAPE  H14Y17594   1.337   3.507   8.717 -2.9440  1.1001  3.5218
  157SAPE  C31517595   1.194   3.519   8.556  0.0504  0.8124  0.0706
  157SAPE  H15X17596   1.157   3.614   8.601 -0.7752  1.3291 -1.6210
  157SAPE  H15Y17597   1.108   3.464   8.512  0.9655 -0.7356  0.1376
  157SAPE  C31617598   1.293   3.555   8.447 -0.7314 -0.1865 -0.0936
  157SAPE  H16X17599   1.298   3.472   8.373 -0.0902 -1.7407  1.6089
  157SAPE  H16Y17600   1.391   3.570   8.496 -0.2526  1.0082 -1.3574
  157SAPE  C31717601   1.264   3.684   8.383  0.2491  0.2969 -0.0012
  157SAPE  H17X17602   1.335   3.698   8.299  1.5832  1.1693  1.2268
  157SAPE  H17Y17603   1.270   3.769   8.455 -2.5411 -1.0506  2.0071
  157SAPE  C31817604   1.120   3.684   8.329 -0.1580 -0.1439  0.2273
  157SAPE  H18X17605   1.045   3.685   8.411 -0.6499 -2.5890 -0.0964
  157SAPE  H18Y17606   1.094   3.590   8.276  2.5507 -0.2241 -1.1406
  157SAPE  H18Z17607   1.109   3.776   8.268  1.0654 -0.3271 -0.3041
  158SAPE     N17608   2.242   2.002  10.526 -0.2779 -0.0310 -0.1339
  158SAPE   HN117609   2.322   2.047  10.576  0.3234  0.0656 -1.1605
  158SAPE   HN217610   2.149   2.036  10.559  0.1224  1.0882 -0.1043
  158SAPE   HN317611   2.248   1.899  10.535 -0.7103 -0.0456  0.0321
  158SAPE   C1217612   2.239   2.037  10.383 -0.7090 -0.0142 -0.1846
  158SAPE  H12A17613   2.171   1.964  10.333 -1.3568  0.8237 -0.5412
  158SAPE  H12B17614   2.340   2.035  10.338 -0.3017 -0.3406  0.7092
  158SAPE   C1117615   2.196   2.180  10.366 -0.5202 -0.0933 -0.7957
  158SAPE  H11A17616   2.114   2.203  10.438  0.8870 -0.9842  1.1689
  158SAPE  H11B17617   2.164   2.202  10.261  1.0464  0.5216 -1.1636
  158SAPE     P17618   2.299   2.419  10.403 -0.3483 -0.1290 -0.0204
  158SAPE   O1317619   2.199   2.450  10.506 -0.0178  0.6582  0.1353
  158SAPE   O1417620   2.435   2.473  10.418  0.4402 -0.4564  0.0303
  158SAPE   O1217621   2.309   2.265  10.390 -0.4379  0.5621  0.2397
  158SAPE   O1117622   2.239   2.458  10.263 -0.1474 -0.0864 -0.0592
  158SAPE    C117623   2.299   2.420  10.138  0.3129  0.6311  0.3069
  158SAPE    HA17624   2.400   2.376  10.151  0.9538  1.7258 -0.7247
  158SAPE    HB17625   2.239   2.367  10.061  0.9131 -0.8792  0.8604
  158SAPE    C217626   2.329   2.554  10.060  0.3388  0.1345  0.1880
  158SAPE    HS17627   2.376   2.618  10.138  0.8124  0.7482 -0.5886
  158SAPE   O2117628   2.195   2.602  10.024  0.2237 -0.3489  1.1775
  158SAPE   C2117629   2.201   2.726   9.982  0.0185  0.0223  1.3277
  158SAPE   O2217630   2.304   2.787   9.958 -0.2550  0.7332  0.0695
  158SAPE   C2217631   2.061   2.775   9.945  0.0562 -0.7713 -0.1286
  158SAPE   H2R17632   2.023   2.716   9.858  1.2464  0.7280 -1.7380
  158SAPE   H2S17633   2.005   2.748  10.037  1.9093  0.2025  1.3370
  158SAPE    C317634   2.431   2.536   9.941  0.4873 -0.9069  0.4980
  158SAPE    HX17635   2.517   2.504  10.004 -0.8609 -1.4254  2.1271
  158SAPE    HY17636   2.456   2.636   9.900  0.5611 -0.6410  1.1779
  158SAPE   O3117637   2.383   2.446   9.836  0.0848 -0.1119  0.4251
  158SAPE   C3117638   2.329   2.501   9.723 -0.3172 -0.5168 -0.7765
  158SAPE   O3217639   2.334   2.620   9.693 -0.5063  0.5249 -0.0838
  158SAPE   C3217640   2.269   2.386   9.646  0.0297  0.1892 -0.5764
  158SAPE   H2X17641   2.176   2.347   9.691 -1.5566  2.6058 -1.5703
  158SAPE   H2Y17642   2.343   2.304   9.632  0.3746  0.4749 -0.4648
  158SAPE   C2317643   2.061   2.925   9.908  0.2973 -0.5533 -0.5012
  158SAPE   H3R17644   2.124   2.944   9.818 -0.2293  0.2268 -0.7219
  158SAPE   H3S17645   2.107   2.983   9.991 -0.6396 -1.0870  0.4116
  158SAPE   C2417646   1.920   3.000   9.887 -0.8527  0.1235  0.0940
  158SAPE   H4R17647   1.867   2.981   9.983  1.4679 -1.1342  1.2249
  158SAPE   H4S17648   1.870   2.937   9.811 -0.3553  1.0420 -1.0208
  158SAPE   C2517649   1.912   3.138   9.850  0.5059  0.0805 -0.4771
  158SAPE   H5R17650   1.918   3.214   9.929 -0.3346  2.4315 -2.5111
  158SAPE   C2617651   1.906   3.187   9.720  0.2310 -0.1132  0.2383
  158SAPE   H6R17652   1.901   3.296   9.704  0.4288  0.1355  1.7247
  158SAPE   C2717653   1.894   3.096   9.597  0.3165 -0.1126 -0.2448
  158SAPE   H7R17654   1.950   3.000   9.601  1.8077  0.5851 -2.6336
  158SAPE   H7S17655   1.942   3.146   9.511  0.2555  2.1924  0.9761
  158SAPE   C2817656   1.750   3.071   9.565 -0.6208  0.0699 -0.2876
  158SAPE   H8R17657   1.699   3.013   9.643  0.7803  0.0099  0.6000
  158SAPE   C2917658   1.673   3.131   9.472  0.2443 -0.0339 -0.1949
  158SAPE   H9R17659   1.567   3.105   9.459 -0.1846  1.0802  0.9225
  158SAPE  C21017660   1.735   3.227   9.373  0.2240 -0.2398  0.9508
  158SAPE  H10R17661   1.777   3.176   9.283  0.6607  0.5169  0.7198
  158SAPE  H10S17662   1.832   3.266   9.411  0.7308 -0.1071 -0.3951
  158SAPE  C21117663   1.639   3.339   9.335  0.5424  0.7826 -0.1303
  158SAPE  H11R17664   1.555   3.362   9.402  0.7675 -1.1055  0.8549
  158SAPE  C21217665   1.630   3.393   9.208 -0.9974 -0.1611 -0.8116
  158SAPE  H12R17666   1.554   3.466   9.176 -0.9129 -0.3304 -1.4104
  158SAPE  C21317667   1.716   3.360   9.086  0.2188 -0.4380  0.1428
  158SAPE  H13R17668   1.781   3.273   9.112 -0.5369 -0.8319  0.7407
  158SAPE  H13S17669   1.800   3.430   9.064  0.3794 -0.3364  1.0464
  158SAPE  C21417670   1.630   3.334   8.964 -0.2132  0.0501 -0.0650
  158SAPE  H14R17671   1.553   3.258   8.983 -3.4786  2.0533 -4.0023
  158SAPE  C21517672   1.640   3.379   8.835  0.3265  1.2404 -0.2014
  158SAPE  H15R17673   1.568   3.342   8.761 -0.7895  0.7297  1.0986
  158SAPE  C21617674   1.730   3.483   8.783  0.0586 -0.5545 -0.1571
  158SAPE  H16R17675   1.799   3.435   8.711  0.6440 -1.4174  0.9482
  158SAPE  H16S17676   1.793   3.523   8.866 -0.1083  2.7377 -1.4652
  158SAPE  C21717677   1.657   3.594   8.708 -0.1320  0.6064  0.8169
  158SAPE  H17R17678   1.550   3.563   8.696 -0.0938  1.3484 -2.4731
  158SAPE  H17S17679   1.707   3.611   8.610 -0.8965 -0.9656  0.1065
  158SAPE  C21817680   1.644   3.733   8.776  0.0534 -0.0589  0.4425
  158SAPE  H18R17681   1.583   3.801   8.713  1.6665  1.7137  0.6917
  158SAPE  H18S17682   1.753   3.757   8.771  0.2956 -0.8469  1.5644
  158SAPE  C21917683   1.594   3.735   8.921 -0.0403 -0.1580 -0.4602
  158SAPE  H19R17684   1.670   3.680   8.981 -0.5780 -0.2795  0.1246
  158SAPE  H19S17685   1.502   3.672   8.926  1.2577 -2.1988 -1.2221
  158SAPE  C22017686   1.582   3.880   8.969 -0.3124 -0.6775 -0.2082
  158SAPE  H20R17687   1.562   3.884   9.078 -0.1982 -1.7991 -0.1366
  158SAPE  H20S17688   1.510   3.942   8.911  0.0101 -1.7161 -1.7873
  158SAPE  H20T17689   1.683   3.921   8.949  0.2313 -0.6773  2.2962
  158SAPE   C3317690   2.217   2.420   9.506  0.7241  0.1172  0.0506
  158SAPE   H3X17691   2.136   2.497   9.503 -0.6961 -1.3013 -3.0316
  158SAPE   H3Y17692   2.184   2.321   9.468  1.7605 -0.8330  1.5275
  158SAPE   C3417693   2.324   2.468   9.409 -0.1922  0.1567  0.1332
  158SAPE   H4X17694   2.408   2.396   9.402 -0.0440  0.4452 -1.1927
  158SAPE   H4Y17695   2.377   2.561   9.437 -0.4801 -0.1604  1.8550
  158SAPE   C3517696   2.262   2.487   9.269  0.8132  0.3511 -0.7068
  158SAPE   H5X17697   2.193   2.573   9.276 -1.4843 -1.5214  1.4633
  158SAPE   H5Y17698   2.208   2.397   9.231  0.2825  0.8556 -1.1472
  158SAPE   C3617699   2.361   2.515   9.164 -0.4343  0.7115  0.0247
  158SAPE   H6X17700   2.450   2.451   9.182 -1.1275 -0.0344  0.8630
  158SAPE   H6Y17701   2.385   2.624   9.163 -0.2495  0.6772  0.7168
  158SAPE   C3717702   2.307   2.468   9.022  0.1569  0.5568 -0.1764
  158SAPE   H7X17703   2.217   2.531   9.001 -0.1910 -0.0979 -0.6614
  158SAPE   H7Y17704   2.272   2.363   9.024 -0.0345  0.6108 -0.7834
  158SAPE   C3817705   2.404   2.485   8.907  0.0407  0.1723  0.1262
  158SAPE   H8X17706   2.345   2.469   8.814  1.5528  0.7328 -0.9635
  158SAPE   H8Y17707   2.483   2.408   8.915  1.0807  1.2099  0.1125
  158SAPE   C3917708   2.458   2.628   8.867 -0.0744  0.3429  0.0138
  158SAPE   H9X17709   2.537   2.665   8.937  0.6567  0.9965 -1.1314
  158SAPE   H9Y17710   2.372   2.698   8.870  0.5181  1.0504  1.5347
  158SAPE  C31017711   2.521   2.626   8.728  0.4975  0.6450  0.0344
  158SAPE  H10X17712   2.594   2.542   8.720  1.2091  1.1916  0.6162
  158SAPE  H10Y17713   2.584   2.717   8.729  1.8171 -0.2444  0.6184
  158SAPE  C31117714   2.430   2.630   8.605 -0.2240 -0.8816  0.2403
  158SAPE  H11X17715   2.338   2.568   8.615 -0.1662 -1.3732 -1.8512
  158SAPE  H11Y17716   2.495   2.597   8.521 -0.0752  1.1776 -0.5129
  158SAPE  C31217717   2.386   2.772   8.571 -0.1600  0.4292  0.8427
  158SAPE  H12X17718   2.469   2.846   8.575 -1.6486  2.1085  3.9588
  158SAPE  H12Y17719   2.315   2.809   8.648  1.2318  1.8032  1.5084
  158SAPE  C31317720   2.327   2.788   8.428  0.8874  0.5444  0.1018
  158SAPE  H13X17721   2.383   2.725   8.356  0.0184 -1.0313  0.7520
  158SAPE  H13Y17722   2.324   2.894   8.394 -2.9251  0.4240 -0.4230
  158SAPE  C31417723   2.181   2.741   8.407 -0.9656 -0.0980 -0.1742
  158SAPE  H14X17724   2.165   2.633   8.428 -0.4269 -0.3209 -0.8855
  158SAPE  H14Y17725   2.161   2.750   8.298 -0.3072  0.2571 -0.2672
  158SAPE  C31517726   2.073   2.826   8.486  0.1724  0.6992 -0.2193
  158SAPE  H15X17727   2.113   2.840   8.589 -1.4453 -0.1733  0.5801
  158SAPE  H15Y17728   1.983   2.761   8.490 -0.0917  0.9332 -1.8715
  158SAPE  C31617729   2.041   2.963   8.427  0.2296 -0.7004 -0.0447
  158SAPE  H16X17730   2.032   2.958   8.316 -1.4051  0.9475 -0.0382
  158SAPE  H16Y17731   2.123   3.030   8.462 -0.4084  0.0601  0.0184
  158SAPE  C31717732   1.901   3.020   8.467  0.6597 -0.4986  0.0532
  158SAPE  H17X17733   1.833   2.938   8.434  0.7244 -0.1399 -1.0134
  158SAPE  H17Y17734   1.884   3.113   8.408  1.0259 -0.2870  0.2805
  158SAPE  C31817735   1.875   3.042   8.620  0.6478  0.1154  0.6705
  158SAPE  H18X17736   1.938   3.130   8.645 -0.2378  0.6272  1.1730
  158SAPE  H18Y17737   1.897   2.951   8.679  0.2932 -2.1182 -2.3824
  158SAPE  H18Z17738   1.770   3.076   8.635  0.5619  1.4309 -2.1662
  159SAPE     N17739   2.288   0.308   5.842  0.4870 -0.1077  0.2626
  159SAPE   HN117740   2.226   0.266   5.771  1.0365 -1.8950  0.7928
  159SAPE   HN217741   2.372   0.343   5.791  1.0937 -1.7923  0.0501
  159SAPE   HN317742   2.315   0.230   5.905  0.6021  1.0797  1.7599
  159SAPE   C1217743   2.239   0.430   5.900  0.1402  0.0712 -0.0670
  159SAPE  H12A17744   2.167   0.400   5.980 -0.0753  1.0498  0.1146
  159SAPE  H12B17745   2.180   0.492   5.829  0.8055  1.1262  0.2736
  159SAPE   C1117746   2.344   0.523   5.958 -0.0240 -0.1653 -0.3329
  159SAPE  H11A17747   2.388   0.468   6.044 -0.9223  1.9612  1.5841
  159SAPE  H11B17748   2.290   0.615   5.989  0.2246 -0.3763  0.7911
  159SAPE     P17749   2.546   0.661   5.881 -0.7249  0.0795  0.1213
  159SAPE   O1317750   2.672   0.598   5.836 -0.1062 -0.5430 -0.7326
  159SAPE   O1417751   2.507   0.784   5.818 -0.7582 -0.9059  0.4857
  159SAPE   O1217752   2.433   0.558   5.853 -0.4025 -0.2453 -0.3038
  159SAPE   O1117753   2.541   0.684   6.041  0.4850  0.2516  0.0849
  159SAPE    C117754   2.615   0.598   6.126  0.1924 -0.0020 -0.3511
  159SAPE    HA17755   2.600   0.491   6.101  1.1266 -0.7863  2.0843
  159SAPE    HB17756   2.725   0.613   6.114  0.0944 -0.4616 -2.1579
  159SAPE    C217757   2.585   0.617   6.272 -0.4207  0.7687  0.9802
  159SAPE    HS17758   2.475   0.627   6.284 -0.7743 -0.9339 -0.4049
  159SAPE   O2117759   2.647   0.740   6.305 -0.1149 -0.2597  0.3724
  159SAPE   C2117760   2.600   0.805   6.416  0.0376  0.2498 -0.0720
  159SAPE   O2217761   2.516   0.746   6.485  0.3664 -0.6911 -0.8229
  159SAPE   C2217762   2.660   0.941   6.447  0.2628  0.8412  0.1351
  159SAPE   H2R17763   2.769   0.927   6.467  0.9063  1.5149 -2.5280
  159SAPE   H2S17764   2.642   0.999   6.354 -0.1896 -3.8361 -3.0344
  159SAPE    C317765   2.655   0.506   6.350 -0.1277  0.2771  0.1158
  159SAPE    HX17766   2.645   0.521   6.459  0.6746 -3.8174  0.9117
  159SAPE    HY17767   2.762   0.509   6.318 -0.0811 -1.0196  0.1250
  159SAPE   O3117768   2.594   0.380   6.317  0.4196  0.2795 -0.4640
  159SAPE   C3117769   2.480   0.360   6.382 -0.0037  0.0220  0.2936
  159SAPE   O3217770   2.417   0.431   6.451  0.0952 -0.5084 -0.1890
  159SAPE   C3217771   2.437   0.214   6.370 -0.8898  0.3268 -0.9644
  159SAPE   H2X17772   2.528   0.157   6.341 -0.5102 -0.6092  1.7348
  159SAPE   H2Y17773   2.374   0.206   6.279  1.4708 -1.4498 -2.5701
  159SAPE   C2317774   2.581   0.996   6.566 -0.8116  0.6834 -0.3310
  159SAPE   H3R17775   2.574   0.943   6.663 -1.1496 -0.0063 -0.7206
  159SAPE   H3S17776   2.476   0.993   6.529 -0.3963  0.0655 -1.5447
  159SAPE   C2417777   2.618   1.143   6.591 -0.0385 -0.2977  0.2344
  159SAPE   H4R17778   2.530   1.176   6.651 -0.0115 -0.2893  0.2698
  159SAPE   H4S17779   2.622   1.190   6.490 -0.3864 -0.6943  0.0331
  159SAPE   C2517780   2.743   1.170   6.667 -0.1204 -0.2795  0.0511
  159SAPE   H5R17781   2.819   1.208   6.597 -0.3935 -1.8757 -1.1594
  159SAPE   C2617782   2.774   1.160   6.800 -0.0918  0.2871 -0.2383
  159SAPE   H6R17783   2.874   1.187   6.836 -0.0448  0.2199 -0.3194
  159SAPE   C2717784   2.686   1.113   6.911  0.2450  0.1941  0.5779
  159SAPE   H7R17785   2.581   1.114   6.874  0.9298  0.4393 -1.5244
  159SAPE   H7S17786   2.693   1.194   6.987  1.4180  2.5700 -1.8769
  159SAPE   C2817787   2.726   0.975   6.959 -0.1732  0.6379 -0.2711
  159SAPE   H8R17788   2.835   0.968   6.945 -0.3611  1.3744 -2.5274
  159SAPE   C2917789   2.645   0.875   7.005 -0.2906 -0.4450  0.4402
  159SAPE   H9R17790   2.680   0.774   7.031 -1.6845 -1.1235 -0.2427
  159SAPE  C21017791   2.494   0.890   7.015 -0.5118  0.1008 -0.1288
  159SAPE  H10R17792   2.458   0.986   6.972  3.4687  0.8717 -2.2115
  159SAPE  H10S17793   2.476   0.901   7.124  0.2546 -0.4146  0.0606
  159SAPE  C21117794   2.424   0.765   6.969 -0.4395 -0.3076 -0.4032
  159SAPE  H11R17795   2.443   0.741   6.864  0.0843  2.1916 -0.9470
  159SAPE  C21217796   2.330   0.677   7.032 -0.2656 -0.2478 -0.3566
  159SAPE  H12R17797   2.281   0.590   6.985  0.2808 -1.2021  0.7711
  159SAPE  C21317798   2.287   0.703   7.180 -0.2718  0.3080  0.1630
  159SAPE  H13R17799   2.210   0.627   7.206  1.2199 -2.0108 -1.7651
  159SAPE  H13S17800   2.249   0.805   7.201  0.7149  0.4990  1.0800
  159SAPE  C21417801   2.395   0.679   7.285 -0.0212  0.5651 -0.1568
  159SAPE  H14R17802   2.499   0.684   7.250 -0.2019 -4.0643 -2.0310
  159SAPE  C21517803   2.372   0.660   7.413 -0.5606 -0.2294  0.4489
  159SAPE  H15R17804   2.457   0.648   7.481  0.6620 -0.8700 -1.1215
  159SAPE  C21617805   2.240   0.658   7.485 -0.4699 -0.1557 -0.8178
  159SAPE  H16R17806   2.212   0.550   7.489  1.3379 -0.6296  0.2109
  159SAPE  H16S17807   2.161   0.705   7.423  0.1585 -0.4366 -1.8422
  159SAPE  C21717808   2.227   0.723   7.629  0.3717 -0.2991 -0.3781
  159SAPE  H17R17809   2.120   0.714   7.659 -0.3534  0.3160 -2.5695
  159SAPE  H17S17810   2.253   0.831   7.626 -1.4441  0.1966  0.1167
  159SAPE  C21817811   2.317   0.646   7.737 -0.0578  1.1324 -0.4447
  159SAPE  H18R17812   2.426   0.653   7.715  0.5430 -1.5499  1.2048
  159SAPE  H18S17813   2.303   0.538   7.719  0.4585  1.1597 -1.0322
  159SAPE  C21917814   2.285   0.699   7.875  0.6628 -0.5192  0.2862
  159SAPE  H19R17815   2.176   0.684   7.893  0.7110 -0.8315  0.3114
  159SAPE  H19S17816   2.295   0.810   7.876  1.2852 -0.5324  3.2281
  159SAPE  C22017817   2.358   0.639   7.998 -0.6924  0.5652 -0.1691
  159SAPE  H20R17818   2.336   0.531   8.007 -1.1404  0.6096 -0.6425
  159SAPE  H20S17819   2.330   0.689   8.093  1.4474  2.7274 -0.5764
  159SAPE  H20T17820   2.463   0.660   7.971 -0.5364 -0.8789 -0.7420
  159SAPE   C3317821   2.393   0.142   6.495  0.1946  1.0203  0.1965
  159SAPE   H3X17822   2.359   0.044   6.454  0.0854  1.4088 -0.6619
  159SAPE   H3Y17823   2.314   0.193   6.553 -0.1612 -1.4386  2.0265
  159SAPE   C3417824   2.509   0.101   6.597  0.0032 -0.3499 -0.0533
  159SAPE   H4X17825   2.605   0.125   6.547 -1.1334 -1.2016 -2.8240
  159SAPE   H4Y17826   2.509  -0.010   6.602 -0.2044 -0.4011 -1.0973
  159SAPE   C3517827   2.483   0.168   6.722 -0.2333 -0.4620  0.4732
  159SAPE   H5X17828   2.383   0.138   6.759 -2.3340 -1.0479 -4.7950
  159SAPE   H5Y17829   2.462   0.276   6.703 -0.1658 -0.4282  0.5856
  159SAPE   C3617830   2.594   0.161   6.822  0.0430  0.4610 -0.1397
  159SAPE   H6X17831   2.678   0.229   6.794 -0.8482  1.0162 -1.5851
  159SAPE   H6Y17832   2.639   0.060   6.829 -0.0234  0.4548  0.1732
  159SAPE   C3717833   2.556   0.228   6.958 -0.6717 -0.0994  0.3053
  159SAPE   H7X17834   2.522   0.332   6.938 -0.2207  0.0238  0.1476
  159SAPE   H7Y17835   2.649   0.245   7.016  0.6414  0.1665 -1.7598
  159SAPE   C3817836   2.465   0.137   7.044 -0.1784 -0.2260  0.5176
  159SAPE   H8X17837   2.511   0.038   7.063  0.6124 -0.0771 -0.5383
  159SAPE   H8Y17838   2.375   0.128   6.979 -1.2566  3.1941  1.3032
  159SAPE   C3917839   2.429   0.199   7.181 -0.3644 -0.6049 -0.7985
  159SAPE   H9X17840   2.357   0.283   7.169  1.1628  1.1385  1.3616
  159SAPE   H9Y17841   2.522   0.247   7.220 -1.7278  1.4456  0.0740
  159SAPE  C31017842   2.359   0.100   7.274  0.4335 -0.2741 -0.2922
  159SAPE  H10X17843   2.437   0.026   7.298  1.5040  0.6348 -0.8895
  159SAPE  H10Y17844   2.279   0.051   7.215  0.5590 -0.6996 -0.1059
  159SAPE  C31117845   2.300   0.152   7.408 -0.8689  0.2406 -0.3764
  159SAPE  H11X17846   2.222   0.076   7.428 -0.2441 -0.6240 -1.1481
  159SAPE  H11Y17847   2.249   0.247   7.379  1.5704  1.6331 -0.3673
  159SAPE  C31217848   2.397   0.171   7.516  0.5557 -0.2927  0.0426
  159SAPE  H12X17849   2.491   0.215   7.477 -0.3020  1.5989 -0.0084
  159SAPE  H12Y17850   2.431   0.073   7.555  1.3869  0.0900  0.3038
  159SAPE  C31317851   2.340   0.260   7.624 -0.2232 -0.1090  0.2535
  159SAPE  H13X17852   2.322   0.359   7.579  3.1309 -0.1671 -1.5270
  159SAPE  H13Y17853   2.404   0.263   7.716  0.2373  0.7294 -0.0838
  159SAPE  C31417854   2.210   0.211   7.682 -0.4601  0.6332  0.3455
  159SAPE  H14X17855   2.232   0.107   7.713 -1.5751  0.2398 -0.1383
  159SAPE  H14Y17856   2.132   0.219   7.603  0.5458  1.4474 -0.5918
  159SAPE  C31517857   2.155   0.290   7.806 -0.0239 -0.5392 -0.4722
  159SAPE  H15X17858   2.117   0.385   7.764 -1.0175 -0.5885  0.2867
  159SAPE  H15Y17859   2.235   0.326   7.874  0.3522  0.8243 -1.5855
  159SAPE  C31617860   2.046   0.210   7.875  0.0496 -0.9846 -0.1262
  159SAPE  H16X17861   2.016   0.271   7.963  0.3741 -1.4272  0.2943
  159SAPE  H16Y17862   2.093   0.119   7.918 -0.6503 -0.8096  1.0535
  159SAPE  C31717863   1.926   0.163   7.790 -0.6042  0.2383  0.0555
  159SAPE  H17X17864   1.970   0.119   7.698 -0.7280  1.5463 -0.6545
  159SAPE  H17Y17865   1.862   0.248   7.757 -3.5943 -0.7081  2.9002
  159SAPE  C31817866   1.842   0.062   7.868  0.2717  0.3655 -0.6418
  159SAPE  H18X17867   1.765   0.013   7.803 -0.1287  1.1443 -0.7632
  159SAPE  H18Y17868   1.811   0.113   7.961 -1.7948  0.2754 -1.2329
  159SAPE  H18Z17869   1.914  -0.011   7.910  0.5112  1.9929  1.9521
  160SAPE     N17870   0.518   1.248   6.212 -0.7019 -0.6772  0.7648
  160SAPE   HN117871   0.456   1.166   6.229  0.3192 -1.7762 -0.5884
  160SAPE   HN217872   0.471   1.341   6.214 -2.5665 -1.5610  0.3911
  160SAPE   HN317873   0.572   1.248   6.123 -0.9549  1.4570  0.5529
  160SAPE   C1217874   0.629   1.240   6.320  0.2847  0.2915 -0.0537
  160SAPE  H12A17875   0.579   1.264   6.416  3.7080  2.8006  1.3119
  160SAPE  H12B17876   0.692   1.331   6.306  2.5877 -1.3893 -1.3399
  160SAPE   C1117877   0.725   1.113   6.313 -0.3065 -0.5624 -0.2196
  160SAPE  H11A17878   0.663   1.021   6.312 -0.0509 -0.7417  0.3138
  160SAPE  H11B17879   0.782   1.105   6.408 -0.9556  1.2131  0.3568
  160SAPE     P17880   0.952   1.180   6.206  0.1890  0.1129 -0.1767
  160SAPE   O1317881   1.037   1.088   6.124 -0.2106 -0.5674  0.7736
  160SAPE   O1417882   0.944   1.318   6.158  0.0920 -0.3156  0.0193
  160SAPE   O1217883   0.810   1.125   6.204 -0.1308 -0.5245 -0.1989
  160SAPE   O1117884   1.006   1.185   6.354  0.3205  0.2236 -0.2771
  160SAPE    C117885   1.112   1.102   6.397  0.2114 -0.1240 -0.2999
  160SAPE    HA17886   1.203   1.110   6.333  0.5323  1.1218  0.2841
  160SAPE    HB17887   1.153   1.146   6.490  1.7291 -0.4675 -0.7803
  160SAPE    C217888   1.078   0.954   6.418 -0.5058  0.3491 -0.6826
  160SAPE    HS17889   1.055   0.913   6.317 -2.6338  1.1808 -0.5929
  160SAPE   O2117890   0.961   0.956   6.504  0.1939  0.8078  0.4353
  160SAPE   C2117891   0.893   0.843   6.503  0.4451 -0.7534 -0.0025
  160SAPE   O2217892   0.916   0.749   6.430 -0.3309 -0.0222 -0.2523
  160SAPE   C2217893   0.787   0.842   6.607  0.0205  0.4206 -0.2994
  160SAPE   H2R17894   0.810   0.746   6.659  0.2292  1.1894  1.0862
  160SAPE   H2S17895   0.802   0.924   6.681  1.2447 -0.0082 -0.0456
  160SAPE    C317896   1.202   0.879   6.481 -0.5116  0.9914  0.1904
  160SAPE    HX17897   1.292   0.904   6.421  0.8991 -1.0717  1.3351
  160SAPE    HY17898   1.194   0.769   6.480 -0.4725  0.9608 -2.2190
  160SAPE   O3117899   1.238   0.926   6.608  0.4915  0.1657  0.4341
  160SAPE   C3117900   1.181   0.866   6.713  0.7944 -0.6645  0.2971
  160SAPE   O3217901   1.105   0.773   6.713 -0.3926  0.1920 -0.6470
  160SAPE   C3217902   1.256   0.916   6.840  0.8887  0.0875  0.7866
  160SAPE   H2X17903   1.235   1.022   6.867  1.4451  0.3261  0.3186
  160SAPE   H2Y17904   1.365   0.896   6.833  0.7980 -0.7059  1.5377
  160SAPE   C2317905   0.640   0.850   6.562 -0.3677  0.1188 -0.7297
  160SAPE   H3R17906   0.609   0.789   6.475 -1.9626  0.5958 -0.5270
  160SAPE   H3S17907   0.622   0.958   6.545  1.0315  0.8151  1.6875
  160SAPE   C2417908   0.554   0.812   6.681 -0.3223  0.8639 -0.6256
  160SAPE   H4R17909   0.455   0.835   6.637 -0.0199  0.4475 -1.5341
  160SAPE   H4S17910   0.555   0.889   6.762 -0.7533 -0.4844  0.7240
  160SAPE   C2517911   0.565   0.670   6.734  0.5645 -0.1976 -0.4057
  160SAPE   H5R17912   0.554   0.595   6.654  0.3316 -0.9747  0.3456
  160SAPE   C2617913   0.618   0.625   6.851  0.1726 -0.6215  0.3681
  160SAPE   H6R17914   0.626   0.517   6.868 -0.0077 -1.1458 -2.3888
  160SAPE   C2717915   0.676   0.708   6.961 -0.2479  0.1746  0.6223
  160SAPE   H7R17916   0.745   0.786   6.923 -1.5654 -0.4821 -3.6442
  160SAPE   H7S17917   0.725   0.639   7.034  1.6730 -1.3662 -1.9688
  160SAPE   C2817918   0.564   0.776   7.037  0.2283 -0.9342 -0.7028
  160SAPE   H8R17919   0.513   0.852   6.975  2.5748  0.3038 -1.2151
  160SAPE   C2917920   0.529   0.769   7.171  0.2046  0.0690  0.7962
  160SAPE   H9R17921   0.439   0.822   7.204  0.2263  0.3660  0.3894
  160SAPE  C21017922   0.598   0.683   7.279  0.4206  0.5212 -0.1029
  160SAPE  H10R17923   0.659   0.751   7.341  2.2394 -0.2425 -0.9879
  160SAPE  H10S17924   0.680   0.618   7.243 -0.2700 -0.7305  0.5057
  160SAPE  C21117925   0.508   0.590   7.353  0.0624 -0.8328  1.0624
  160SAPE  H11R17926   0.443   0.526   7.291 -2.6976  1.9715  0.8031
  160SAPE  C21217927   0.504   0.575   7.488  0.4667 -0.1252  0.4526
  160SAPE  H12R17928   0.432   0.497   7.517  0.7351 -0.8597 -0.7540
  160SAPE  C21317929   0.587   0.643   7.586 -0.4409  0.5039  0.0972
  160SAPE  H13R17930   0.677   0.688   7.538  0.5910 -0.5673  0.9799
  160SAPE  H13S17931   0.618   0.566   7.660  0.1568  1.1929  0.5738
  160SAPE  C21417932   0.522   0.753   7.666  0.2010 -0.3987  0.0268
  160SAPE  H14R17933   0.470   0.827   7.604  0.9438 -0.0057 -0.1388
  160SAPE  C21517934   0.519   0.781   7.798  0.5662  0.3635  1.1374
  160SAPE  H15R17935   0.486   0.880   7.833 -1.3858  0.1508  0.0361
  160SAPE  C21617936   0.561   0.692   7.902 -0.3070 -0.9659  0.1648
  160SAPE  H16R17937   0.623   0.746   7.977 -0.9578  1.2153 -0.7789
  160SAPE  H16S17938   0.620   0.611   7.855 -1.2448 -0.3329 -2.3028
  160SAPE  C21717939   0.435   0.634   7.974 -0.5506  0.0904  0.3272
  160SAPE  H17R17940   0.464   0.548   8.039  0.7951 -2.1875 -2.9657
  160SAPE  H17S17941   0.371   0.585   7.897  0.4385  1.4091 -1.4212
  160SAPE  C21817942   0.364   0.743   8.055  0.2449  0.2370  0.3787
  160SAPE  H18R17943   0.301   0.805   7.988  2.1807  2.7471  0.7682
  160SAPE  H18S17944   0.441   0.811   8.098 -0.6763  0.0980  2.3828
  160SAPE  C21917945   0.274   0.697   8.172  0.6418  0.8634  1.1993
  160SAPE  H19R17946   0.317   0.608   8.222  0.8064  0.8723  1.0710
  160SAPE  H19S17947   0.171   0.673   8.138  0.5672  2.2838  0.3212
  160SAPE  C22017948   0.265   0.802   8.281 -0.2416 -0.3064  0.0455
  160SAPE  H20R17949   0.196   0.776   8.365 -1.7316  0.6880 -0.8249
  160SAPE  H20S17950   0.224   0.892   8.231 -1.9145 -1.5200 -0.9026
  160SAPE  H20T17951   0.367   0.825   8.320 -0.3665 -0.2844  0.3654
  160SAPE   C3317952   1.204   0.835   6.967 -0.4206  0.1203  0.0247
  160SAPE   H3X17953   1.276   0.851   7.050 -1.3446 -0.0588  0.8703
  160SAPE   H3Y17954   1.214   0.725   6.955 -1.0189 -0.1391  1.7348
  160SAPE   C3417955   1.061   0.860   7.012  0.5760 -0.5271  0.0029
  160SAPE   H4X17956   0.997   0.810   6.937 -0.5565 -0.4443  0.8964
  160SAPE   H4Y17957   1.052   0.971   7.006 -0.6493 -0.6835 -2.8906
  160SAPE   C3517958   1.032   0.808   7.149  0.1465  0.0012 -0.1223
  160SAPE   H5X17959   1.050   0.699   7.152  1.1079  0.0258 -2.3415
  160SAPE   H5Y17960   0.924   0.824   7.166 -0.4072 -2.8614 -0.4769
  160SAPE   C3617961   1.114   0.884   7.259  0.6163  0.3396  0.6159
  160SAPE   H6X17962   1.097   0.993   7.245 -0.2833 -0.0477 -1.8586
  160SAPE   H6Y17963   1.221   0.859   7.247  1.0561  1.7692  1.3727
  160SAPE   C3717964   1.082   0.858   7.405  0.1056  0.0353  0.0152
  160SAPE   H7X17965   0.977   0.887   7.427 -0.7527 -1.8085 -1.3999
  160SAPE   H7Y17966   1.151   0.923   7.462 -1.0057  2.2330 -1.0532
  160SAPE   C3817967   1.103   0.717   7.462  0.0119  0.3120  0.4380
  160SAPE   H8X17968   1.212   0.710   7.479  0.3563  2.5184 -0.4364
  160SAPE   H8Y17969   1.057   0.638   7.398 -1.0330 -0.2376  1.8170
  160SAPE   C3917970   1.036   0.708   7.601 -0.0390 -0.7304 -0.2121
  160SAPE   H9X17971   1.045   0.608   7.648 -0.1520 -1.4507 -1.6570
  160SAPE   H9Y17972   0.929   0.732   7.584 -0.2888 -0.8401  1.1135
  160SAPE  C31017973   1.078   0.810   7.710 -0.0506  0.0782 -0.1137
  160SAPE  H10X17974   1.023   0.905   7.688  0.8940  0.2205 -2.0748
  160SAPE  H10Y17975   1.189   0.813   7.706 -0.0071 -1.0523 -0.0508
  160SAPE  C31117976   1.049   0.759   7.852  0.6787 -0.4730  0.1247
  160SAPE  H11X17977   1.079   0.652   7.849 -0.2812 -0.7745  0.8683
  160SAPE  H11Y17978   0.939   0.768   7.858  0.5159 -0.2705 -2.3085
  160SAPE  C31217979   1.135   0.824   7.958 -0.0230  0.1484  0.0774
  160SAPE  H12X17980   1.096   0.928   7.966  0.1505  0.1789  0.5763
  160SAPE  H12Y17981   1.245   0.837   7.945 -0.0379 -0.2685 -0.4714
  160SAPE  C31317982   1.119   0.767   8.099 -0.2829  0.1927 -0.1324
  160SAPE  H13X17983   1.025   0.710   8.109 -0.4291  0.6505  1.2377
  160SAPE  H13Y17984   1.138   0.847   8.173 -0.5342 -0.0111  0.1519
  160SAPE  C31417985   1.227   0.655   8.125  1.0397  0.3855 -0.1522
  160SAPE  H14X17986   1.331   0.693   8.140  0.3801  2.1172  0.2538
  160SAPE  H14Y17987   1.237   0.592   8.034  2.2805  0.1875  0.1049
  160SAPE  C31517988   1.194   0.575   8.250 -0.3400  0.6609 -0.4379
  160SAPE  H15X17989   1.088   0.544   8.262 -0.2651  1.0476  1.5740
  160SAPE  H15Y17990   1.215   0.632   8.343  0.8744 -2.0922  1.1302
  160SAPE  C31617991   1.291   0.453   8.252  0.0202 -0.6875 -0.4474
  160SAPE  H16X17992   1.257   0.380   8.176 -0.6514 -0.4664 -0.3608
  160SAPE  H16Y17993   1.277   0.404   8.351 -0.9887 -0.0487 -0.2616
  160SAPE  C31717994   1.449   0.466   8.249 -0.1867 -0.5025  0.0158
  160SAPE  H17X17995   1.486   0.499   8.348 -2.9846 -3.3047  2.1785
  160SAPE  H17Y17996   1.474   0.533   8.163  0.2492  1.2392  1.4344
  160SAPE  C31817997   1.512   0.331   8.228  0.0883  1.1287  0.0649
  160SAPE  H18X17998   1.559   0.282   8.316  0.9273  2.1227  0.1912
  160SAPE  H18Y17999   1.588   0.339   8.147 -0.6283 -1.2682 -0.9106
  160SAPE  H18Z18000   1.436   0.259   8.190  1.4606  0.4666 -1.5548
  161SAPE     N18001   3.432   5.595   5.815 -0.3225 -0.9890  0.2957
  161SAPE   HN118002   3.385   5.658   5.883  0.7096 -1.1446  1.1899
  161SAPE   HN218003   3.462   5.650   5.732  0.5903 -1.8259  0.0504
  161SAPE   HN318004   3.371   5.515   5.791  0.5072 -0.8773 -2.5786
  161SAPE   C1218005   3.558   5.528   5.868 -0.2514 -0.1000  0.3329
  161SAPE  H12A18006   3.642   5.570   5.808  0.3072 -0.0688  1.1204
  161SAPE  H12B18007   3.546   5.420   5.846 -2.7114  0.1922  0.0626
  161SAPE   C1118008   3.574   5.557   6.022  0.2180  0.0441  0.6078
  161SAPE  H11A18009   3.592   5.665   6.041 -0.2109  0.7675 -2.4853
  161SAPE  H11B18010   3.656   5.492   6.061 -0.8986 -1.0082  1.2771
  161SAPE     P18011   3.430   5.387   6.190 -0.0203  0.4443 -0.1459
  161SAPE   O1318012   3.286   5.380   6.201  0.1575  0.3296  0.2065
  161SAPE   O1418013   3.504   5.269   6.133 -0.5377 -0.1665 -0.3560
  161SAPE   O1218014   3.460   5.519   6.103  0.2673 -0.0421  0.1627
  161SAPE   O1118015   3.479   5.440   6.328 -0.1393  0.2543 -0.6022
  161SAPE    C118016   3.603   5.497   6.334  0.0101  0.8911 -0.4560
  161SAPE    HA18017   3.683   5.439   6.283 -1.2051 -1.4102  0.0982
  161SAPE    HB18018   3.609   5.599   6.291  0.9659  0.0207 -2.5100
  161SAPE    C218019   3.655   5.534   6.479  0.3573 -0.8263 -0.8788
  161SAPE    HS18020   3.680   5.441   6.535 -0.9481 -0.6184  0.0985
  161SAPE   O2118021   3.571   5.624   6.553 -0.2293  0.4354 -0.4472
  161SAPE   C2118022   3.460   5.565   6.593  0.1560 -0.5078 -0.9002
  161SAPE   O2218023   3.441   5.447   6.601  0.6078  0.1347  0.6536
  161SAPE   C2218024   3.358   5.671   6.643 -0.0348  0.1163  0.6462
  161SAPE   H2R18025   3.320   5.736   6.561  0.8895  0.7018  0.6704
  161SAPE   H2S18026   3.270   5.613   6.680 -0.6341  0.5049 -0.1246
  161SAPE    C318027   3.797   5.603   6.465 -0.4540 -0.6186 -0.0853
  161SAPE    HX18028   3.771   5.685   6.394 -1.3476 -1.0242 -0.2299
  161SAPE    HY18029   3.864   5.524   6.424  1.2986  1.0477 -0.6535
  161SAPE   O3118030   3.853   5.661   6.591 -0.0934 -0.2337  0.0311
  161SAPE   C3118031   3.894   5.569   6.680  0.2470  0.4872  0.4082
  161SAPE   O3218032   3.888   5.451   6.665  0.2864  0.0254 -0.1371
  161SAPE   C3218033   3.939   5.643   6.810  0.0739  0.2205 -0.7601
  161SAPE   H2X18034   3.917   5.751   6.798  1.7612  0.7205  0.3793
  161SAPE   H2Y18035   4.048   5.623   6.821  0.0839 -0.2014 -1.5316
  161SAPE   C2318036   3.412   5.757   6.759  0.2532 -0.6680 -0.3921
  161SAPE   H3R18037   3.327   5.822   6.788  1.1392 -0.2084  1.3256
  161SAPE   H3S18038   3.483   5.830   6.715 -1.5441  0.6724 -1.1853
  161SAPE   C2418039   3.478   5.675   6.878 -0.1796  0.0307  0.1408
  161SAPE   H4R18040   3.518   5.748   6.952  0.0120  1.5003 -1.3606
  161SAPE   H4S18041   3.567   5.620   6.840 -0.3883 -1.5442  1.7704
  161SAPE   C2518042   3.390   5.577   6.945  0.4752  0.3357 -0.3902
  161SAPE   H5R18043   3.325   5.529   6.870 -0.6357  1.0365  0.0968
  161SAPE   C2618044   3.344   5.566   7.071 -0.3630  0.0591 -0.0400
  161SAPE   H6R18045   3.289   5.472   7.088 -0.4817  0.2642  0.7405
  161SAPE   C2718046   3.407   5.643   7.193 -0.2558  0.9014  0.4679
  161SAPE   H7R18047   3.465   5.734   7.167 -0.0015  0.5477 -0.2413
  161SAPE   H7S18048   3.481   5.565   7.224 -0.3164  0.5253 -0.2880
  161SAPE   C2818049   3.316   5.665   7.306 -0.1979  0.3691 -0.6959
  161SAPE   H8R18050   3.217   5.705   7.280 -1.2059 -1.9419 -0.6764
  161SAPE   C2918051   3.356   5.672   7.433 -0.0112 -0.5773  0.2595
  161SAPE   H9R18052   3.281   5.709   7.504 -0.2215 -1.5326  0.5422
  161SAPE  C21018053   3.490   5.628   7.486 -0.2277 -1.1767 -0.2318
  161SAPE  H10R18054   3.535   5.714   7.540  0.5375 -1.1751 -0.8443
  161SAPE  H10S18055   3.572   5.604   7.415  0.9594  1.9489 -0.0957
  161SAPE  C21118056   3.469   5.508   7.575  0.4937  0.6851  0.3977
  161SAPE  H11R18057   3.421   5.419   7.532  1.5747  0.3465 -0.1309
  161SAPE  C21218058   3.488   5.502   7.710 -0.1745  0.6408 -0.0125
  161SAPE  H12R18059   3.476   5.411   7.771 -1.5917  1.7674  1.4801
  161SAPE  C21318060   3.550   5.612   7.796  0.0906  0.2510 -0.1580
  161SAPE  H13R18061   3.602   5.695   7.743 -2.1259  1.1953 -0.9763
  161SAPE  H13S18062   3.634   5.576   7.859  1.9709 -1.0782 -3.2134
  161SAPE  C21418063   3.446   5.673   7.888 -0.5150 -0.6425 -0.6323
  161SAPE  H14R18064   3.408   5.774   7.864 -2.2705 -1.2674 -0.6646
  161SAPE  C21518065   3.404   5.628   8.004 -0.2207 -0.5144 -0.5006
  161SAPE  H15R18066   3.324   5.682   8.056  0.8499 -0.2823  0.9768
  161SAPE  C21618067   3.438   5.495   8.075 -0.1690  0.8911  0.6265
  161SAPE  H16R18068   3.465   5.406   8.014 -0.9729 -1.2003  3.1114
  161SAPE  H16S18069   3.346   5.463   8.129 -0.7026  0.1056 -0.7018
  161SAPE  C21718070   3.556   5.520   8.173  0.4688 -0.0739  0.2939
  161SAPE  H17R18071   3.509   5.531   8.274  2.0193  1.8545  0.8588
  161SAPE  H17S18072   3.613   5.613   8.155  0.1266  0.1938  0.5876
  161SAPE  C21818073   3.653   5.404   8.185 -0.0945 -0.2645 -0.3595
  161SAPE  H18R18074   3.687   5.369   8.086 -0.2254 -0.6574 -0.2673
  161SAPE  H18S18075   3.607   5.315   8.231  1.7149 -0.6447  0.8202
  161SAPE  C21918076   3.775   5.435   8.266 -0.3455 -0.4388  0.0073
  161SAPE  H19R18077   3.857   5.363   8.246  1.0378  0.9555  0.3727
  161SAPE  H19S18078   3.743   5.428   8.372  0.0717 -1.5193  0.0729
  161SAPE  C22018079   3.846   5.569   8.236  0.3408  0.1608 -0.0901
  161SAPE  H20R18080   3.944   5.582   8.286  0.5240  2.3273 -0.9411
  161SAPE  H20S18081   3.781   5.654   8.267  0.2418 -0.9355  3.0964
  161SAPE  H20T18082   3.865   5.568   8.127 -0.5925 -1.4232 -0.2662
  161SAPE   C3318083   3.864   5.591   6.938  0.4601  0.6713  0.1048
  161SAPE   H3X18084   3.893   5.485   6.957  0.1890  0.6952  0.6573
  161SAPE   H3Y18085   3.754   5.587   6.918  0.6513 -3.4546 -1.2550
  161SAPE   C3418086   3.881   5.678   7.067  0.0695  0.3071  0.1743
  161SAPE   H4X18087   3.822   5.771   7.052 -0.2652  0.4942  2.3132
  161SAPE   H4Y18088   3.991   5.695   7.079  0.1167 -0.7456  1.4773
  161SAPE   C3518089   3.838   5.604   7.196  0.1834 -0.2907 -0.1308
  161SAPE   H5X18090   3.856   5.494   7.193 -0.8261 -0.4551 -1.6330
  161SAPE   H5Y18091   3.727   5.612   7.200  0.2319  0.0549  0.7458
  161SAPE   C3618092   3.914   5.651   7.327 -0.5221  0.4124 -0.1555
  161SAPE   H6X18093   3.865   5.747   7.356 -0.9269  0.5144 -1.1401
  161SAPE   H6Y18094   4.021   5.659   7.299  0.4420 -1.7672  2.3790
  161SAPE   C3718095   3.905   5.537   7.443  0.1020 -0.2278 -0.0650
  161SAPE   H7X18096   3.955   5.446   7.404 -0.0772  0.2891 -1.5313
  161SAPE   H7Y18097   3.797   5.517   7.459 -0.0392  1.1918  0.9340
  161SAPE   C3818098   3.960   5.575   7.581  0.4507 -0.0732  0.7832
  161SAPE   H8X18099   3.894   5.654   7.624 -2.0084 -0.8237 -1.3734
  161SAPE   H8Y18100   4.065   5.609   7.569  0.9049 -1.8523 -0.6601
  161SAPE   C3918101   3.978   5.456   7.679  0.6009 -0.4777  0.2753
  161SAPE   H9X18102   4.040   5.384   7.623  1.5799 -0.0018  0.7298
  161SAPE   H9Y18103   3.877   5.412   7.697  0.4270 -1.6380 -2.8303
  161SAPE  C31018104   4.035   5.511   7.813  0.5283 -0.0811  0.5870
  161SAPE  H10X18105   3.983   5.606   7.837 -0.0163 -0.5338  1.2494
  161SAPE  H10Y18106   4.140   5.540   7.789  1.3341 -2.7936  0.4463
  161SAPE  C31118107   4.032   5.428   7.937 -0.2973 -0.2277  0.2454
  161SAPE  H11X18108   4.059   5.328   7.897  0.5635 -0.3001  0.9801
  161SAPE  H11Y18109   3.927   5.428   7.972 -0.1117  1.5680  0.9310
  161SAPE  C31218110   4.126   5.466   8.056 -0.1670  0.2005 -0.5700
  161SAPE  H12X18111   4.090   5.559   8.106 -0.8862 -0.0704 -0.5727
  161SAPE  H12Y18112   4.222   5.490   8.005 -0.6110 -2.7839 -3.0761
  161SAPE  C31318113   4.177   5.347   8.146  0.1227 -0.2280 -0.0441
  161SAPE  H13X18114   4.197   5.267   8.072 -0.0541  0.1652 -0.5257
  161SAPE  H13Y18115   4.091   5.309   8.206 -0.5258 -0.6041 -1.1965
  161SAPE  C31418116   4.290   5.384   8.244  0.5919  0.3926 -0.1312
  161SAPE  H14X18117   4.395   5.386   8.206  0.8830  0.8832  0.6826
  161SAPE  H14Y18118   4.292   5.305   8.321 -2.2691 -1.1855 -1.5073
  161SAPE  C31518119   4.272   5.515   8.318 -0.1058  0.4504 -0.0733
  161SAPE  H15X18120   4.164   5.531   8.340 -0.0010 -1.4324  2.1775
  161SAPE  H15Y18121   4.308   5.596   8.251 -3.2067 -1.1749 -4.1397
  161SAPE  C31618122   4.360   5.522   8.449 -0.0224 -0.3040 -0.0295
  161SAPE  H16X18123   4.468   5.522   8.423 -0.0830  1.2277 -0.3976
  161SAPE  H16Y18124   4.341   5.436   8.517 -1.3386 -1.8552 -2.2260
  161SAPE  C31718125   4.327   5.654   8.523  0.6705 -0.1547 -0.6750
  161SAPE  H17X18126   4.405   5.656   8.602  0.3918 -1.0875 -0.3583
  161SAPE  H17Y18127   4.236   5.646   8.586  1.1017 -0.0589 -0.0318
  161SAPE  C31818128   4.333   5.784   8.452 -0.0557 -0.0210 -0.6287
  161SAPE  H18X18129   4.271   5.790   8.360  2.8364  0.5732 -2.6665
  161SAPE  H18Y18130   4.437   5.816   8.431  0.6648 -0.1478  2.2681
  161SAPE  H18Z18131   4.291   5.869   8.509 -1.9295  0.3923 -2.4969
  162SAPE     N18132   3.567   6.285   6.255  0.3095  0.1329  0.1716
  162SAPE   HN118133   3.667   6.300   6.281  0.1572  1.0281  0.2941
  162SAPE   HN218134   3.550   6.183   6.265  1.6880 -0.0931  0.4089
  162SAPE   HN318135   3.566   6.310   6.153 -1.0202  0.8051  0.3289
  162SAPE   C1218136   3.490   6.374   6.344  0.3193  0.5660  0.5969
  162SAPE  H12A18137   3.490   6.324   6.444 -1.6444 -0.6233  0.0454
  162SAPE  H12B18138   3.383   6.356   6.323  0.6600 -1.5378  0.4969
  162SAPE   C1118139   3.552   6.516   6.348 -0.3780  0.0081  0.1666
  162SAPE  H11A18140   3.651   6.494   6.392 -0.1814 -2.4597 -1.3240
  162SAPE  H11B18141   3.478   6.571   6.411 -1.1358  1.6522 -2.0242
  162SAPE     P18142   3.441   6.641   6.143  0.5173 -0.2677  0.1961
  162SAPE   O1318143   3.496   6.710   6.021  0.1820 -0.2011  0.4083
  162SAPE   O1418144   3.333   6.539   6.117  0.0282 -0.5196 -0.2213
  162SAPE   O1218145   3.563   6.583   6.223 -0.7962 -0.2417  0.4452
  162SAPE   O1118146   3.393   6.747   6.252  0.7016 -0.2008  0.3028
  162SAPE    C118147   3.467   6.868   6.286  0.1847  0.0039 -0.2046
  162SAPE    HA18148   3.558   6.883   6.225 -0.3572  0.8055 -0.8441
  162SAPE    HB18149   3.400   6.956   6.272 -0.7370 -0.7870 -0.9079
  162SAPE    C218150   3.491   6.875   6.439 -0.7138  0.1673  0.2866
  162SAPE    HS18151   3.528   6.977   6.462  1.8203 -1.0368  2.1205
  162SAPE   O2118152   3.574   6.777   6.494 -0.7084  0.3320  0.3497
  162SAPE   C2118153   3.701   6.812   6.473  0.1407 -0.2659 -0.3704
  162SAPE   O2218154   3.745   6.898   6.400  0.4002 -0.1014  0.0806
  162SAPE   C2218155   3.795   6.745   6.575  0.7239  0.4055 -0.6056
  162SAPE   H2R18156   3.744   6.654   6.613  0.3928  0.1880 -1.5454
  162SAPE   H2S18157   3.883   6.716   6.513  1.4123  1.3855 -0.1117
  162SAPE    C318158   3.364   6.885   6.522  0.3338  0.4635 -0.4862
  162SAPE    HX18159   3.312   6.788   6.504  0.3381  0.4817 -0.5991
  162SAPE    HY18160   3.293   6.955   6.474 -2.5853 -0.4112  2.1826
  162SAPE   O3118161   3.404   6.919   6.654  0.4283 -0.0158 -0.2355
  162SAPE   C3118162   3.302   6.898   6.740 -0.1394 -0.3247  0.0438
  162SAPE   O3218163   3.190   6.865   6.704 -0.3691 -0.2003  0.2921
  162SAPE   C3218164   3.347   6.931   6.875 -0.2359  0.1508  0.0596
  162SAPE   H2X18165   3.415   7.019   6.880 -0.8234  0.7211 -1.4279
  162SAPE   H2Y18166   3.406   6.842   6.905  0.8465  0.7424 -0.2836
  162SAPE   C2318167   3.840   6.837   6.692 -0.1018  0.3366 -0.2995
  162SAPE   H3R18168   3.880   6.935   6.658 -2.4024  1.2610 -0.5615
  162SAPE   H3S18169   3.907   6.777   6.757  1.8209  2.2497 -0.4403
  162SAPE   C2418170   3.713   6.856   6.785 -0.3912 -0.3113 -1.3717
  162SAPE   H4R18171   3.663   6.767   6.829 -0.3479  0.4737  0.3299
  162SAPE   H4S18172   3.637   6.915   6.730 -1.2061 -0.6184 -0.5987
  162SAPE   C2518173   3.770   6.941   6.897 -0.7037  0.1251  0.3180
  162SAPE   H5R18174   3.800   7.039   6.858 -1.3796  0.2141  0.0017
  162SAPE   C2618175   3.776   6.911   7.025 -0.2251 -0.1358 -0.3292
  162SAPE   H6R18176   3.834   6.985   7.083 -0.5839  1.7567 -2.2765
  162SAPE   C2718177   3.730   6.785   7.094  0.4554 -0.0242  0.4421
  162SAPE   H7R18178   3.813   6.733   7.146  0.2158  1.3894  2.3763
  162SAPE   H7S18179   3.710   6.709   7.016  0.1906 -0.9486  1.3848
  162SAPE   C2818180   3.629   6.801   7.199  0.1045 -0.2240 -0.3650
  162SAPE   H8R18181   3.530   6.799   7.152 -0.5909  0.7468  1.0046
  162SAPE   C2918182   3.632   6.817   7.331  0.8363  0.3961 -0.4488
  162SAPE   H9R18183   3.536   6.823   7.385 -0.5834 -0.2554 -2.7515
  162SAPE  C21018184   3.757   6.825   7.408 -0.3217  0.3252 -0.2094
  162SAPE  H10R18185   3.800   6.926   7.389  3.2953 -0.7226  1.6206
  162SAPE  H10S18186   3.830   6.751   7.369 -0.2098 -0.7995  1.9790
  162SAPE  C21118187   3.748   6.790   7.557  0.2664 -0.1247  0.0978
  162SAPE  H11R18188   3.745   6.684   7.588 -0.4148 -0.0865  0.1751
  162SAPE  C21218189   3.758   6.867   7.664 -0.3305 -0.1422  0.4171
  162SAPE  H12R18190   3.767   6.820   7.763 -0.3090  0.4847  0.7174
  162SAPE  C21318191   3.768   7.017   7.674  0.1182  0.2441 -0.3006
  162SAPE  H13R18192   3.667   7.062   7.657 -1.0626 -1.6376  1.2594
  162SAPE  H13S18193   3.823   7.058   7.587  2.3298  2.5839  2.0368
  162SAPE  C21418194   3.828   7.073   7.798  0.0641 -0.6310 -0.4003
  162SAPE  H14R18195   3.857   7.007   7.882  0.7024 -1.3286 -1.1551
  162SAPE  C21518196   3.857   7.205   7.822  0.0972  0.1269 -0.1558
  162SAPE  H15R18197   3.910   7.243   7.911 -1.1213  2.0985 -0.2288
  162SAPE  C21618198   3.835   7.332   7.740 -0.0558 -0.1651 -0.0476
  162SAPE  H16R18199   3.753   7.395   7.780 -0.7257  0.7663 -2.6816
  162SAPE  H16S18200   3.795   7.305   7.640 -2.2200 -1.0796  0.9982
  162SAPE  C21718201   3.960   7.408   7.726 -0.1225  0.0574 -0.0590
  162SAPE  H17R18202   3.992   7.439   7.828 -1.2792 -0.6528  0.5318
  162SAPE  H17S18203   3.937   7.501   7.669 -0.8451  1.2157  2.0399
  162SAPE  C21818204   4.083   7.328   7.671 -0.0287  0.5539 -0.3085
  162SAPE  H18R18205   4.046   7.267   7.586  0.4730 -0.1269 -0.0487
  162SAPE  H18S18206   4.126   7.260   7.747  2.3827  0.5610 -1.5771
  162SAPE  C21918207   4.195   7.417   7.613  0.2913  0.4877 -0.1620
  162SAPE  H19R18208   4.279   7.354   7.576  0.0017 -0.3407  0.5698
  162SAPE  H19S18209   4.233   7.481   7.696  0.5744 -0.7046  0.6496
  162SAPE  C22018210   4.161   7.504   7.491 -0.3202 -0.1525  0.3697
  162SAPE  H20R18211   4.081   7.575   7.523 -0.2090 -1.3121  3.5127
  162SAPE  H20S18212   4.128   7.439   7.407  0.6058  0.1573 -0.2502
  162SAPE  H20T18213   4.248   7.558   7.447 -0.0157 -1.1512 -0.2730
  162SAPE   C3318214   3.230   6.947   6.978 -0.1962  0.5969 -0.1725
  162SAPE   H3X18215   3.174   6.852   6.974  0.1012  0.4183 -0.1334
  162SAPE   H3Y18216   3.168   7.032   6.941 -0.5745 -0.2088 -1.4645
  162SAPE   C3418217   3.267   6.990   7.123 -0.4803 -0.0737  1.0471
  162SAPE   H4X18218   3.319   7.088   7.123  0.3466 -0.4978  1.8521
  162SAPE   H4Y18219   3.337   6.913   7.162  0.7808  1.2889  1.6138
  162SAPE   C3518220   3.152   6.993   7.218  0.6444  0.0822  0.5560
  162SAPE   H5X18221   3.111   6.892   7.237  1.0969 -0.1405  0.3570
  162SAPE   H5Y18222   3.058   7.028   7.170  0.5313  0.6806  1.2058
  162SAPE   C3618223   3.163   7.058   7.355 -0.1693  0.3096  0.5154
  162SAPE   H6X18224   3.163   7.169   7.345  0.5010  0.1678 -1.5650
  162SAPE   H6Y18225   3.264   7.032   7.393 -0.7277 -1.7138  0.7219
  162SAPE   C3718226   3.050   7.019   7.453  0.4960 -0.3103  0.5375
  162SAPE   H7X18227   3.054   6.912   7.482 -0.7428  0.1525  2.6003
  162SAPE   H7Y18228   2.951   7.026   7.404  1.3928 -1.6380 -1.6323
  162SAPE   C3818229   3.066   7.117   7.573 -0.2686 -0.1212 -0.1629
  162SAPE   H8X18230   2.971   7.111   7.632  0.8571 -0.3914  1.6954
  162SAPE   H8Y18231   3.086   7.222   7.542  0.7033 -0.7293 -1.6827
  162SAPE   C3918232   3.170   7.081   7.672 -0.3242  0.5429 -0.1960
  162SAPE   H9X18233   3.162   7.168   7.740 -1.0264  0.8939 -0.7171
  162SAPE   H9Y18234   3.271   7.070   7.627  0.3364 -0.2159  1.4028
  162SAPE  C31018235   3.142   6.950   7.751 -0.0576 -0.0287  0.1580
  162SAPE  H10X18236   3.135   6.875   7.669 -1.0136 -0.1476  0.3344
  162SAPE  H10Y18237   3.043   6.955   7.802  0.4781  0.9974  1.1463
  162SAPE  C31118238   3.250   6.906   7.844 -0.3901 -0.1057  0.7083
  162SAPE  H11X18239   3.284   6.987   7.911 -1.3224  1.1620 -0.2962
  162SAPE  H11Y18240   3.339   6.874   7.784 -0.6911  1.4748 -0.6553
  162SAPE  C31218241   3.214   6.782   7.927 -0.1773  0.0997 -0.1977
  162SAPE  H12X18242   3.200   6.697   7.857  1.0119 -0.1412 -0.1697
  162SAPE  H12Y18243   3.113   6.805   7.966  0.2190  0.6209  0.5488
  162SAPE  C31318244   3.315   6.753   8.045 -0.3495  0.0664 -0.1049
  162SAPE  H13X18245   3.283   6.655   8.087  1.0786 -1.4877 -2.3995
  162SAPE  H13Y18246   3.306   6.837   8.118  0.5609  0.9574 -0.9958
  162SAPE  C31418247   3.460   6.747   7.999  0.5289  0.2133 -0.0390
  162SAPE  H14X18248   3.482   6.841   7.943 -2.2680 -0.3677 -2.3536
  162SAPE  H14Y18249   3.485   6.672   7.920  0.0483  1.2090 -1.1748
  162SAPE  C31518250   3.560   6.734   8.120 -0.4550 -0.3027  0.0755
  162SAPE  H15X18251   3.561   6.641   8.180  0.7150  0.7752  1.8187
  162SAPE  H15Y18252   3.515   6.811   8.187 -1.5074 -0.4428 -0.4553
  162SAPE  C31618253   3.709   6.770   8.082 -0.2513  0.0589 -0.3666
  162SAPE  H16X18254   3.702   6.871   8.035  0.3269  1.1841  1.8276
  162SAPE  H16Y18255   3.743   6.702   8.001 -2.4176  0.4472 -1.7092
  162SAPE  C31718256   3.813   6.773   8.193 -0.7905  0.1484 -0.2905
  162SAPE  H17X18257   3.809   6.679   8.251  2.9345  0.7921  1.3401
  162SAPE  H17Y18258   3.788   6.851   8.268  2.0122  3.5681 -2.5289
  162SAPE  C31818259   3.952   6.807   8.137 -0.6169  0.3283  0.2725
  162SAPE  H18X18260   3.969   6.732   8.057 -0.1974  1.3255 -0.5888
  162SAPE  H18Y18261   4.013   6.803   8.230 -1.6568  0.3728  0.9669
  162SAPE  H18Z18262   3.951   6.907   8.089 -1.1993  0.4675  0.5636
  163SAPE     N18263   0.293   5.792   6.373 -0.2414 -0.4966  0.4834
  163SAPE   HN118264   0.371   5.860   6.389  0.5371 -1.0889 -0.6423
  163SAPE   HN218265   0.316   5.700   6.416 -1.5265 -0.0300  2.2981
  163SAPE   HN318266   0.289   5.775   6.271  0.8262  2.2347 -0.1153
  163SAPE   C1218267   0.161   5.849   6.407  0.0411  0.7200  0.3431
  163SAPE  H12A18268   0.165   5.895   6.508  2.9888 -0.2223  0.7466
  163SAPE  H12B18269   0.091   5.762   6.401  1.4491 -0.4671  0.4151
  163SAPE   C1118270   0.118   5.956   6.307 -0.4350  0.3055 -0.1201
  163SAPE  H11A18271   0.013   5.985   6.330 -0.8473  0.7223 -2.3318
  163SAPE  H11B18272   0.124   5.924   6.201 -0.1565 -1.1209  0.3162
  163SAPE     P18273   0.175   6.203   6.235  0.1339 -0.3564 -0.5890
  163SAPE   O1318274   0.156   6.165   6.093 -0.6100 -0.5640  0.6075
  163SAPE   O1418275   0.074   6.288   6.301  0.2735 -0.7913  0.2309
  163SAPE   O1218276   0.198   6.074   6.327 -0.6701 -0.8146 -0.0697
  163SAPE   O1118277   0.317   6.258   6.257  0.1827  0.1585  0.0373
  163SAPE    C118278   0.437   6.179   6.221  0.2279 -0.1095  0.1187
  163SAPE    HA18279   0.420   6.069   6.218  2.6810 -0.6168  1.8512
  163SAPE    HB18280   0.448   6.203   6.114 -2.0647  0.6202 -0.0069
  163SAPE    C218281   0.561   6.205   6.310 -0.0929  0.2156 -0.1251
  163SAPE    HS18282   0.629   6.119   6.293 -0.9805 -0.8313  1.3671
  163SAPE   O2118283   0.519   6.201   6.450  0.4365 -0.0171  0.0497
  163SAPE   C2118284   0.486   6.087   6.501  0.7187 -0.0957  1.1186
  163SAPE   O2218285   0.509   5.974   6.455  0.6058 -0.8584 -0.2310
  163SAPE   C2218286   0.425   6.099   6.648  0.2136 -0.3854  0.3255
  163SAPE   H2R18287   0.473   6.180   6.706  1.1080  0.6832 -1.8135
  163SAPE   H2S18288   0.323   6.134   6.621 -0.0056  0.1928  1.8360
  163SAPE    C318289   0.615   6.345   6.278 -0.0355  0.1834  0.0307
  163SAPE    HX18290   0.542   6.425   6.303 -0.1399  0.2762 -0.5491
  163SAPE    HY18291   0.625   6.354   6.168  1.6254  0.1175  0.1592
  163SAPE   O3118292   0.739   6.375   6.332  0.0063 -0.0338 -0.8966
  163SAPE   C3118293   0.849   6.309   6.288  0.1763  0.7417  0.6340
  163SAPE   O3218294   0.844   6.227   6.195  0.0675  0.6114 -0.5031
  163SAPE   C3218295   0.977   6.349   6.358  0.0766 -0.1464  0.5216
  163SAPE   H2X18296   1.001   6.447   6.311  0.1165 -0.9699 -1.2292
  163SAPE   H2Y18297   1.050   6.274   6.324 -0.7531  0.1917 -2.2406
  163SAPE   C2318298   0.416   5.970   6.733  0.8823  0.1640 -0.0878
  163SAPE   H3R18299   0.501   5.957   6.803  0.7296  0.9931  0.2660
  163SAPE   H3S18300   0.418   5.885   6.662 -0.7831 -0.3907  0.4811
  163SAPE   C2418301   0.282   5.967   6.819 -0.0137  0.5345  0.4058
  163SAPE   H4R18302   0.185   5.953   6.765 -0.1970 -1.0231  1.0937
  163SAPE   H4S18303   0.265   6.061   6.877 -2.1420  1.8238 -2.0862
  163SAPE   C2518304   0.294   5.850   6.916  0.5620  0.5027  0.2341
  163SAPE   H5R18305   0.279   5.756   6.860 -1.4336  0.4408  0.7768
  163SAPE   C2618306   0.320   5.853   7.044  0.9450  0.6863  0.6674
  163SAPE   H6R18307   0.321   5.757   7.096  0.6189  0.4376  0.2303
  163SAPE   C2718308   0.349   5.968   7.132 -0.2497  0.4389 -0.4650
  163SAPE   H7R18309   0.254   5.987   7.185  0.1063 -0.7772  0.6742
  163SAPE   H7S18310   0.366   6.062   7.075 -1.4223  0.5739 -0.6023
  163SAPE   C2818311   0.450   5.945   7.240  0.3518  0.7140 -0.1638
  163SAPE   H8R18312   0.551   5.982   7.218  0.4605  0.3015 -0.3698
  163SAPE   C2918313   0.429   5.903   7.366  0.4002 -0.0949 -0.3664
  163SAPE   H9R18314   0.521   5.902   7.426 -0.6219  0.8727  1.2908
  163SAPE  C21018315   0.300   5.872   7.438  0.4441 -0.3919  0.7342
  163SAPE  H10R18316   0.310   5.774   7.488  1.3504 -0.6387  0.1057
  163SAPE  H10S18317   0.215   5.878   7.366 -0.1219  0.9281  1.4759
  163SAPE  C21118318   0.273   5.982   7.541  0.1350 -0.7635  0.5724
  163SAPE  H11R18319   0.295   6.086   7.512  0.6636 -0.7816  0.8926
  163SAPE  C21218320   0.239   5.951   7.664 -0.0365  0.1316 -0.1799
  163SAPE  H12R18321   0.226   6.038   7.731  2.0968  0.7122 -0.4310
  163SAPE  C21318322   0.200   5.818   7.725 -0.1659  0.4667  0.0687
  163SAPE  H13R18323   0.196   5.743   7.643  2.7568  1.5097 -1.1631
  163SAPE  H13S18324   0.100   5.824   7.772  0.1409  0.7842  0.6910
  163SAPE  C21418325   0.294   5.767   7.833 -0.3321  0.0300  0.3306
  163SAPE  H14R18326   0.399   5.801   7.830 -0.1450 -0.3172  1.9817
  163SAPE  C21518327   0.263   5.663   7.914  0.7289  1.1587 -0.3800
  163SAPE  H15R18328   0.331   5.635   7.996 -2.1093 -2.6229  1.0068
  163SAPE  C21618329   0.126   5.596   7.935  0.1037  0.5659 -0.0397
  163SAPE  H16R18330   0.146   5.489   7.912  1.4904  1.2563 -2.3553
  163SAPE  H16S18331   0.052   5.629   7.859  0.6222  1.4619 -0.1677
  163SAPE  C21718332   0.062   5.599   8.077 -0.4591  0.4062 -0.3158
  163SAPE  H17R18333   0.121   5.532   8.143 -1.4183  2.1095  2.4106
  163SAPE  H17S18334  -0.045   5.568   8.073 -0.2634 -0.2819 -3.4834
  163SAPE  C21818335   0.067   5.735   8.151  0.5242 -0.4110 -0.3312
  163SAPE  H18R18336   0.016   5.809   8.086  4.4165  3.5537  0.6513
  163SAPE  H18S18337   0.169   5.780   8.146  0.9733 -1.2337  0.8786
  163SAPE  C21918338   0.019   5.729   8.292  0.0789  0.4161  0.3146
  163SAPE  H19R18339   0.092   5.679   8.358  0.6267 -1.1050 -1.3935
  163SAPE  H19S18340  -0.080   5.678   8.293  0.9738 -1.5126 -2.0581
  163SAPE  C22018341  -0.010   5.863   8.359 -0.0428  0.0504  0.2053
  163SAPE  H20R18342  -0.013   5.845   8.468 -0.2259 -1.9735 -0.0854
  163SAPE  H20S18343  -0.109   5.898   8.323 -0.2278 -1.2839 -0.6506
  163SAPE  H20T18344   0.070   5.936   8.335  1.1917 -1.7498 -1.4512
  163SAPE   C3318345   0.966   6.351   6.519  0.2455 -0.8116  0.3632
  163SAPE   H3X18346   0.893   6.427   6.553 -1.9137 -0.0621 -4.8916
  163SAPE   H3Y18347   1.069   6.367   6.558  0.1585 -1.7445  0.9933
  163SAPE   C3418348   0.939   6.215   6.572  0.2308  0.3124  0.1584
  163SAPE   H4X18349   1.025   6.159   6.615 -0.7069 -1.8026 -0.5902
  163SAPE   H4Y18350   0.908   6.155   6.484 -3.3117 -0.2470  1.5782
  163SAPE   C3518351   0.816   6.197   6.663  0.1258 -0.9540  0.1561
  163SAPE   H5X18352   0.756   6.105   6.649 -2.3932  0.7308 -0.8152
  163SAPE   H5Y18353   0.754   6.286   6.638 -1.4617 -2.3992 -1.2250
  163SAPE   C3618354   0.868   6.206   6.802  0.1753  0.2035 -0.1364
  163SAPE   H6X18355   0.910   6.306   6.826 -1.3571  1.2731 -1.6744
  163SAPE   H6Y18356   0.954   6.135   6.797  0.9893  1.1758 -0.0559
  163SAPE   C3718357   0.775   6.157   6.913 -0.0279 -0.4911 -0.4579
  163SAPE   H7X18358   0.770   6.047   6.900  0.6823 -0.6841  0.6944
  163SAPE   H7Y18359   0.666   6.180   6.906 -0.3955 -0.4698  3.2146
  163SAPE   C3818360   0.822   6.195   7.057  1.1092  0.7511  0.1972
  163SAPE   H8X18361   0.823   6.305   7.076 -0.6571  0.6975  0.8055
  163SAPE   H8Y18362   0.926   6.158   7.055  1.2199  1.0890 -1.5836
  163SAPE   C3918363   0.735   6.138   7.175  0.2441 -0.0411  0.3707
  163SAPE   H9X18364   0.729   6.029   7.159 -2.7169 -0.1572  1.6514
  163SAPE   H9Y18365   0.632   6.177   7.161  0.7110  0.4875 -2.2141
  163SAPE  C31018366   0.785   6.180   7.312  0.2237 -0.3391 -0.1827
  163SAPE  H10X18367   0.799   6.290   7.318 -0.5298 -0.3189  1.7988
  163SAPE  H10Y18368   0.887   6.140   7.328  0.4547  0.2032 -0.2826
  163SAPE  C31118369   0.708   6.115   7.429  0.2514  0.1091 -0.2282
  163SAPE  H11X18370   0.713   6.004   7.421 -1.2912 -0.1988  2.0696
  163SAPE  H11Y18371   0.601   6.136   7.409  0.2963 -0.0336 -0.6343
  163SAPE  C31218372   0.735   6.158   7.571  0.5107 -0.0618  0.7260
  163SAPE  H12X18373   0.741   6.267   7.591  2.4858  0.3040 -1.4669
  163SAPE  H12Y18374   0.839   6.119   7.572  1.0822  0.8693 -3.6652
  163SAPE  C31318375   0.649   6.080   7.681  0.2187  0.7844 -0.3025
  163SAPE  H13X18376   0.657   5.969   7.675 -0.3671  0.7817 -1.4074
  163SAPE  H13Y18377   0.542   6.103   7.660 -0.4438  0.0844  2.0332
  163SAPE  C31418378   0.666   6.128   7.827  0.4332  0.2771 -0.0769
  163SAPE  H14X18379   0.657   6.238   7.840  1.6341  0.5541 -1.3654
  163SAPE  H14Y18380   0.772   6.106   7.851  0.3582 -1.7553 -1.3138
  163SAPE  C31518381   0.579   6.060   7.934 -0.0055 -0.0948 -0.1752
  163SAPE  H15X18382   0.625   6.096   8.028 -1.7615  0.1964  0.6247
  163SAPE  H15Y18383   0.573   5.950   7.924  1.0915 -0.4564  2.4862
  163SAPE  C31618384   0.434   6.104   7.943 -0.1816  0.4300 -1.4185
  163SAPE  H16X18385   0.373   6.062   7.860 -1.6778  0.1545 -0.2051
  163SAPE  H16Y18386   0.431   6.215   7.932  0.7824  0.5072 -1.0490
  163SAPE  C31718387   0.371   6.071   8.080 -0.4880  0.6355  0.2165
  163SAPE  H17X18388   0.408   6.132   8.165 -1.6696  1.2845  0.2823
  163SAPE  H17Y18389   0.390   5.961   8.084 -1.2992  0.3722 -1.9601
  163SAPE  C31818390   0.221   6.097   8.098  0.6515 -0.1667  0.8274
  163SAPE  H18X18391   0.191   6.084   8.205  1.0647  0.4101  1.0209
  163SAPE  H18Y18392   0.169   6.020   8.037  0.8988 -0.2444  0.7135
  163SAPE  H18Z18393   0.197   6.201   8.068 -0.7313 -1.0778 -1.4459
  164SAPE     N18394   4.138   2.139   5.977 -0.2494 -0.2117 -0.3273
  164SAPE   HN118395   4.093   2.231   5.964  0.7369  0.9541  3.2785
  164SAPE   HN218396   4.085   2.062   5.932 -0.8561 -0.9418  1.5490
  164SAPE   HN318397   4.117   2.111   6.075 -2.2534 -0.5277 -0.8214
  164SAPE   C1218398   4.288   2.127   5.974 -0.1287  0.1659  0.3954
  164SAPE  H12A18399   4.323   2.138   6.078  3.0144 -3.6457 -0.0193
  164SAPE  H12B18400   4.330   2.205   5.905 -2.7859  0.2219 -1.3029
  164SAPE   C1118401   4.334   1.989   5.925  0.7562  0.4642 -0.1902
  164SAPE  H11A18402   4.443   1.993   5.908  0.5176  1.3155 -1.6450
  164SAPE  H11B18403   4.297   1.969   5.822  1.5157  2.0213 -0.7920
  164SAPE     P18404   4.347   1.748   6.013 -0.1337  0.1052  0.0707
  164SAPE   O1318405   4.289   1.660   6.118 -0.1422 -0.3841  0.4252
  164SAPE   O1418406   4.329   1.693   5.880 -0.5400  0.3522  0.2017
  164SAPE   O1218407   4.296   1.894   6.027  0.3453 -0.4181  0.2598
  164SAPE   O1118408   4.503   1.761   6.038 -0.1506 -1.1028  0.3831
  164SAPE    C118409   4.564   1.865   6.119  0.1391  0.9219 -0.3660
  164SAPE    HA18410   4.619   1.940   6.058  1.5295  0.7349  0.5943
  164SAPE    HB18411   4.494   1.929   6.176  0.2080  0.4531  0.2678
  164SAPE    C218412   4.662   1.800   6.222 -0.7651  0.2168  0.0949
  164SAPE    HS18413   4.736   1.747   6.159 -0.5594 -0.2602  0.7205
  164SAPE   O2118414   4.576   1.711   6.307  0.4581 -0.1901 -0.7215
  164SAPE   C2118415   4.630   1.592   6.340  0.1443 -0.3998 -0.8621
  164SAPE   O2218416   4.740   1.558   6.313  0.0425  0.1323  0.2966
  164SAPE   C2218417   4.531   1.509   6.417  0.1117 -0.0454 -0.6898
  164SAPE   H2R18418   4.434   1.510   6.363 -0.3888 -0.7960  0.1823
  164SAPE   H2S18419   4.572   1.406   6.426  1.4167  0.5980  1.4689
  164SAPE    C318420   4.728   1.904   6.311 -0.0024  0.2250  0.2800
  164SAPE    HX18421   4.649   1.957   6.368 -2.5269 -1.4677 -1.4154
  164SAPE    HY18422   4.785   1.972   6.244 -0.4805 -0.3945 -0.7794
  164SAPE   O3118423   4.815   1.832   6.398  0.1024  0.4439  0.4712
  164SAPE   C3118424   4.869   1.905   6.492  0.2052  0.0478 -0.3990
  164SAPE   O3218425   4.844   2.019   6.524 -0.2516 -0.3651  0.5238
  164SAPE   C3218426   4.981   1.828   6.564 -0.2300  0.0041 -0.4005
  164SAPE   H2X18427   5.075   1.847   6.507 -1.1445  0.3795 -1.8150
  164SAPE   H2Y18428   4.958   1.719   6.564 -0.1987 -0.0025 -0.3743
  164SAPE   C2318429   4.507   1.570   6.560  0.8396 -0.0001 -0.2752
  164SAPE   H3R18430   4.427   1.646   6.548 -0.1727 -0.7207  1.5086
  164SAPE   H3S18431   4.600   1.624   6.587  0.8469 -0.9886  1.9279
  164SAPE   C2418432   4.465   1.480   6.671 -0.4070  0.1571  0.0817
  164SAPE   H4R18433   4.377   1.416   6.646 -0.3267 -1.7345  3.8760
  164SAPE   H4S18434   4.438   1.554   6.749 -1.1314 -2.1041  2.0915
  164SAPE   C2518435   4.584   1.398   6.718  0.0545  0.1047  0.6219
  164SAPE   H5R18436   4.613   1.315   6.652  1.5371  0.1812  1.1597
  164SAPE   C2618437   4.664   1.427   6.820  0.2063  0.0019  0.3888
  164SAPE   H6R18438   4.745   1.356   6.843 -2.6373 -3.0537  1.9343
  164SAPE   C2718439   4.651   1.543   6.920 -0.1261 -0.2392 -0.3049
  164SAPE   H7R18440   4.655   1.640   6.867  1.0944 -1.4839 -2.6519
  164SAPE   H7S18441   4.743   1.548   6.983 -0.1850  1.6787 -0.3102
  164SAPE   C2818442   4.526   1.550   7.004 -0.3329  0.4753 -0.4243
  164SAPE   H8R18443   4.438   1.588   6.949 -1.0224 -0.1227  0.2466
  164SAPE   C2918444   4.508   1.509   7.134 -0.1933  0.4732  0.6966
  164SAPE   H9R18445   4.406   1.516   7.176 -0.8214  0.4646 -0.7451
  164SAPE  C21018446   4.614   1.450   7.218  0.4799 -0.3288 -0.1137
  164SAPE  H10R18447   4.634   1.520   7.302  1.9865 -0.3859 -0.3959
  164SAPE  H10S18448   4.709   1.450   7.160 -0.0309 -0.1509 -0.9662
  164SAPE  C21118449   4.572   1.313   7.266 -0.2265  0.0100  0.7962
  164SAPE  H11R18450   4.534   1.253   7.182 -0.2252  1.4869 -0.2876
  164SAPE  C21218451   4.541   1.271   7.388  0.3203  0.6364  0.8248
  164SAPE  H12R18452   4.506   1.168   7.400 -0.3711  0.9809  1.8663
  164SAPE  C21318453   4.558   1.349   7.516  0.4902 -0.0816  0.1163
  164SAPE  H13R18454   4.619   1.438   7.494  1.7323 -1.2513 -1.3751
  164SAPE  H13S18455   4.621   1.297   7.592 -1.4678  1.8904  3.3481
  164SAPE  C21418456   4.429   1.370   7.593 -0.8331 -0.3099  0.6954
  164SAPE  H14R18457   4.350   1.408   7.527 -2.1619 -1.0024  1.8451
  164SAPE  C21518458   4.396   1.328   7.718  0.1490  0.1851  0.3369
  164SAPE  H15R18459   4.292   1.336   7.754  0.8262  2.4960  2.0043
  164SAPE  C21618460   4.487   1.258   7.822  0.1569  0.0231 -0.3794
  164SAPE  H16R18461   4.579   1.222   7.770  0.2931 -0.9439  0.5003
  164SAPE  H16S18462   4.446   1.161   7.857 -1.5365  0.2405 -1.6167
  164SAPE  C21718463   4.524   1.335   7.949  0.3502  0.5480 -0.1131
  164SAPE  H17R18464   4.434   1.386   7.989 -2.6565 -1.9522 -3.1103
  164SAPE  H17S18465   4.596   1.413   7.916  0.0092  1.1175  0.4660
  164SAPE  C21818466   4.589   1.255   8.059 -0.0368 -0.4844 -0.1225
  164SAPE  H18R18467   4.682   1.211   8.016 -0.1400 -0.9079  0.0873
  164SAPE  H18S18468   4.508   1.183   8.083 -0.0659 -0.5950 -0.5419
  164SAPE  C21918469   4.620   1.341   8.183  0.1496  0.5845 -0.7187
  164SAPE  H19R18470   4.681   1.280   8.252 -0.0101  2.6394  1.3608
  164SAPE  H19S18471   4.534   1.388   8.234  1.3269  2.3378 -0.2445
  164SAPE  C22018472   4.701   1.458   8.142  0.2413 -0.1021 -0.4555
  164SAPE  H20R18473   4.793   1.422   8.093 -0.9555 -2.4782 -1.1247
  164SAPE  H20S18474   4.725   1.503   8.241 -0.2591 -1.9070  0.5454
  164SAPE  H20T18475   4.637   1.530   8.087  0.1149  0.0828 -0.0783
  164SAPE   C3318476   5.001   1.870   6.713 -0.8224 -0.3079  0.3834
  164SAPE   H3X18477   5.012   1.980   6.725 -3.2662  0.1135 -0.5107
  164SAPE   H3Y18478   5.097   1.824   6.742 -0.7856  0.3222  1.2891
  164SAPE   C3418479   4.896   1.807   6.805  0.2907 -0.2472 -0.0316
  164SAPE   H4X18480   4.907   1.698   6.823  0.9273 -0.1623  0.1227
  164SAPE   H4Y18481   4.800   1.808   6.749  0.4038  2.7033 -0.3021
  164SAPE   C3518482   4.898   1.866   6.947  1.5260  0.1838  0.5591
  164SAPE   H5X18483   4.904   1.977   6.938 -1.8427  0.4633  0.3431
  164SAPE   H5Y18484   4.989   1.830   6.999  3.1635  0.1315 -2.2008
  164SAPE   C3618485   4.771   1.847   7.038 -0.2915 -0.3343 -0.0649
  164SAPE   H6X18486   4.777   1.739   7.065  1.8547 -0.9153 -2.5348
  164SAPE   H6Y18487   4.681   1.877   6.980  0.4632  1.2098 -0.4978
  164SAPE   C3718488   4.767   1.928   7.167 -0.1730  0.4289  0.6265
  164SAPE   H7X18489   4.733   2.029   7.134 -0.5319 -0.6264 -2.5236
  164SAPE   H7Y18490   4.874   1.935   7.198  0.8040 -1.4049 -1.9384
  164SAPE   C3818491   4.662   1.879   7.270 -0.4768  0.6342  0.1392
  164SAPE   H8X18492   4.673   1.768   7.263  0.7616  0.7185  0.5251
  164SAPE   H8Y18493   4.568   1.916   7.224  0.5372 -0.1079 -2.7362
  164SAPE   C3918494   4.700   1.924   7.411 -0.3373 -0.2952  0.4865
  164SAPE   H9X18495   4.733   2.030   7.405 -1.0084 -0.0917  0.3898
  164SAPE   H9Y18496   4.778   1.862   7.461 -0.6700 -1.6556 -0.6134
  164SAPE  C31018497   4.588   1.927   7.512 -0.4107 -0.1769 -0.3733
  164SAPE  H10X18498   4.497   1.970   7.464 -0.2423  1.0342  0.3597
  164SAPE  H10Y18499   4.624   2.000   7.587  2.5028 -0.2766 -1.5468
  164SAPE  C31118500   4.564   1.798   7.581 -0.0330  0.5076 -0.2949
  164SAPE  H11X18501   4.656   1.738   7.595 -1.6055 -2.7803 -2.7659
  164SAPE  H11Y18502   4.504   1.726   7.521 -1.7243  2.1542 -0.6961
  164SAPE  C31218503   4.509   1.823   7.729  0.2131  0.2615  0.0871
  164SAPE  H12X18504   4.420   1.758   7.734 -0.2364  0.8561 -0.1502
  164SAPE  H12Y18505   4.473   1.928   7.741 -0.4913  0.1120 -0.6824
  164SAPE  C31318506   4.609   1.782   7.838  0.5355 -0.2255 -0.5176
  164SAPE  H13X18507   4.689   1.859   7.831  0.4220 -0.1118 -0.5772
  164SAPE  H13Y18508   4.659   1.684   7.823 -0.8384 -1.0338  0.0600
  164SAPE  C31418509   4.539   1.799   7.974 -0.1084  0.2347  0.3296
  164SAPE  H14X18510   4.475   1.708   7.983 -1.4138  1.1146  0.2240
  164SAPE  H14Y18511   4.471   1.885   7.954  0.9163  0.7294 -1.1712
  164SAPE  C31518512   4.645   1.811   8.080  0.6234 -0.0452  0.0642
  164SAPE  H15X18513   4.694   1.909   8.064 -0.3915  0.6152  0.8709
  164SAPE  H15Y18514   4.717   1.733   8.047 -1.4603 -1.6588 -0.8781
  164SAPE  C31618515   4.582   1.808   8.218 -0.0560 -0.0349  0.2669
  164SAPE  H16X18516   4.513   1.721   8.227 -2.8438  1.7961 -1.5856
  164SAPE  H16Y18517   4.520   1.900   8.229  1.0567  0.7810 -0.1324
  164SAPE  C31718518   4.702   1.815   8.314  0.4239  0.0636 -0.2974
  164SAPE  H17X18519   4.785   1.755   8.271  0.1594  1.4112 -2.8452
  164SAPE  H17Y18520   4.672   1.756   8.404 -1.8327  2.4094  0.5976
  164SAPE  C31818521   4.747   1.958   8.349 -0.4078  0.1304 -0.5399
  164SAPE  H18X18522   4.825   1.964   8.428 -1.1949 -1.8392  0.4644
  164SAPE  H18Y18523   4.663   2.020   8.387  0.9244  2.2095 -0.8502
  164SAPE  H18Z18524   4.790   2.006   8.259  2.1980 -0.1537  0.4614
  165SAPE     N18525   6.180   5.782   6.132  0.2190  0.2242 -0.2179
  165SAPE   HN118526   6.273   5.754   6.095 -0.1643 -0.1839 -0.9076
  165SAPE   HN218527   6.179   5.883   6.156 -0.0466  0.2074 -0.1542
  165SAPE   HN318528   6.159   5.730   6.219 -0.0387 -1.6076 -1.3084
  165SAPE   C1218529   6.071   5.744   6.033 -1.2600  0.1361 -0.4232
  165SAPE  H12A18530   6.087   5.646   5.983 -1.9915  0.7114 -1.8536
  165SAPE  H12B18531   6.080   5.820   5.953 -1.6176  0.7499  0.1065
  165SAPE   C1118532   5.934   5.722   6.095 -0.7564 -0.2085  0.0391
  165SAPE  H11A18533   5.912   5.820   6.144  2.4888  1.6369 -1.8381
  165SAPE  H11B18534   5.938   5.638   6.167 -1.9878 -1.6311 -1.4910
  165SAPE     P18535   5.686   5.667   6.019 -0.3506  0.0436  0.0234
  165SAPE   O1318536   5.615   5.717   5.898  0.2262  0.2982 -0.1935
  165SAPE   O1418537   5.670   5.527   6.060  0.4409 -0.1984  0.2200
  165SAPE   O1218538   5.841   5.698   5.991  0.1500 -0.2999 -0.4066
  165SAPE   O1118539   5.650   5.757   6.143 -0.3686 -0.0851  0.5018
  165SAPE    C118540   5.522   5.748   6.209  0.4384  0.0666 -0.1669
  165SAPE    HA18541   5.466   5.843   6.191 -1.2927 -0.9802 -0.5658
  165SAPE    HB18542   5.461   5.664   6.171 -1.2157  1.9283 -1.8649
  165SAPE    C218543   5.540   5.738   6.363 -0.3530 -0.2048 -0.5320
  165SAPE    HS18544   5.606   5.824   6.387  1.3162 -1.1396 -1.5802
  165SAPE   O2118545   5.597   5.609   6.399  0.5782 -0.3395  0.6349
  165SAPE   C2118546   5.698   5.614   6.485  0.8341  0.4868  0.0869
  165SAPE   O2218547   5.744   5.715   6.531  0.2786  0.2249 -0.4741
  165SAPE   C2218548   5.756   5.473   6.499 -0.1241  0.5906  0.5308
  165SAPE   H2R18549   5.677   5.409   6.543 -0.4130 -0.1475 -0.9917
  165SAPE   H2S18550   5.761   5.427   6.398 -4.0078  1.6003 -0.2872
  165SAPE    C318551   5.416   5.762   6.451  0.8616 -0.5016  0.0181
  165SAPE    HX18552   5.356   5.674   6.420  1.6080 -1.1954  0.4876
  165SAPE    HY18553   5.361   5.853   6.418  0.0500 -2.2167 -3.8872
  165SAPE   O3118554   5.441   5.753   6.598 -0.1497 -0.5706  0.7268
  165SAPE   C3118555   5.485   5.864   6.649  0.6286  0.0120 -0.3502
  165SAPE   O3218556   5.501   5.972   6.590 -0.4432 -0.2146  0.2053
  165SAPE   C3218557   5.500   5.842   6.804  0.2375  0.4248  0.5196
  165SAPE   H2X18558   5.572   5.763   6.833 -0.7097 -0.7991 -0.3507
  165SAPE   H2Y18559   5.400   5.823   6.851 -0.4815 -2.6773 -1.9343
  165SAPE   C2318560   5.888   5.478   6.576 -0.3727  0.0703 -1.3312
  165SAPE   H3R18561   5.965   5.546   6.534  0.0568 -0.3485 -1.2315
  165SAPE   H3S18562   5.927   5.375   6.564 -1.7689 -0.7526  0.5708
  165SAPE   C2418563   5.879   5.505   6.726 -0.4250  0.1049  0.3395
  165SAPE   H4R18564   5.835   5.606   6.738  0.5631  0.6418 -0.4009
  165SAPE   H4S18565   5.981   5.521   6.766 -0.0036  0.4981 -0.8453
  165SAPE   C2518566   5.816   5.403   6.809 -0.1159 -0.2375  0.0671
  165SAPE   H5R18567   5.791   5.305   6.767  1.8353  0.3296 -2.6758
  165SAPE   C2618568   5.763   5.419   6.936  0.6031  0.5875 -0.3696
  165SAPE   H6R18569   5.718   5.328   6.977 -1.0349  1.1899 -0.7590
  165SAPE   C2718570   5.758   5.544   7.027 -0.5917  0.1209  0.2144
  165SAPE   H7R18571   5.655   5.580   7.046 -1.0482 -0.7873 -0.4858
  165SAPE   H7S18572   5.808   5.626   6.971 -0.9129  1.7128  2.1476
  165SAPE   C2818573   5.829   5.514   7.151 -0.7867 -0.0160  0.0835
  165SAPE   H8R18574   5.877   5.415   7.154  1.0276  0.8355  3.4991
  165SAPE   C2918575   5.845   5.588   7.258  0.2910  0.0898 -0.1125
  165SAPE   H9R18576   5.891   5.543   7.348 -0.9186  1.4162  1.2225
  165SAPE  C21018577   5.795   5.730   7.286  1.1658 -0.1221  0.4849
  165SAPE  H10R18578   5.686   5.739   7.303  1.0788  3.6742 -1.1386
  165SAPE  H10S18579   5.835   5.800   7.209  3.3556 -0.5850  1.1175
  165SAPE  C21118580   5.856   5.779   7.416 -0.9079 -0.6974 -0.6326
  165SAPE  H11R18581   5.935   5.854   7.404  2.0137 -3.4523 -0.0879
  165SAPE  C21218582   5.830   5.746   7.543  0.1303 -0.7237  0.3326
  165SAPE  H12R18583   5.886   5.796   7.623 -1.5263 -0.9572  1.6862
  165SAPE  C21318584   5.717   5.661   7.594 -0.1450  0.4113 -0.6151
  165SAPE  H13R18585   5.747   5.598   7.681 -0.6368 -0.8880 -1.3518
  165SAPE  H13S18586   5.680   5.586   7.521 -0.8457  0.8852 -0.7574
  165SAPE  C21418587   5.595   5.751   7.621 -0.7167 -0.1036 -0.0221
  165SAPE  H14R18588   5.568   5.824   7.543  0.6220  0.0839 -0.3369
  165SAPE  C21518589   5.518   5.730   7.728  0.5464 -0.0885  0.5600
  165SAPE  H15R18590   5.422   5.784   7.728 -0.5659 -1.9669  0.1458
  165SAPE  C21618591   5.523   5.613   7.820 -0.1905 -0.4725 -0.0741
  165SAPE  H16R18592   5.623   5.591   7.865  0.5158  0.7628 -0.9706
  165SAPE  H16S18593   5.479   5.521   7.776 -0.5126 -1.0418  1.3734
  165SAPE  C21718594   5.447   5.638   7.948 -0.4184  0.5951  0.8043
  165SAPE  H17R18595   5.340   5.666   7.935  0.0051  1.5522 -1.1257
  165SAPE  H17S18596   5.499   5.726   7.991  0.3755  0.5316  0.0089
  165SAPE  C21818597   5.458   5.520   8.040  0.3862 -0.1927  0.8834
  165SAPE  H18R18598   5.564   5.495   8.063  0.0479 -0.4298  2.2914
  165SAPE  H18S18599   5.428   5.426   7.990  2.5747 -1.7630  2.3702
  165SAPE  C21918600   5.384   5.542   8.176 -0.4367  0.4629 -0.0610
  165SAPE  H19R18601   5.280   5.575   8.158 -0.6325  0.0139  0.2314
  165SAPE  H19S18602   5.436   5.620   8.236  1.1160 -0.3852 -0.2546
  165SAPE  C22018603   5.373   5.411   8.258  0.2355 -0.1293 -0.1389
  165SAPE  H20R18604   5.324   5.436   8.354 -0.4724  1.8710 -0.9574
  165SAPE  H20S18605   5.469   5.355   8.264  0.2199 -0.1890 -0.3978
  165SAPE  H20T18606   5.291   5.353   8.210 -0.4168 -0.0300  0.8528
  165SAPE   C3318607   5.552   5.971   6.881  0.3297 -0.6059 -0.4945
  165SAPE   H3X18608   5.490   6.059   6.856 -0.8455 -1.6269 -1.3050
  165SAPE   H3Y18609   5.656   5.981   6.843 -0.9635 -0.8527 -4.5823
  165SAPE   C3418610   5.546   5.963   7.041  0.3357  0.6414  0.2623
  165SAPE   H4X18611   5.632   5.903   7.077  0.2180 -0.9531 -1.9324
  165SAPE   H4Y18612   5.456   5.908   7.076  1.7119 -2.6521 -0.9610
  165SAPE   C3518613   5.558   6.099   7.113  0.0692  0.6093 -0.0469
  165SAPE   H5X18614   5.481   6.172   7.079  0.6823  0.7048 -1.3195
  165SAPE   H5Y18615   5.654   6.144   7.080  0.4718 -0.0957  0.1456
  165SAPE   C3618616   5.557   6.083   7.263 -0.1847  0.1794 -0.4183
  165SAPE   H6X18617   5.646   6.025   7.295  1.1192  1.3602 -1.6966
  165SAPE   H6Y18618   5.468   6.023   7.289  0.2053  0.2503  1.1944
  165SAPE   C3718619   5.548   6.222   7.331 -0.4083  0.1030  0.0325
  165SAPE   H7X18620   5.449   6.271   7.324 -0.1889  0.7470  1.1660
  165SAPE   H7Y18621   5.623   6.294   7.292 -0.7275  0.6739  0.4523
  165SAPE   C3818622   5.576   6.198   7.481 -0.5231  0.5597 -0.8125
  165SAPE   H8X18623   5.675   6.149   7.493 -0.9338 -0.2191 -0.5481
  165SAPE   H8Y18624   5.494   6.145   7.533  2.4978 -1.2629  2.6260
  165SAPE   C3918625   5.572   6.328   7.562 -0.3738  0.5454 -0.8914
  165SAPE   H9X18626   5.470   6.373   7.559 -1.8723 -2.4506  0.7569
  165SAPE   H9Y18627   5.650   6.403   7.536 -1.9076  1.5075 -3.0716
  165SAPE  C31018628   5.603   6.304   7.713 -0.1987  0.3926  0.6773
  165SAPE  H10X18629   5.701   6.252   7.709  0.2803  1.3223 -1.1458
  165SAPE  H10Y18630   5.522   6.242   7.757 -0.7138  1.8898  1.9172
  165SAPE  C31118631   5.623   6.430   7.794  0.5546 -0.4141  0.3344
  165SAPE  H11X18632   5.526   6.485   7.791  0.6633 -0.0773  2.1898
  165SAPE  H11Y18633   5.703   6.501   7.764 -0.9444  1.2332  0.0690
  165SAPE  C31218634   5.631   6.403   7.943 -0.0941  0.7160  0.3913
  165SAPE  H12X18635   5.733   6.376   7.978 -0.8108  1.5056  3.4398
  165SAPE  H12Y18636   5.566   6.315   7.959  0.6117 -0.1117 -1.1062
  165SAPE  C31318637   5.592   6.520   8.029  0.1424  0.4424 -0.5342
  165SAPE  H13X18638   5.482   6.522   8.041  0.0503 -0.9132 -1.0389
  165SAPE  H13Y18639   5.634   6.616   7.992 -0.2586  1.5773  1.7643
  165SAPE  C31418640   5.648   6.501   8.173 -0.0625 -0.4704 -0.2141
  165SAPE  H14X18641   5.606   6.572   8.247 -2.8622 -2.6236  0.4109
  165SAPE  H14Y18642   5.758   6.513   8.186  0.3774 -2.1525 -1.9510
  165SAPE  C31518643   5.616   6.359   8.223  0.0460  0.2865  1.0084
  165SAPE  H15X18644   5.679   6.289   8.165  0.9399  0.1834  2.0650
  165SAPE  H15Y18645   5.508   6.359   8.196  0.1230  1.7553  0.6260
  165SAPE  C31618646   5.631   6.339   8.370  0.5120  0.1677  0.4623
  165SAPE  H16X18647   5.552   6.272   8.411 -1.0971  0.8775 -1.3211
  165SAPE  H16Y18648   5.593   6.432   8.418  0.0863  0.1010  0.2626
  165SAPE  C31718649   5.765   6.309   8.435 -0.7567  0.2479  0.5943
  165SAPE  H17X18650   5.747   6.307   8.545  0.2309 -0.7435  0.7643
  165SAPE  H17Y18651   5.843   6.385   8.415 -0.3705 -0.3394 -0.1924
  165SAPE  C31818652   5.824   6.184   8.377 -0.8902 -0.7380 -0.3547
  165SAPE  H18X18653   5.910   6.143   8.435  0.2925  0.4259 -1.2128
  165SAPE  H18Y18654   5.873   6.198   8.278  1.4829  2.5907  1.1160
  165SAPE  H18Z18655   5.754   6.098   8.366  0.2785 -1.8546  0.5352
  166SAPE     N18656   3.748   2.022   5.558 -0.4483 -0.0138  0.5656
  166SAPE   HN118657   3.846   2.012   5.524 -0.2454 -0.1769  1.1829
  166SAPE   HN218658   3.740   2.008   5.660 -0.4353 -1.4598  0.3922
  166SAPE   HN318659   3.697   1.948   5.505 -0.5938  0.9848 -0.7283
  166SAPE   C1218660   3.692   2.153   5.519 -0.7273  0.3515 -0.1708
  166SAPE  H12A18661   3.585   2.139   5.494 -0.5314  1.3406 -1.7554
  166SAPE  H12B18662   3.753   2.191   5.434 -1.2172 -0.3874 -0.8631
  166SAPE   C1118663   3.699   2.248   5.638  0.1131  1.0780 -0.4970
  166SAPE  H11A18664   3.623   2.214   5.710  0.1449 -0.1601 -1.0238
  166SAPE  H11B18665   3.659   2.348   5.613 -0.5658  1.4308  1.8443
  166SAPE     P18666   3.848   2.356   5.817  0.0674 -0.3438 -0.0030
  166SAPE   O1318667   3.972   2.326   5.888  0.5033  0.2566 -0.0813
  166SAPE   O1418668   3.844   2.490   5.755 -0.7027 -0.0356  0.0487
  166SAPE   O1218669   3.829   2.248   5.702  0.5804 -0.0988 -0.1281
  166SAPE   O1118670   3.724   2.333   5.912 -0.0499 -0.7037 -0.2224
  166SAPE    C118671   3.709   2.206   5.982  0.8121  0.3265  0.0725
  166SAPE    HA18672   3.617   2.149   5.957  1.3626 -0.8123  0.5666
  166SAPE    HB18673   3.803   2.147   5.988  0.7829  0.2188 -0.4347
  166SAPE    C218674   3.688   2.233   6.134 -0.5274  0.1287 -0.0680
  166SAPE    HS18675   3.655   2.140   6.186 -0.7725  0.6185  0.6590
  166SAPE   O2118676   3.579   2.322   6.159  0.0868 -0.2572 -0.4216
  166SAPE   C2118677   3.519   2.319   6.276  0.7944 -0.0163 -0.2732
  166SAPE   O2218678   3.528   2.229   6.358  0.1224 -0.2089 -0.0633
  166SAPE   C2218679   3.445   2.456   6.292  0.3536 -0.3696 -1.4182
  166SAPE   H2R18680   3.450   2.509   6.194  3.2317  0.1260 -1.0831
  166SAPE   H2S18681   3.338   2.438   6.318  0.2078  2.0033 -0.1076
  166SAPE    C318682   3.812   2.296   6.193  0.2848  0.2791 -0.0924
  166SAPE    HX18683   3.815   2.399   6.152  1.5969 -0.6849 -2.6417
  166SAPE    HY18684   3.898   2.229   6.169  1.2675  1.0594  1.1541
  166SAPE   O3118685   3.810   2.285   6.336  0.0487  0.0443  0.3352
  166SAPE   C3118686   3.919   2.326   6.394  0.2365  0.4004 -0.4513
  166SAPE   O3218687   4.003   2.397   6.339 -0.4542  0.0013  0.0161
  166SAPE   C3218688   3.916   2.275   6.536 -0.5353 -0.1030  0.5405
  166SAPE   H2X18689   3.936   2.165   6.535  0.4675  0.0541  1.5361
  166SAPE   H2Y18690   3.822   2.289   6.593 -1.2565 -0.6395 -0.4679
  166SAPE   C2318691   3.497   2.553   6.403 -0.2383  0.9607 -0.1399
  166SAPE   H3R18692   3.430   2.639   6.387 -1.9713 -0.3154 -0.0231
  166SAPE   H3S18693   3.605   2.571   6.383 -0.6688  3.8616 -0.1830
  166SAPE   C2418694   3.476   2.506   6.551 -1.1349 -0.5588 -0.5344
  166SAPE   H4R18695   3.522   2.405   6.562 -2.4441 -1.1757 -0.5535
  166SAPE   H4S18696   3.369   2.502   6.579 -0.4591 -0.4511  2.4428
  166SAPE   C2518697   3.548   2.597   6.642  0.2016  0.1778 -0.3085
  166SAPE   H5R18698   3.568   2.700   6.610  0.2151  0.3000  0.0932
  166SAPE   C2618699   3.581   2.566   6.773 -0.2923 -0.6426  0.1109
  166SAPE   H6R18700   3.634   2.638   6.837  0.1434  0.2367 -1.1851
  166SAPE   C2718701   3.550   2.431   6.824 -0.1157  0.2776  0.5581
  166SAPE   H7R18702   3.589   2.357   6.750 -3.5682 -1.6251  0.4347
  166SAPE   H7S18703   3.447   2.399   6.846 -0.0039 -0.5966 -0.1139
  166SAPE   C2818704   3.621   2.409   6.955  0.3580  0.1457  0.3339
  166SAPE   H8R18705   3.730   2.421   6.967  0.1383  0.5310  2.2685
  166SAPE   C2918706   3.580   2.357   7.069  0.0637 -0.1086 -0.4290
  166SAPE   H9R18707   3.653   2.339   7.149  0.0033  1.3872 -0.0167
  166SAPE  C21018708   3.440   2.314   7.106  0.0076 -0.5953  0.3510
  166SAPE  H10R18709   3.444   2.215   7.155  0.2693  0.9896  3.8132
  166SAPE  H10S18710   3.367   2.297   7.023 -2.6138  1.6030  2.0362
  166SAPE  C21118711   3.366   2.412   7.201  0.1387 -0.6810 -0.4739
  166SAPE  H11R18712   3.377   2.518   7.172  0.1558 -0.1231  1.4217
  166SAPE  C21218713   3.319   2.392   7.322 -0.0627  0.4756  0.1584
  166SAPE  H12R18714   3.285   2.479   7.379  2.7848  2.1063 -0.4537
  166SAPE  C21318715   3.319   2.258   7.399  0.0634  0.0526 -0.0437
  166SAPE  H13R18716   3.401   2.274   7.472  1.3379 -2.0555 -0.9367
  166SAPE  H13S18717   3.361   2.175   7.340  3.0340  0.6348  1.0973
  166SAPE  C21418718   3.190   2.219   7.469  0.4526  0.9370 -1.0340
  166SAPE  H14R18719   3.104   2.190   7.407 -2.2267  0.4414  2.5432
  166SAPE  C21518720   3.164   2.202   7.601 -0.0166  0.0689  0.4814
  166SAPE  H15R18721   3.059   2.191   7.632  0.3658  0.6315  2.0947
  166SAPE  C21618722   3.261   2.240   7.710  0.2719  0.5170 -0.2526
  166SAPE  H16R18723   3.212   2.236   7.810  1.3903 -0.2556  0.2837
  166SAPE  H16S18724   3.282   2.347   7.691  2.4752  0.2112  0.2466
  166SAPE  C21718725   3.394   2.162   7.712 -0.1323  1.2059 -0.1267
  166SAPE  H17R18726   3.482   2.226   7.735  0.6273 -0.2675  1.2571
  166SAPE  H17S18727   3.423   2.116   7.615  2.6758  0.4648  0.9553
  166SAPE  C21818728   3.400   2.043   7.810  0.0191 -0.0095  0.5187
  166SAPE  H18R18729   3.301   1.993   7.814  0.0539 -0.0355  1.4575
  166SAPE  H18S18730   3.422   2.084   7.911  0.6196 -0.5717  0.6212
  166SAPE  C21918731   3.500   1.941   7.765  0.1291 -0.0285 -1.1760
  166SAPE  H19R18732   3.581   1.992   7.709 -1.0778  0.6653 -2.3218
  166SAPE  H19S18733   3.454   1.872   7.691 -0.6619 -1.6384  0.7163
  166SAPE  C22018734   3.551   1.863   7.881 -0.2190  0.3329 -0.4934
  166SAPE  H20R18735   3.477   1.788   7.915 -0.9968  1.3345  0.0651
  166SAPE  H20S18736   3.585   1.932   7.961  2.0603 -3.6076  2.2991
  166SAPE  H20T18737   3.639   1.802   7.852 -1.3328 -2.2227  1.1797
  166SAPE   C3318738   4.031   2.334   6.617  0.5477 -0.1769 -0.8403
  166SAPE   H3X18739   4.030   2.444   6.597 -2.9388  0.2094  0.6699
  166SAPE   H3Y18740   4.121   2.281   6.581  0.2258 -1.5995  0.3441
  166SAPE   C3418741   4.015   2.290   6.769 -0.3418  0.3413 -0.1559
  166SAPE   H4X18742   4.016   2.181   6.791 -1.0804  0.5400  0.9229
  166SAPE   H4Y18743   3.913   2.325   6.799  0.2806 -0.5004  3.4102
  166SAPE   C3518744   4.126   2.347   6.853  0.1239  0.5907 -0.3899
  166SAPE   H5X18745   4.128   2.458   6.854  2.0083  0.5845 -0.0098
  166SAPE   H5Y18746   4.224   2.322   6.809  0.0152 -1.4361  0.4140
  166SAPE   C3618747   4.112   2.311   7.004 -0.0913  0.4998  0.0034
  166SAPE   H6X18748   4.143   2.208   7.029  1.9834  1.1164  0.1722
  166SAPE   H6Y18749   4.010   2.337   7.038 -0.9598 -0.8196 -1.5092
  166SAPE   C3718750   4.211   2.402   7.082  0.3797 -0.1249 -0.2200
  166SAPE   H7X18751   4.183   2.509   7.070  3.1176  0.4319 -2.6914
  166SAPE   H7Y18752   4.314   2.400   7.040 -0.9005  0.1136 -3.6831
  166SAPE   C3818753   4.217   2.356   7.220 -0.4169  0.0723 -0.8743
  166SAPE   H8X18754   4.259   2.254   7.232 -1.5090 -0.2980 -0.0108
  166SAPE   H8Y18755   4.113   2.343   7.258  0.3354 -1.7426  0.7320
  166SAPE   C3918756   4.278   2.456   7.319 -0.0380  0.6163  0.4052
  166SAPE   H9X18757   4.212   2.545   7.321 -0.3178  0.4074  0.4563
  166SAPE   H9Y18758   4.383   2.481   7.291  0.1183 -1.0838 -0.6795
  166SAPE  C31018759   4.283   2.399   7.465  0.0665 -0.1518  0.0709
  166SAPE  H10X18760   4.183   2.367   7.501 -0.4076 -0.6256 -1.5713
  166SAPE  H10Y18761   4.309   2.489   7.526  0.0293 -0.2380  0.2150
  166SAPE  C31118762   4.391   2.295   7.492  0.1364 -0.2191  0.7341
  166SAPE  H11X18763   4.485   2.336   7.447 -0.6658  0.3150 -0.5088
  166SAPE  H11Y18764   4.371   2.196   7.445  1.5869 -0.7018  1.0651
  166SAPE  C31218765   4.417   2.269   7.642 -0.1925 -0.2741  0.9599
  166SAPE  H12X18766   4.450   2.364   7.689  2.1577 -0.4097 -0.2913
  166SAPE  H12Y18767   4.502   2.198   7.647 -1.0572 -1.4330 -0.2013
  166SAPE  C31318768   4.316   2.188   7.730  0.3680 -0.3549  0.8044
  166SAPE  H13X18769   4.306   2.081   7.701  0.2897 -0.0952 -0.1574
  166SAPE  H13Y18770   4.218   2.236   7.708  1.8231  1.8472 -1.4760
  166SAPE  C31418771   4.352   2.200   7.878  0.0773 -0.5512  0.4293
  166SAPE  H14X18772   4.351   2.307   7.908  0.6463 -0.2199 -0.6711
  166SAPE  H14Y18773   4.453   2.159   7.898 -0.3136 -1.0851  1.3844
  166SAPE  C31518774   4.258   2.121   7.968 -0.0355 -0.1816 -0.0824
  166SAPE  H15X18775   4.264   2.013   7.940  0.4062  0.3156 -2.0589
  166SAPE  H15Y18776   4.153   2.159   7.961 -0.2273 -0.7178 -0.1878
  166SAPE  C31618777   4.308   2.136   8.116 -0.5826  0.6000  0.3398
  166SAPE  H16X18778   4.319   2.244   8.139  0.4720  0.7798 -0.9336
  166SAPE  H16Y18779   4.412   2.096   8.121 -0.6205  0.5622  0.8915
  166SAPE  C31718780   4.218   2.074   8.223 -0.8263  0.4755  0.2264
  166SAPE  H17X18781   4.208   1.969   8.185  0.6287  0.2780  0.3516
  166SAPE  H17Y18782   4.121   2.128   8.233 -0.4934  1.2036 -0.3883
  166SAPE  C31818783   4.295   2.077   8.361  0.6251 -0.5364 -0.3647
  166SAPE  H18X18784   4.377   2.002   8.359 -0.6236 -1.9390 -0.7702
  166SAPE  H18Y18785   4.234   2.057   8.452  1.2259 -1.2807 -0.1180
  166SAPE  H18Z18786   4.340   2.178   8.374 -1.5199  0.4257  0.1809
  167SAPE     N18787   5.307   1.400   6.210  0.2111 -0.8400  0.6199
  167SAPE   HN118788   5.325   1.486   6.267  1.9887  0.5886 -1.9158
  167SAPE   HN218789   5.222   1.420   6.155  0.3030  1.4249  1.2055
  167SAPE   HN318790   5.294   1.318   6.273  0.5467 -0.9369  0.5665
  167SAPE   C1218791   5.438   1.394   6.134  0.6801  0.5166 -0.5831
  167SAPE  H12A18792   5.462   1.496   6.095 -2.3275  1.1377 -1.0331
  167SAPE  H12B18793   5.414   1.325   6.050  0.0895  1.7041 -1.4152
  167SAPE   C1118794   5.557   1.338   6.219  0.3105 -0.4615  0.5845
  167SAPE  H11A18795   5.647   1.323   6.156 -1.0238 -0.8738 -1.3111
  167SAPE  H11B18796   5.526   1.236   6.251 -0.3039  0.1477  2.0113
  167SAPE     P18797   5.696   1.518   6.348  0.1884 -0.1911  0.5009
  167SAPE   O1318798   5.814   1.437   6.321 -0.6159  0.4875 -0.1777
  167SAPE   O1418799   5.674   1.631   6.251  0.2452  0.1012 -0.0681
  167SAPE   O1218800   5.576   1.425   6.335  0.3075  0.3385  0.0469
  167SAPE   O1118801   5.706   1.571   6.494  0.2319  0.1071  0.2391
  167SAPE    C118802   5.595   1.543   6.582  0.5216  0.5367  0.6253
  167SAPE    HA18803   5.495   1.565   6.538  1.5206 -1.2510 -2.9272
  167SAPE    HB18804   5.590   1.437   6.615 -0.2048  0.3122 -0.1735
  167SAPE    C218805   5.603   1.631   6.706 -0.3177  0.2539  0.2007
  167SAPE    HS18806   5.617   1.734   6.667 -3.7263  0.0357 -2.0523
  167SAPE   O2118807   5.698   1.589   6.803 -0.4656 -0.6514 -0.6373
  167SAPE   C2118808   5.778   1.681   6.862  0.5131 -0.2994 -0.3069
  167SAPE   O2218809   5.776   1.801   6.843  0.1561 -0.2986  0.2256
  167SAPE   C2218810   5.873   1.626   6.965 -0.6044  0.2192  0.1055
  167SAPE   H2R18811   5.972   1.623   6.913 -1.3350 -0.4668 -1.3051
  167SAPE   H2S18812   5.885   1.703   7.044  2.4007  0.8168 -0.7862
  167SAPE    C318813   5.466   1.636   6.769  0.1624 -0.3587  0.1375
  167SAPE    HX18814   5.439   1.534   6.805 -0.6526 -0.0583  0.3857
  167SAPE    HY18815   5.389   1.666   6.694  0.9214 -1.2558 -1.0538
  167SAPE   O3118816   5.469   1.724   6.882 -0.2507 -0.5926  0.2653
  167SAPE   C3118817   5.432   1.849   6.868  0.0188  0.0550  0.0087
  167SAPE   O3218818   5.390   1.901   6.766 -0.1748 -0.1604  0.1666
  167SAPE   C3218819   5.430   1.918   7.005 -0.0961  0.4745  0.0097
  167SAPE   H2X18820   5.456   2.024   6.982  0.8367 -0.2320 -2.4816
  167SAPE   H2Y18821   5.501   1.867   7.074 -1.6120 -0.1309  1.1891
  167SAPE   C2318822   5.837   1.486   7.016  0.0001  0.2275  0.0809
  167SAPE   H3R18823   5.929   1.435   7.053 -0.6769 -0.0455  1.4699
  167SAPE   H3S18824   5.818   1.418   6.931 -0.0622  0.1426  0.1632
  167SAPE   C2418825   5.739   1.482   7.135 -0.3634  0.1586  0.8486
  167SAPE   H4R18826   5.716   1.374   7.147  1.2147 -0.4016 -0.7578
  167SAPE   H4S18827   5.653   1.534   7.089  0.4290  0.4443 -0.3385
  167SAPE   C2518828   5.788   1.541   7.261  0.3712  0.2175 -0.5256
  167SAPE   H5R18829   5.878   1.484   7.291 -0.4307 -1.3208 -0.9697
  167SAPE   C2618830   5.738   1.651   7.325 -1.3040  0.5531 -0.0888
  167SAPE   H6R18831   5.784   1.680   7.421  0.2062 -1.9683  0.0545
  167SAPE   C2718832   5.621   1.734   7.278  0.5898  0.8902 -0.0479
  167SAPE   H7R18833   5.606   1.701   7.172 -1.0903  1.3737  0.0069
  167SAPE   H7S18834   5.648   1.842   7.278 -3.4450  2.0808 -1.1874
  167SAPE   C2818835   5.495   1.700   7.361 -0.1169 -0.0497  0.1279
  167SAPE   H8R18836   5.433   1.611   7.339  1.7269 -1.1957 -0.6978
  167SAPE   C2918837   5.452   1.778   7.462 -0.0915  0.3508 -0.4810
  167SAPE   H9R18838   5.365   1.745   7.520  1.0326 -2.4012 -0.2225
  167SAPE  C21018839   5.517   1.902   7.516 -0.2382  0.1929 -0.6138
  167SAPE  H10R18840   5.438   1.976   7.542 -0.3574  0.0589 -0.5961
  167SAPE  H10S18841   5.592   1.955   7.453  0.2634  1.6253  1.0810
  167SAPE  C21118842   5.590   1.858   7.640 -0.0798  0.3505 -0.2376
  167SAPE  H11R18843   5.678   1.793   7.627 -1.1686 -1.6506  1.8015
  167SAPE  C21218844   5.556   1.879   7.770 -0.3784 -0.0389  0.2636
  167SAPE  H12R18845   5.623   1.840   7.848  0.7869  3.0358  0.9463
  167SAPE  C21318846   5.421   1.939   7.812  0.0808 -0.1855 -0.4969
  167SAPE  H13R18847   5.397   1.908   7.916 -1.9326 -0.4222 -0.9876
  167SAPE  H13S18848   5.331   1.908   7.754  0.4156 -0.0216 -1.1147
  167SAPE  C21418849   5.434   2.091   7.799  0.9611 -0.0484  0.5403
  167SAPE  H14R18850   5.527   2.123   7.749  1.5617  1.3629  2.4357
  167SAPE  C21518851   5.369   2.186   7.865 -0.1349 -0.3961 -0.2396
  167SAPE  H15R18852   5.377   2.288   7.826 -0.8709  0.0505  0.7429
  167SAPE  C21618853   5.241   2.160   7.950 -0.2289 -0.3950  0.5105
  167SAPE  H16R18854   5.206   2.054   7.941 -1.0057 -0.0654 -0.4942
  167SAPE  H16S18855   5.153   2.206   7.901 -1.2536 -1.5885  1.1715
  167SAPE  C21718856   5.252   2.204   8.089 -1.2212  0.2369 -1.0353
  167SAPE  H17R18857   5.298   2.305   8.095 -3.0826  1.1482 -1.3845
  167SAPE  H17S18858   5.325   2.138   8.141 -3.2596 -0.4205  1.2207
  167SAPE  C21818859   5.125   2.198   8.162  0.4055 -0.3325 -0.7036
  167SAPE  H18R18860   5.090   2.097   8.132  0.5937 -0.9167  0.9303
  167SAPE  H18S18861   5.044   2.264   8.124  1.2358  1.7955  0.9900
  167SAPE  C21918862   5.151   2.213   8.320 -0.5373 -0.3595  0.2453
  167SAPE  H19R18863   5.172   2.319   8.344  3.6138 -0.3709 -2.4109
  167SAPE  H19S18864   5.240   2.155   8.351 -0.8811 -0.8067  0.4080
  167SAPE  C22018865   5.030   2.164   8.396 -0.1801 -0.6968  0.6286
  167SAPE  H20R18866   5.032   2.055   8.375  0.0385 -0.1701 -2.5554
  167SAPE  H20S18867   4.941   2.215   8.353  1.4780  2.8149  1.0369
  167SAPE  H20T18868   5.030   2.179   8.506 -2.0209  0.7493  0.4855
  167SAPE   C3318869   5.294   1.926   7.078  0.1811  0.3415  0.0811
  167SAPE   H3X18870   5.263   1.820   7.092  0.2454  0.5783  2.5565
  167SAPE   H3Y18871   5.222   1.981   7.014  1.3236  0.2519 -1.3371
  167SAPE   C3418872   5.297   1.993   7.215  0.5962 -0.8526 -0.1866
  167SAPE   H4X18873   5.362   2.083   7.209  0.3343 -0.5656  1.0066
  167SAPE   H4Y18874   5.349   1.937   7.295 -0.3638 -2.0548 -0.3768
  167SAPE   C3518875   5.158   2.021   7.266  0.0709 -0.3388  0.4834
  167SAPE   H5X18876   5.087   1.936   7.271 -0.5898  0.0094 -2.0277
  167SAPE   H5Y18877   5.103   2.094   7.204 -0.4173  0.5967  1.9534
  167SAPE   C3618878   5.167   2.078   7.413 -0.5823 -0.0721 -0.0010
  167SAPE   H6X18879   5.220   2.174   7.434 -1.9989  0.5450  0.9466
  167SAPE   H6Y18880   5.237   2.002   7.453  2.2687  0.9174 -2.7288
  167SAPE   C3718881   5.031   2.067   7.473 -0.7151  1.1457 -0.3239
  167SAPE   H7X18882   5.007   1.959   7.479  1.3864  0.6916  0.7839
  167SAPE   H7Y18883   4.958   2.112   7.403 -0.7332  1.1873 -0.2776
  167SAPE   C3818884   5.013   2.123   7.619 -0.3174 -0.0176  0.0300
  167SAPE   H8X18885   5.043   2.230   7.622  1.1635 -0.3766 -1.0842
  167SAPE   H8Y18886   5.076   2.071   7.694 -2.2899 -1.1748  0.9726
  167SAPE   C3918887   4.881   2.095   7.680 -0.0972  0.1715 -0.1055
  167SAPE   H9X18888   4.853   1.991   7.705  0.3966  0.2970  1.0245
  167SAPE   H9Y18889   4.806   2.138   7.610  1.7421  0.4510 -1.9829
  167SAPE  C31018890   4.876   2.184   7.811  0.6915 -0.1025 -0.1868
  167SAPE  H10X18891   4.892   2.289   7.782  1.1018  0.3651  1.6106
  167SAPE  H10Y18892   4.956   2.154   7.882  1.6985  1.1794 -0.7549
  167SAPE  C31118893   4.744   2.157   7.886  0.1101  0.9751  0.5302
  167SAPE  H11X18894   4.733   2.047   7.898  0.1780  0.8577 -0.3936
  167SAPE  H11Y18895   4.649   2.201   7.849 -0.5789 -0.8337  0.0686
  167SAPE  C31218896   4.750   2.207   8.034 -0.2508 -0.3719 -0.4827
  167SAPE  H12X18897   4.851   2.178   8.070 -0.8184 -2.4111 -0.4158
  167SAPE  H12Y18898   4.682   2.147   8.099 -0.4093  1.3571  1.0615
  167SAPE  C31318899   4.702   2.355   8.058 -0.3037  0.0701  0.2729
  167SAPE  H13X18900   4.596   2.364   8.028 -0.1073  3.1594  0.1781
  167SAPE  H13Y18901   4.758   2.427   7.995  1.6410 -2.7275 -1.4299
  167SAPE  C31418902   4.712   2.401   8.205  0.3024 -0.2674 -0.2921
  167SAPE  H14X18903   4.695   2.510   8.215  0.1507 -0.4620  2.0738
  167SAPE  H14Y18904   4.817   2.377   8.235  0.8311  0.9940 -1.0889
  167SAPE  C31518905   4.624   2.320   8.302 -0.2991  0.2086 -0.1828
  167SAPE  H15X18906   4.655   2.214   8.288  0.6182  0.5738 -1.0048
  167SAPE  H15Y18907   4.518   2.331   8.271  0.2333 -2.0871 -3.3045
  167SAPE  C31618908   4.650   2.361   8.451  0.0122  0.3439  0.2814
  167SAPE  H16X18909   4.615   2.466   8.455  1.2724  0.7632  0.6364
  167SAPE  H16Y18910   4.760   2.351   8.460 -0.0017  0.8656  1.1946
  167SAPE  C31718911   4.574   2.263   8.549 -0.5544  0.2462  0.3963
  167SAPE  H17X18912   4.612   2.162   8.522 -0.6297  0.7909 -1.9953
  167SAPE  H17Y18913   4.466   2.260   8.524 -0.4490 -2.0315  0.0155
  167SAPE  C31818914   4.594   2.298   8.696 -0.7368  0.4145 -0.5181
  167SAPE  H18X18915   4.525   2.231   8.752 -0.5653 -1.9503 -2.9336
  167SAPE  H18Y18916   4.567   2.404   8.713  1.7856  0.8909  0.9602
  167SAPE  H18Z18917   4.696   2.277   8.734 -0.4367 -1.1119 -1.9998
  168SAPE     N18918   5.670   2.953   6.140 -0.1803 -0.1948  0.5004
  168SAPE   HN118919   5.694   3.050   6.111  1.9412 -0.2992  1.6633
  168SAPE   HN218920   5.586   2.935   6.083  0.7751 -1.1609 -0.6537
  168SAPE   HN318921   5.641   2.957   6.240  0.4245 -0.2010  0.6818
  168SAPE   C1218922   5.789   2.858   6.126  0.3763  0.2418  0.3070
  168SAPE  H12A18923   5.882   2.919   6.121  1.0151 -0.7819 -0.6946
  168SAPE  H12B18924   5.769   2.790   6.041  1.6715 -0.8739  0.8672
  168SAPE   C1118925   5.797   2.766   6.256 -0.7633 -0.0235  0.4073
  168SAPE  H11A18926   5.817   2.818   6.353 -0.8517  1.3898 -0.3008
  168SAPE  H11B18927   5.882   2.696   6.244 -1.8888 -1.0777 -1.8711
  168SAPE     P18928   5.633   2.564   6.202 -0.3389 -0.1520 -0.1494
  168SAPE   O1318929   5.624   2.584   6.056  0.3202 -0.1602 -0.4843
  168SAPE   O1418930   5.724   2.455   6.247  0.1063  0.0261 -0.2164
  168SAPE   O1218931   5.683   2.690   6.275  0.7232  0.4016  0.2663
  168SAPE   O1118932   5.493   2.538   6.256  0.1685  0.0383 -0.2349
  168SAPE    C118933   5.477   2.506   6.398  0.1072  0.0510  0.7190
  168SAPE    HA18934   5.563   2.534   6.463  0.9258 -0.0809 -0.2773
  168SAPE    HB18935   5.393   2.575   6.418  0.6250  1.6505 -2.0646
  168SAPE    C218936   5.424   2.367   6.427 -0.7480  1.1105  0.3913
  168SAPE    HS18937   5.393   2.323   6.329  2.2375 -1.8541  0.5932
  168SAPE   O2118938   5.306   2.373   6.508  0.4623  0.1492  0.3977
  168SAPE   C2118939   5.246   2.254   6.536 -0.6472  0.6670 -0.0057
  168SAPE   O2218940   5.259   2.155   6.470 -0.6235  1.2625 -0.4219
  168SAPE   C2218941   5.153   2.267   6.655  0.1910  0.0343 -0.1520
  168SAPE   H2R18942   5.093   2.360   6.664  2.4922  1.6420 -0.6191
  168SAPE   H2S18943   5.075   2.190   6.638  0.3149 -0.1737  0.2204
  168SAPE    C318944   5.533   2.277   6.495 -0.0161  0.3538 -0.1543
  168SAPE    HX18945   5.616   2.261   6.422 -0.2274 -0.3558 -0.2452
  168SAPE    HY18946   5.500   2.172   6.513  0.4756  0.5690  2.3326
  168SAPE   O3118947   5.579   2.329   6.617 -0.1072 -0.1663 -0.6031
  168SAPE   C3118948   5.675   2.264   6.670  0.2730  0.6003  0.6188
  168SAPE   O3218949   5.712   2.146   6.640 -0.1070  0.2496  0.3175
  168SAPE   C3218950   5.716   2.335   6.794  0.0378  0.0750  0.6337
  168SAPE   H2X18951   5.667   2.435   6.799 -3.4199 -1.2696 -1.9717
  168SAPE   H2Y18952   5.825   2.352   6.793  0.5484 -2.6163 -0.7228
  168SAPE   C2318953   5.222   2.223   6.792  0.3574  0.5803  0.1689
  168SAPE   H3R18954   5.277   2.130   6.770  0.4163  1.0140 -1.6516
  168SAPE   H3S18955   5.137   2.196   6.859 -0.1665  1.2759 -0.2030
  168SAPE   C2418956   5.302   2.340   6.855  0.3490 -0.7912  0.1967
  168SAPE   H4R18957   5.375   2.386   6.785 -1.6034  0.7034 -0.9806
  168SAPE   H4S18958   5.357   2.304   6.945  0.5076  2.4382  1.5300
  168SAPE   C2518959   5.216   2.455   6.889  0.2468 -0.2554  0.5668
  168SAPE   H5R18960   5.206   2.526   6.806 -0.2146  0.3173  1.1064
  168SAPE   C2618961   5.176   2.496   7.013 -0.3261  0.5885  0.5930
  168SAPE   H6R18962   5.139   2.599   7.020 -0.8933  0.5307 -1.0987
  168SAPE   C2718963   5.207   2.419   7.139 -0.3248 -0.1650 -0.0373
  168SAPE   H7R18964   5.310   2.447   7.171 -0.0427 -1.4509  0.2459
  168SAPE   H7S18965   5.205   2.310   7.118  2.1214 -0.2146 -0.3079
  168SAPE   C2818966   5.119   2.443   7.253  0.0066 -0.3109 -0.6255
  168SAPE   H8R18967   5.012   2.434   7.232 -0.2171 -1.1965  0.7370
  168SAPE   C2918968   5.166   2.477   7.384  1.0188 -0.1329  0.1374
  168SAPE   H9R18969   5.084   2.492   7.455 -1.1650 -1.1862 -2.0025
  168SAPE  C21018970   5.311   2.485   7.427 -0.3189 -0.8754  0.0172
  168SAPE  H10R18971   5.376   2.418   7.366  2.8644 -0.0271  2.2324
  168SAPE  H10S18972   5.325   2.445   7.529  1.2113  0.5981  0.4253
  168SAPE  C21118973   5.361   2.627   7.420 -0.6797  0.0479  0.3774
  168SAPE  H11R18974   5.351   2.684   7.326 -1.0272 -2.3832 -1.1553
  168SAPE  C21218975   5.418   2.692   7.523 -0.0776  0.1217  0.0492
  168SAPE  H12R18976   5.455   2.793   7.502 -0.5747  0.5320  1.0934
  168SAPE  C21318977   5.433   2.649   7.663 -0.0044  0.5182 -0.2274
  168SAPE  H13R18978   5.515   2.574   7.667  0.6787  1.0465 -2.7356
  168SAPE  H13S18979   5.339   2.594   7.687  1.6187 -2.7293 -0.7303
  168SAPE  C21418980   5.461   2.763   7.758 -0.1410 -0.4261  0.0291
  168SAPE  H14R18981   5.469   2.861   7.707 -0.5336  0.3234  1.3572
  168SAPE  C21518982   5.477   2.752   7.893  0.0260  0.0870 -0.2464
  168SAPE  H15R18983   5.483   2.842   7.955 -0.3221 -0.4866  0.6485
  168SAPE  C21618984   5.464   2.627   7.970 -0.5689  0.0376 -0.4116
  168SAPE  H16R18985   5.562   2.597   8.013  1.3610  1.7581 -3.2801
  168SAPE  H16S18986   5.423   2.543   7.912 -3.2382  1.5534 -0.8938
  168SAPE  C21718987   5.360   2.644   8.079 -0.0607  0.1653  0.0409
  168SAPE  H17R18988   5.403   2.712   8.155  1.4740 -1.9194  1.1597
  168SAPE  H17S18989   5.355   2.547   8.132  2.0481  0.8943  1.7175
  168SAPE  C21818990   5.219   2.692   8.038 -0.5948  0.2973 -0.3315
  168SAPE  H18R18991   5.233   2.774   7.964 -0.5186  0.7325  0.1529
  168SAPE  H18S18992   5.172   2.721   8.135  0.7099 -0.1127  0.4541
  168SAPE  C21918993   5.130   2.579   7.981 -0.2966 -0.3377 -0.1794
  168SAPE  H19R18994   5.114   2.504   8.062  0.4789 -1.2186 -0.8177
  168SAPE  H19S18995   5.183   2.532   7.895 -1.0228 -1.1734 -0.1797
  168SAPE  C22018996   4.997   2.623   7.919 -0.2601 -0.3169 -0.9043
  168SAPE  H20R18997   5.013   2.691   7.833  0.2543  1.2644  0.3847
  168SAPE  H20S18998   4.952   2.680   8.003  2.0453 -0.8554  0.7935
  168SAPE  H20T18999   4.937   2.532   7.894  0.2371 -1.3372  1.3434
  168SAPE   C3319000   5.680   2.247   6.920  0.3657  0.0813 -0.0774
  168SAPE   H3X19001   5.733   2.149   6.917 -1.3005 -0.9320  1.4377
  168SAPE   H3Y19002   5.571   2.229   6.918  0.1799  1.1867 -1.5963
  168SAPE   C3419003   5.723   2.321   7.050 -0.4728  0.4610  0.6371
  168SAPE   H4X19004   5.681   2.424   7.053  0.7255  0.9417  1.8952
  168SAPE   H4Y19005   5.831   2.324   7.025 -0.7861  1.3595 -0.7859
  168SAPE   C3519006   5.682   2.243   7.177 -0.3236  0.2662 -0.1947
  168SAPE   H5X19007   5.717   2.139   7.156 -0.0060  0.5777 -1.2742
  168SAPE   H5Y19008   5.571   2.245   7.184 -0.2464 -0.6600  2.2670
  168SAPE   C3619009   5.752   2.294   7.301  0.2646  0.4787  0.2122
  168SAPE   H6X19010   5.761   2.405   7.297  2.1415  0.3292 -1.3062
  168SAPE   H6Y19011   5.856   2.256   7.312 -0.4842 -1.5996  0.6543
  168SAPE   C3719012   5.683   2.272   7.441 -0.2134 -0.1441  0.4645
  168SAPE   H7X19013   5.708   2.166   7.461  2.2133  0.2218 -0.2573
  168SAPE   H7Y19014   5.575   2.295   7.441  0.1804  1.9265  0.6862
  168SAPE   C3819015   5.738   2.368   7.547 -0.3820  0.4061 -0.3382
  168SAPE   H8X19016   5.714   2.475   7.527  2.4437  1.5348  1.6073
  168SAPE   H8Y19017   5.848   2.363   7.534  0.2209  2.0115  3.0083
  168SAPE   C3919018   5.698   2.334   7.695 -0.1915 -0.0362  0.0610
  168SAPE   H9X19019   5.711   2.226   7.715 -0.0921 -0.0860 -0.2752
  168SAPE   H9Y19020   5.596   2.370   7.722 -0.0475 -0.4666  1.2348
  168SAPE  C31019021   5.788   2.401   7.793 -0.2321  0.4341 -0.8271
  168SAPE  H10X19022   5.763   2.509   7.786 -1.2725  0.3016  0.4657
  168SAPE  H10Y19023   5.894   2.381   7.768  0.1748  1.2107  0.2116
  168SAPE  C31119024   5.775   2.350   7.940 -0.0819  0.4752 -0.5099
  168SAPE  H11X19025   5.772   2.239   7.938 -1.5228  0.5093 -1.6865
  168SAPE  H11Y19026   5.672   2.381   7.966 -0.3080  1.7730 -2.6882
  168SAPE  C31219027   5.890   2.404   8.029  0.3344 -0.8121 -0.3873
  168SAPE  H12X19028   5.900   2.512   8.007  1.4596 -1.2871 -2.4863
  168SAPE  H12Y19029   5.987   2.355   8.005  1.7318  0.0781  2.9246
  168SAPE  C31319030   5.854   2.375   8.175  0.5830  0.1079  0.8772
  168SAPE  H13X19031   5.943   2.395   8.238  0.3888 -0.3530  1.2992
  168SAPE  H13Y19032   5.832   2.268   8.194 -0.2365 -0.0808 -0.9204
  168SAPE  C31419033   5.725   2.444   8.232  0.0860 -0.0223 -0.3728
  168SAPE  H14X19034   5.633   2.390   8.203 -1.1176 -0.0086  2.9687
  168SAPE  H14Y19035   5.714   2.551   8.203 -0.8055  0.2226  0.8031
  168SAPE  C31519036   5.705   2.441   8.385  0.1876 -1.0729  0.7366
  168SAPE  H15X19037   5.787   2.505   8.424  0.1404  0.5334 -1.5649
  168SAPE  H15Y19038   5.712   2.335   8.418 -1.8083 -0.8141  2.1938
  168SAPE  C31619039   5.570   2.489   8.430 -0.1146  0.3517 -0.0110
  168SAPE  H16X19040   5.496   2.416   8.389  0.7667  0.1440 -1.2873
  168SAPE  H16Y19041   5.563   2.583   8.370 -3.3959  0.3225  0.1025
  168SAPE  C31719042   5.536   2.509   8.582  0.7075  1.1296  0.2292
  168SAPE  H17X19043   5.428   2.526   8.599  0.0146 -3.0352  1.1805
  168SAPE  H17Y19044   5.585   2.606   8.604 -1.1387  2.5079 -1.3855
  168SAPE  C31819045   5.578   2.391   8.673  0.5596  0.0742 -0.2461
  168SAPE  H18X19046   5.529   2.299   8.636  0.5754  0.5223 -1.4219
  168SAPE  H18Y19047   5.538   2.399   8.776  0.3003 -0.5274 -0.2982
  168SAPE  H18Z19048   5.687   2.374   8.684  0.5595  1.2221  1.9541
  169SAPE     N19049   5.435   5.126   5.953 -0.0044 -0.0082 -0.4213
  169SAPE   HN119050   5.500   5.048   5.974 -0.1640  0.0129  0.1909
  169SAPE   HN219051   5.386   5.114   5.862 -0.7547  2.2539 -0.3674
  169SAPE   HN319052   5.475   5.221   5.943 -0.6362  0.3341  0.2152
  169SAPE   C1219053   5.333   5.118   6.068 -0.3397  0.1017 -0.0428
  169SAPE  H12A19054   5.254   5.193   6.048 -1.1128 -1.0183 -1.3836
  169SAPE  H12B19055   5.384   5.140   6.165  0.8638 -0.4084 -0.5346
  169SAPE   C1119056   5.295   4.969   6.077 -0.0907 -0.2978  0.7563
  169SAPE  H11A19057   5.230   4.940   5.991  1.1629 -0.8160 -0.0484
  169SAPE  H11B19058   5.232   4.960   6.168  1.8493 -2.9314  1.9731
  169SAPE     P19059   5.454   4.780   6.181  0.1714  0.5362 -0.2821
  169SAPE   O1319060   5.342   4.693   6.225  0.2237  0.2753  0.1846
  169SAPE   O1419061   5.568   4.702   6.119 -0.2904 -0.1512 -0.8062
  169SAPE   O1219062   5.408   4.886   6.079  0.4741  0.0113 -0.3340
  169SAPE   O1119063   5.491   4.868   6.313 -0.7533  0.5146  0.7460
  169SAPE    C119064   5.621   4.922   6.332 -0.3643 -0.3716 -0.3566
  169SAPE    HA19065   5.680   4.833   6.361 -0.4751  0.6007  3.4792
  169SAPE    HB19066   5.657   4.970   6.239  1.3438 -0.7705  0.0752
  169SAPE    C219067   5.622   5.021   6.449  0.2194 -0.0929  0.6891
  169SAPE    HS19068   5.727   5.057   6.447  0.9211 -2.0277 -0.4786
  169SAPE   O2119069   5.585   4.958   6.572  0.0020 -0.4179 -0.2188
  169SAPE   C2119070   5.675   4.886   6.629  0.1236  0.2634 -0.0577
  169SAPE   O2219071   5.793   4.875   6.601 -0.3968  0.0041 -0.5242
  169SAPE   C2219072   5.606   4.806   6.744 -0.2800 -0.2834  1.0477
  169SAPE   H2R19073   5.499   4.835   6.740 -0.2887 -0.3984  0.2692
  169SAPE   H2S19074   5.621   4.698   6.723 -3.4069 -0.5171 -0.6702
  169SAPE    C319075   5.525   5.141   6.423 -0.0891 -0.3674 -0.8028
  169SAPE    HX19076   5.429   5.091   6.397  1.2142 -2.7445 -1.4084
  169SAPE    HY19077   5.546   5.203   6.333 -0.2817 -1.2593 -1.4793
  169SAPE   O3119078   5.531   5.233   6.537  0.5602 -0.2663 -0.4351
  169SAPE   C3119079   5.421   5.300   6.569  0.2982  0.1396 -0.0381
  169SAPE   O3219080   5.321   5.302   6.502 -0.6792  0.1413  0.3299
  169SAPE   C3219081   5.426   5.353   6.715  0.0163  1.2208  0.1945
  169SAPE   H2X19082   5.514   5.418   6.735 -0.6417  2.0301  0.5242
  169SAPE   H2Y19083   5.423   5.261   6.776  1.3118  0.4189 -0.8971
  169SAPE   C2319084   5.670   4.848   6.873  0.1055 -0.2082 -0.0548
  169SAPE   H3R19085   5.781   4.839   6.868  0.1397 -0.4392  0.9128
  169SAPE   H3S19086   5.644   4.790   6.964  0.3849  2.2902  1.7470
  169SAPE   C2419087   5.614   4.988   6.906  0.5836  0.2784 -0.1314
  169SAPE   H4R19088   5.505   4.975   6.918  0.5548 -0.4714 -1.1923
  169SAPE   H4S19089   5.623   5.061   6.823 -3.5859  0.9041 -0.2565
  169SAPE   C2519090   5.679   5.037   7.031 -0.2112  0.2046 -0.1409
  169SAPE   H5R19091   5.784   5.004   7.030 -0.5277 -1.2538 -4.0754
  169SAPE   C2619092   5.632   5.111   7.132  0.0430 -0.4884  0.5479
  169SAPE   H6R19093   5.693   5.127   7.222 -0.5746  1.0628  0.7162
  169SAPE   C2719094   5.494   5.166   7.140 -0.0826 -0.0568 -0.0262
  169SAPE   H7R19095   5.449   5.105   7.222 -0.0110 -1.1984 -0.8089
  169SAPE   H7S19096   5.436   5.143   7.049 -1.6102 -1.8764  1.3184
  169SAPE   C2819097   5.492   5.312   7.166  0.2484 -0.8862  0.4556
  169SAPE   H8R19098   5.489   5.375   7.076  0.4918  0.6679  1.5034
  169SAPE   C2919099   5.513   5.373   7.284 -0.1894 -0.0594 -0.5269
  169SAPE   H9R19100   5.501   5.482   7.289 -1.2836 -0.1670 -0.6149
  169SAPE  C21019101   5.521   5.306   7.419 -0.0495 -0.1373 -0.2432
  169SAPE  H10R19102   5.472   5.207   7.413 -0.0727 -0.3378  2.1764
  169SAPE  H10S19103   5.453   5.367   7.483  0.1165 -0.5080  0.2968
  169SAPE  C21119104   5.654   5.310   7.487 -0.0600  0.1062 -0.4679
  169SAPE  H11R19105   5.744   5.335   7.429 -1.7546 -0.6209 -3.6367
  169SAPE  C21219106   5.678   5.262   7.613 -0.1578 -0.6176  0.4535
  169SAPE  H12R19107   5.784   5.262   7.644 -0.0095  3.9300  0.6423
  169SAPE  C21319108   5.585   5.231   7.731 -0.3862  0.2968  0.6796
  169SAPE  H13R19109   5.518   5.319   7.743  1.5333  1.7071  1.5430
  169SAPE  H13S19110   5.652   5.239   7.818  1.4578 -2.8434 -0.2865
  169SAPE  C21419111   5.526   5.095   7.723 -0.3219 -0.1639  0.5847
  169SAPE  H14R19112   5.526   5.049   7.623 -0.3954 -2.0238  1.4068
  169SAPE  C21519113   5.464   5.028   7.823 -0.0294 -0.0370 -0.3527
  169SAPE  H15R19114   5.430   4.927   7.796  1.9622 -0.7061 -0.5803
  169SAPE  C21619115   5.424   5.083   7.958 -0.7724 -0.6039 -0.9511
  169SAPE  H16R19116   5.322   5.049   7.985 -2.1142  2.0202 -2.4185
  169SAPE  H16S19117   5.421   5.194   7.960 -1.6513 -0.6279  0.7594
  169SAPE  C21719118   5.520   5.042   8.080 -0.2600 -0.0798 -0.2830
  169SAPE  H17R19119   5.528   4.932   8.089 -2.0349 -0.5128 -2.9030
  169SAPE  H17S19120   5.457   5.074   8.165 -1.1546 -2.1985 -0.1063
  169SAPE  C21819121   5.658   5.115   8.096 -0.6764 -0.3158  0.1599
  169SAPE  H18R19122   5.645   5.223   8.114 -3.4137 -0.4571 -0.6191
  169SAPE  H18S19123   5.700   5.105   7.994 -1.2461  0.1929 -0.1283
  169SAPE  C21919124   5.743   5.063   8.206 -0.0565  0.1949  0.4432
  169SAPE  H19R19125   5.846   5.097   8.182  0.3614 -0.9343  0.5909
  169SAPE  H19S19126   5.742   4.952   8.204  0.5907  0.1703 -1.8752
  169SAPE  C22019127   5.700   5.089   8.351 -0.0965  0.2456  0.1339
  169SAPE  H20R19128   5.634   5.006   8.383 -0.9573  1.1782  0.8382
  169SAPE  H20S19129   5.654   5.187   8.375  2.7715  1.3583  1.5227
  169SAPE  H20T19130   5.787   5.087   8.420 -0.1332 -1.0797  0.1622
  169SAPE   C3319131   5.293   5.434   6.745  0.2642 -0.1262 -0.0847
  169SAPE   H3X19132   5.201   5.372   6.734  1.6583 -2.3788  0.3456
  169SAPE   H3Y19133   5.280   5.511   6.665 -1.2303 -0.3014 -0.0363
  169SAPE   C3419134   5.295   5.487   6.888 -1.0300  0.2868 -0.7025
  169SAPE   H4X19135   5.382   5.548   6.919 -1.3958  0.5693 -0.1982
  169SAPE   H4Y19136   5.295   5.404   6.962  1.5578  0.5582 -0.3134
  169SAPE   C3519137   5.178   5.578   6.920 -0.1502 -0.5848 -0.6876
  169SAPE   H5X19138   5.082   5.522   6.921  0.3805 -1.5845  1.5631
  169SAPE   H5Y19139   5.164   5.648   6.835 -2.7748 -0.2295 -0.0512
  169SAPE   C3619140   5.193   5.670   7.037 -0.3374 -0.0379 -0.2586
  169SAPE   H6X19141   5.111   5.742   7.056  0.2477  0.0294  2.5049
  169SAPE   H6Y19142   5.282   5.736   7.022  0.5341 -0.8030  1.2369
  169SAPE   C3719143   5.217   5.601   7.172  0.3529  0.3318  0.4551
  169SAPE   H7X19144   5.285   5.514   7.161  1.4952  1.2861 -0.3965
  169SAPE   H7Y19145   5.122   5.551   7.199  1.1649 -0.5324  1.8275
  169SAPE   C3819146   5.269   5.698   7.279 -0.2663 -0.3460  0.0939
  169SAPE   H8X19147   5.183   5.767   7.295 -0.4243 -0.4617 -0.2456
  169SAPE   H8Y19148   5.347   5.765   7.236 -1.3499  4.3429  4.3998
  169SAPE   C3919149   5.307   5.637   7.412 -0.2897  0.1180  0.3310
  169SAPE   H9X19150   5.324   5.723   7.481  1.0736  0.0255  0.1434
  169SAPE   H9Y19151   5.401   5.578   7.417  0.1683  0.9234  1.5664
  169SAPE  C31019152   5.202   5.542   7.470 -0.9620  0.1995  0.1311
  169SAPE  H10X19153   5.204   5.446   7.415 -0.3086  0.7320 -0.8063
  169SAPE  H10Y19154   5.104   5.595   7.461 -1.4907 -0.7200  0.3577
  169SAPE  C31119155   5.232   5.529   7.625  0.2933 -0.4269 -0.2937
  169SAPE  H11X19156   5.223   5.623   7.683  1.3006 -0.7389  0.4027
  169SAPE  H11Y19157   5.336   5.492   7.638  0.7708  0.2824 -1.8849
  169SAPE  C31219158   5.127   5.435   7.681  0.9536  0.1537  0.2377
  169SAPE  H12X19159   5.130   5.340   7.622 -0.0888  0.8137 -0.9258
  169SAPE  H12Y19160   5.025   5.479   7.678  1.2634  0.8275 -0.7846
  169SAPE  C31319161   5.148   5.397   7.830  0.3505  0.2034 -0.2832
  169SAPE  H13X19162   5.147   5.488   7.893  2.5143 -0.6242  1.0477
  169SAPE  H13Y19163   5.251   5.355   7.824  0.4069  0.4725 -1.5561
  169SAPE  C31419164   5.048   5.300   7.885  0.4006  0.2979 -0.4704
  169SAPE  H14X19165   4.945   5.339   7.869  0.2462  0.3132  0.4726
  169SAPE  H14Y19166   5.061   5.296   7.995 -0.6407  0.5417 -0.3254
  169SAPE  C31519167   5.056   5.159   7.824 -0.3419 -0.0273 -0.0327
  169SAPE  H15X19168   5.147   5.116   7.869  0.3263  1.9779  0.6333
  169SAPE  H15Y19169   5.068   5.177   7.715 -0.6065  0.5423  0.0272
  169SAPE  C31619170   4.936   5.073   7.860  0.1484  0.2951 -0.1038
  169SAPE  H16X19171   4.958   4.970   7.823 -2.9815 -1.4821  2.4886
  169SAPE  H16Y19172   4.848   5.117   7.809  0.3437  0.3774 -0.3746
  169SAPE  C31719173   4.890   5.077   8.010  0.1183 -0.4390 -0.1366
  169SAPE  H17X19174   4.860   5.181   8.036 -0.7818 -0.3049 -1.5774
  169SAPE  H17Y19175   4.987   5.072   8.064 -0.0397  3.0966  0.7209
  169SAPE  C31819176   4.784   4.973   8.034 -0.5648 -0.1569  0.6275
  169SAPE  H18X19177   4.761   4.973   8.143  0.3228  0.0327  0.8264
  169SAPE  H18Y19178   4.809   4.871   7.997  1.2174  0.1815  0.8241
  169SAPE  H18Z19179   4.691   5.004   7.982 -0.3560 -0.3777  0.1160
  170SAPE     N19180   6.271   3.545   6.167 -0.1996  0.1183  0.6501
  170SAPE   HN119181   6.314   3.639   6.162 -0.2811  0.2003  1.4127
  170SAPE   HN219182   6.168   3.553   6.155  0.0166 -0.1669 -2.0699
  170SAPE   HN319183   6.279   3.503   6.262 -2.7973 -1.5351  0.2352
  170SAPE   C1219184   6.327   3.440   6.073  0.5213 -0.3795 -0.0327
  170SAPE  H12A19185   6.435   3.460   6.061  0.1194  1.8923 -0.2718
  170SAPE  H12B19186   6.277   3.447   5.974  1.4117  0.9061 -0.4169
  170SAPE   C1119187   6.296   3.302   6.129 -0.5270  0.1153 -0.3886
  170SAPE  H11A19188   6.340   3.295   6.231 -2.2460 -3.5783  0.2539
  170SAPE  H11B19189   6.352   3.235   6.060  0.9508  0.3741  0.5022
  170SAPE     P19190   6.092   3.130   6.112 -0.3539  0.2364 -0.3738
  170SAPE   O1319191   5.971   3.147   6.028  0.2341 -0.3054  0.2918
  170SAPE   O1419192   6.195   3.029   6.068  0.1308  0.1497 -0.2799
  170SAPE   O1219193   6.163   3.279   6.125 -0.4795  0.3979 -0.3946
  170SAPE   O1119194   6.050   3.099   6.258 -0.1248 -0.0175  0.3500
  170SAPE    C119195   6.156   3.063   6.352 -0.1502 -0.3009  0.2199
  170SAPE    HA19196   6.240   3.008   6.305  0.8005  2.4161 -1.5212
  170SAPE    HB19197   6.194   3.160   6.392 -1.4587 -0.4253  1.8537
  170SAPE    C219198   6.090   2.994   6.474  0.0544 -0.6712  0.3614
  170SAPE    HS19199   6.060   2.896   6.431 -1.1187 -0.3846  0.4744
  170SAPE   O2119200   5.980   3.068   6.531 -0.2039  0.6727 -0.4639
  170SAPE   C2119201   5.888   2.997   6.590  0.2181  0.3777  0.5769
  170SAPE   O2219202   5.878   2.878   6.603  0.3039 -0.2449  0.6748
  170SAPE   C2219203   5.796   3.093   6.658 -0.1249  0.3103  0.0430
  170SAPE   H2R19204   5.816   3.192   6.612  0.3929  0.2119  0.0497
  170SAPE   H2S19205   5.695   3.054   6.633 -0.8579 -0.0387  3.1651
  170SAPE    C319206   6.196   2.969   6.586  0.5811  1.0205 -0.3341
  170SAPE    HX19207   6.218   3.067   6.633  2.7384  0.1639  0.5827
  170SAPE    HY19208   6.299   2.940   6.557  2.1016  0.8076  4.3401
  170SAPE   O3119209   6.143   2.888   6.694  0.0394 -0.2061  0.2525
  170SAPE   C3119210   6.179   2.758   6.694  0.7189  0.3512  0.6109
  170SAPE   O3219211   6.236   2.699   6.608  0.4799  0.4937  0.2482
  170SAPE   C3219212   6.113   2.687   6.820 -0.2466  0.3492 -0.0694
  170SAPE   H2X19213   6.003   2.695   6.807 -0.4587  2.1659  2.2671
  170SAPE   H2Y19214   6.142   2.741   6.913  0.1378 -0.6679  0.4291
  170SAPE   C2319215   5.802   3.087   6.806  0.2822  0.5123  0.3890
  170SAPE   H3R19216   5.794   2.986   6.851 -2.0739  1.0532  1.3438
  170SAPE   H3S19217   5.713   3.133   6.856 -0.5505 -2.4448  1.8513
  170SAPE   C2419218   5.924   3.155   6.852 -0.2590  0.0076 -0.6688
  170SAPE   H4R19219   5.909   3.260   6.820  1.6606  0.2560 -0.8881
  170SAPE   H4S19220   6.013   3.116   6.799 -0.3351 -0.8001 -0.2246
  170SAPE   C2519221   5.936   3.167   7.004 -0.0877 -0.0607  0.2951
  170SAPE   H5R19222   5.853   3.231   7.036  0.4098  0.4471  0.6022
  170SAPE   C2619223   6.019   3.107   7.091 -0.2273  0.0380 -0.4605
  170SAPE   H6R19224   6.018   3.139   7.196  0.0318 -0.3390 -0.3436
  170SAPE   C2719225   6.128   3.008   7.055 -0.2181 -0.2086  0.1130
  170SAPE   H7R19226   6.130   2.996   6.944  1.5802  1.8508 -0.1471
  170SAPE   H7S19227   6.101   2.911   7.101 -0.3227 -0.0494  0.3880
  170SAPE   C2819228   6.268   3.061   7.086 -0.5644 -0.7615  0.3669
  170SAPE   H8R19229   6.305   3.122   7.002 -0.2803 -0.7539  0.4945
  170SAPE   C2919230   6.350   3.044   7.194 -0.3075  0.2322 -0.6505
  170SAPE   H9R19231   6.446   3.098   7.183 -0.8623  1.1745 -0.9502
  170SAPE  C21019232   6.309   2.961   7.316  0.5695 -0.0506 -0.3226
  170SAPE  H10R19233   6.315   2.852   7.296 -0.3689  0.1514 -1.8568
  170SAPE  H10S19234   6.209   2.997   7.349  0.1495  0.1216 -1.7183
  170SAPE  C21119235   6.415   2.973   7.425  0.0890 -0.2848  0.1521
  170SAPE  H11R19236   6.519   2.957   7.394 -0.1894 -0.5926 -0.6429
  170SAPE  C21219237   6.390   2.982   7.561  0.3822  0.2385  0.2345
  170SAPE  H12R19238   6.476   3.012   7.623  0.7553  1.2454 -0.7351
  170SAPE  C21319239   6.258   3.001   7.637 -0.6270  0.1069 -0.0715
  170SAPE  H13R19240   6.274   2.960   7.739 -0.1076 -0.0697 -0.2213
  170SAPE  H13S19241   6.183   2.932   7.594  0.2223 -1.1165  0.3398
  170SAPE  C21419242   6.207   3.142   7.631  0.3732  0.5365 -0.6666
  170SAPE  H14R19243   6.188   3.185   7.532 -1.8007  1.6177  0.1675
  170SAPE  C21519244   6.163   3.213   7.736 -0.4838 -0.0370 -0.4167
  170SAPE  H15R19245   6.125   3.314   7.716  1.7030  0.8252 -0.5204
  170SAPE  C21619246   6.165   3.176   7.882  0.2357 -0.1430 -0.4123
  170SAPE  H16R19247   6.263   3.208   7.923 -0.2001 -0.4829  0.9432
  170SAPE  H16S19248   6.158   3.067   7.902  1.0183  0.3108  2.9275
  170SAPE  C21719249   6.059   3.234   7.974  0.7446 -0.5039  0.5016
  170SAPE  H17R19250   6.066   3.343   7.994 -0.4299 -0.0774 -1.1802
  170SAPE  H17S19251   6.055   3.183   8.072 -0.5518 -0.2543  0.6001
  170SAPE  C21819252   5.916   3.222   7.920  0.0583  0.1735  0.4818
  170SAPE  H18R19253   5.904   3.121   7.875 -0.4619  0.0929  0.7962
  170SAPE  H18S19254   5.923   3.301   7.842  1.1497  0.6751  1.0553
  170SAPE  C21919255   5.798   3.249   8.013 -0.2306 -0.0162  0.3655
  170SAPE  H19R19256   5.819   3.341   8.071 -0.0034  0.4386 -0.4248
  170SAPE  H19S19257   5.803   3.164   8.085  1.5570 -0.7628 -0.5489
  170SAPE  C22019258   5.660   3.237   7.950 -0.1967  0.4354 -0.0811
  170SAPE  H20R19259   5.651   3.131   7.918 -0.8953  0.5072 -0.1351
  170SAPE  H20S19260   5.647   3.313   7.871 -0.3516  1.1433  0.6153
  170SAPE  H20T19261   5.575   3.253   8.020  0.1631 -0.4047  0.5736
  170SAPE   C3319262   6.150   2.538   6.830  0.3163  0.0141 -0.4087
  170SAPE   H3X19263   6.260   2.534   6.841  0.2840 -0.1799 -0.1423
  170SAPE   H3Y19264   6.120   2.481   6.739  0.8478 -0.0700 -0.5314
  170SAPE   C3419265   6.079   2.472   6.953 -0.3024 -0.6838  0.5917
  170SAPE   H4X19266   6.092   2.361   6.953  1.4036 -0.5278 -0.2912
  170SAPE   H4Y19267   5.973   2.489   6.925 -0.0037 -1.1849 -1.0007
  170SAPE   C3519268   6.119   2.508   7.085 -0.1700 -0.2555  0.3616
  170SAPE   H5X19269   6.052   2.590   7.119  2.1378  2.5505 -1.3797
  170SAPE   H5Y19270   6.223   2.545   7.077 -0.4856  0.4311 -0.7928
  170SAPE   C3619271   6.104   2.400   7.196  0.1056 -0.0771  0.5020
  170SAPE   H6X19272   6.192   2.334   7.178  0.4195 -0.2555  2.4900
  170SAPE   H6Y19273   6.013   2.336   7.202  1.6696 -2.9616 -2.7053
  170SAPE   C3719274   6.138   2.483   7.325  0.1057 -0.5239  0.5091
  170SAPE   H7X19275   6.048   2.542   7.350 -1.1005 -0.9839 -2.3822
  170SAPE   H7Y19276   6.215   2.558   7.298 -1.1501  0.3832 -0.6175
  170SAPE   C3819277   6.195   2.395   7.432  0.8414  0.2613  0.0048
  170SAPE   H8X19278   6.280   2.339   7.387 -0.6427 -0.5612 -1.8757
  170SAPE   H8Y19279   6.118   2.328   7.477  1.0003  0.5909  0.7968
  170SAPE   C3919280   6.253   2.467   7.559  0.0947  0.1161 -0.5359
  170SAPE   H9X19281   6.349   2.519   7.540 -0.8177  1.8272 -0.6314
  170SAPE   H9Y19282   6.263   2.378   7.626 -0.3641  0.8653  0.5443
  170SAPE  C31019283   6.151   2.561   7.637 -0.0660  0.0372 -0.2141
  170SAPE  H10X19284   6.059   2.512   7.677  0.4553  0.4151  1.5193
  170SAPE  H10Y19285   6.122   2.650   7.577  1.4125  0.2693 -0.6172
  170SAPE  C31119286   6.203   2.621   7.769  0.3409  0.3448 -0.5000
  170SAPE  H11X19287   6.136   2.693   7.820 -0.3643 -1.1490  0.7657
  170SAPE  H11Y19288   6.301   2.673   7.761 -0.0899  1.0455 -1.3249
  170SAPE  C31219289   6.234   2.513   7.878 -0.4009 -0.5500  0.6400
  170SAPE  H12X19290   6.309   2.441   7.838  0.7586  0.9056  0.0925
  170SAPE  H12Y19291   6.130   2.473   7.886 -0.8613  0.3060 -0.8212
  170SAPE  C31319292   6.269   2.581   8.010  0.1092  0.1480  0.2382
  170SAPE  H13X19293   6.184   2.643   8.045  0.6580  2.3920 -2.1278
  170SAPE  H13Y19294   6.356   2.649   8.002  0.0315  0.1830 -0.3516
  170SAPE  C31419295   6.322   2.471   8.102  0.1169 -0.4977 -1.0038
  170SAPE  H14X19296   6.409   2.417   8.060  0.8869  1.0197 -1.3911
  170SAPE  H14Y19297   6.249   2.395   8.139  2.4111 -2.7441 -0.7722
  170SAPE  C31519298   6.382   2.538   8.232  0.0510 -0.2245  1.0247
  170SAPE  H15X19299   6.458   2.615   8.205 -0.9954  0.3110 -0.5180
  170SAPE  H15Y19300   6.435   2.453   8.279 -1.4005 -1.4586  0.4758
  170SAPE  C31619301   6.280   2.578   8.332  0.6312  0.9585  0.8134
  170SAPE  H16X19302   6.215   2.495   8.365  0.7485  1.1580  1.5759
  170SAPE  H16Y19303   6.206   2.646   8.285 -0.2122  0.7899  1.8545
  170SAPE  C31719304   6.341   2.640   8.457  0.5403 -0.4098 -0.3732
  170SAPE  H17X19305   6.266   2.646   8.539  1.0307 -1.1715  0.1539
  170SAPE  H17Y19306   6.380   2.743   8.441  1.9901 -1.1325 -1.7349
  170SAPE  C31819307   6.463   2.554   8.507  0.2197  0.0024  0.5720
  170SAPE  H18X19308   6.490   2.592   8.608 -0.8902  3.0304 -0.1547
  170SAPE  H18Y19309   6.540   2.570   8.429 -1.1359  0.8504 -0.6223
  170SAPE  H18Z19310   6.459   2.443   8.509 -1.1629 -0.0296 -1.6472
  171SAPE     N19311   0.927   2.926   6.129  0.3888 -0.3796 -0.0005
  171SAPE   HN119312   0.921   3.004   6.060  0.9237 -1.2581 -1.0787
  171SAPE   HN219313   1.001   2.866   6.088 -0.5378 -0.7298 -1.2049
  171SAPE   HN319314   0.840   2.873   6.108  0.3592  0.0427 -0.9965
  171SAPE   C1219315   0.950   2.979   6.266  1.1492  0.7082 -0.0994
  171SAPE  H12A19316   0.959   2.890   6.332  2.6654  0.3396 -0.7595
  171SAPE  H12B19317   0.858   3.038   6.285  0.3954  0.0459 -1.5808
  171SAPE   C1119318   1.076   3.064   6.279  0.0829  0.2003 -0.6081
  171SAPE  H11A19319   1.086   3.096   6.385  1.2833 -2.0245  0.0131
  171SAPE  H11B19320   1.052   3.152   6.216 -2.4814 -0.6824 -0.9939
  171SAPE     P19321   1.323   3.048   6.210 -0.1678 -0.1566  0.0775
  171SAPE   O1319322   1.427   2.939   6.218 -0.2441  0.2185  0.7038
  171SAPE   O1419323   1.304   3.116   6.079 -0.0903  0.2463 -0.1396
  171SAPE   O1219324   1.192   2.979   6.256 -0.2907 -0.3985  0.2210
  171SAPE   O1119325   1.362   3.150   6.320  0.3095 -0.6372  0.2667
  171SAPE    C119326   1.324   3.289   6.316  0.0233  0.2135 -0.6157
  171SAPE    HA19327   1.239   3.310   6.248 -2.4188 -2.1901  1.4460
  171SAPE    HB19328   1.290   3.317   6.418 -1.6987  1.1829 -1.4023
  171SAPE    C219329   1.443   3.377   6.288 -0.7644 -0.6272  0.1565
  171SAPE    HS19330   1.488   3.364   6.187  0.2317  0.9189  0.3511
  171SAPE   O2119331   1.543   3.360   6.390  0.5071 -0.1623  0.2051
  171SAPE   C2119332   1.635   3.271   6.356  0.3997 -0.0798  0.0022
  171SAPE   O2219333   1.649   3.232   6.240 -0.4374 -0.1829  0.1047
  171SAPE   C2219334   1.738   3.234   6.468  0.8700  0.5261  0.3140
  171SAPE   H2R19335   1.736   3.124   6.477  0.5280  0.4091 -0.9609
  171SAPE   H2S19336   1.835   3.270   6.428  0.5254  0.0768 -0.9866
  171SAPE    C319337   1.397   3.529   6.308  0.4983  0.0478 -0.4668
  171SAPE    HX19338   1.327   3.558   6.227  2.5687  0.8286 -2.1050
  171SAPE    HY19339   1.483   3.595   6.282  0.9426 -0.4464 -0.2745
  171SAPE   O3119340   1.332   3.552   6.439  0.0323  0.3022  0.2484
  171SAPE   C3119341   1.417   3.584   6.531  0.3730  0.0160 -0.4527
  171SAPE   O3219342   1.531   3.620   6.516 -0.0280  0.0367 -0.1952
  171SAPE   C3219343   1.350   3.559   6.665  0.2893 -0.2948 -0.5350
  171SAPE   H2X19344   1.250   3.518   6.639  1.2930 -2.3493 -1.3760
  171SAPE   H2Y19345   1.338   3.658   6.714  2.0654 -1.1524  1.8375
  171SAPE   C2319346   1.708   3.300   6.604 -0.4810 -0.2002  0.6981
  171SAPE   H3R19347   1.606   3.273   6.638 -1.1623  0.1669 -0.9553
  171SAPE   H3S19348   1.703   3.411   6.599  0.2876 -0.2076 -1.1041
  171SAPE   C2419349   1.794   3.270   6.723 -0.6730  0.2345  0.5082
  171SAPE   H4R19350   1.796   3.163   6.749  1.4379  0.1566  0.1964
  171SAPE   H4S19351   1.741   3.316   6.809 -2.7212  1.6124 -1.3499
  171SAPE   C2519352   1.931   3.314   6.702 -0.0116  0.0158  0.2975
  171SAPE   H5R19353   1.985   3.256   6.626 -0.2738  0.4992 -0.2774
  171SAPE   C2619354   1.986   3.433   6.748 -0.2034  0.8861  0.4400
  171SAPE   H6R19355   2.087   3.462   6.716 -0.2207 -0.7747 -1.2927
  171SAPE   C2719356   1.917   3.541   6.828  0.3870 -0.0499  0.1274
  171SAPE   H7R19357   1.840   3.584   6.760  0.3468 -1.6546 -0.8894
  171SAPE   H7S19358   2.001   3.611   6.851  1.1811  0.0946 -2.7169
  171SAPE   C2819359   1.845   3.498   6.954  0.7461  0.5551 -0.4856
  171SAPE   H8R19360   1.839   3.393   6.983 -0.4398  0.2489 -1.7374
  171SAPE   C2919361   1.776   3.588   7.025 -0.6629  0.4006  0.7150
  171SAPE   H9R19362   1.732   3.562   7.123  1.0956  0.6487  1.6033
  171SAPE  C21019363   1.775   3.737   7.006  0.3181  0.4400 -0.9985
  171SAPE  H10R19364   1.846   3.771   6.928  0.3716  1.7620 -0.3968
  171SAPE  H10S19365   1.817   3.783   7.097 -0.8480 -1.8550  0.8231
  171SAPE  C21119366   1.644   3.789   6.957  0.5139  0.0561  0.3823
  171SAPE  H11R19367   1.639   3.786   6.847 -0.2890 -1.7454  0.4205
  171SAPE  C21219368   1.543   3.854   7.023 -0.1480 -0.0736 -0.1245
  171SAPE  H12R19369   1.450   3.888   6.975  0.5133 -0.1323 -1.4946
  171SAPE  C21319370   1.540   3.883   7.169 -0.2648 -0.0396  0.8245
  171SAPE  H13R19371   1.538   3.993   7.184  0.6558  0.1765 -0.5352
  171SAPE  H13S19372   1.635   3.854   7.220  2.3712  1.2986 -2.9367
  171SAPE  C21419373   1.415   3.817   7.230  0.1706  0.0877  0.1826
  171SAPE  H14R19374   1.338   3.778   7.162  0.3742  0.0206 -0.0107
  171SAPE  C21519375   1.396   3.787   7.362  0.2247 -0.2771  0.1747
  171SAPE  H15R19376   1.298   3.751   7.397  0.1861 -1.1061 -0.7534
  171SAPE  C21619377   1.485   3.811   7.480 -0.6060  0.5101  0.0110
  171SAPE  H16R19378   1.437   3.875   7.557 -0.6564  1.7218 -0.9983
  171SAPE  H16S19379   1.579   3.857   7.443  0.0920 -0.0000  1.1225
  171SAPE  C21719380   1.532   3.682   7.551 -0.3589 -0.3250 -1.1608
  171SAPE  H17R19381   1.564   3.609   7.474  1.8367 -0.3121 -0.3553
  171SAPE  H17S19382   1.463   3.645   7.630  0.5725  2.2054  1.0081
  171SAPE  C21819383   1.671   3.713   7.620  0.5390  0.2020 -0.0848
  171SAPE  H18R19384   1.746   3.727   7.540  1.6790  4.0045  1.4264
  171SAPE  H18S19385   1.702   3.632   7.690 -1.5238  1.1348  2.0737
  171SAPE  C21919386   1.674   3.833   7.711  0.2974  0.8105  0.4780
  171SAPE  H19R19387   1.599   3.815   7.791  0.6394 -1.0135  0.4382
  171SAPE  H19S19388   1.644   3.924   7.656  0.9899  1.2572  0.8267
  171SAPE  C22019389   1.798   3.865   7.796 -0.5135  0.3790 -0.3644
  171SAPE  H20R19390   1.839   3.779   7.853 -0.3046 -0.2977 -1.5042
  171SAPE  H20S19391   1.783   3.952   7.863  0.2256  1.6150 -1.7545
  171SAPE  H20T19392   1.880   3.898   7.730 -0.4622  1.7654  0.3634
  171SAPE   C3319393   1.427   3.460   6.744 -0.1562  0.0516 -0.1829
  171SAPE   H3X19394   1.534   3.486   6.751  0.5960 -2.0694 -2.3268
  171SAPE   H3Y19395   1.426   3.358   6.701 -1.5084  1.2520 -3.3110
  171SAPE   C3419396   1.362   3.455   6.876 -0.0414 -0.3838 -0.6155
  171SAPE   H4X19397   1.255   3.430   6.863  0.3094 -1.3397 -1.9348
  171SAPE   H4Y19398   1.362   3.559   6.914  0.8268  0.8278 -3.6084
  171SAPE   C3519399   1.436   3.359   6.973  0.0152 -0.1824 -0.7492
  171SAPE   H5X19400   1.546   3.358   6.958  0.2605 -4.4664 -0.0098
  171SAPE   H5Y19401   1.397   3.255   6.966  2.4741 -1.5156  2.5547
  171SAPE   C3619402   1.410   3.408   7.115 -0.8095 -0.0262  0.7994
  171SAPE   H6X19403   1.308   3.449   7.102  0.1385  2.1382 -0.3804
  171SAPE   H6Y19404   1.471   3.493   7.153  1.6044 -0.3036 -2.0411
  171SAPE   C3719405   1.430   3.296   7.214 -0.3070 -0.2407  0.4423
  171SAPE   H7X19406   1.525   3.246   7.183  0.5691  1.9959 -0.7095
  171SAPE   H7Y19407   1.349   3.220   7.207  1.1771 -1.9018  0.5422
  171SAPE   C3819408   1.445   3.350   7.352  0.4445  0.4914  0.1247
  171SAPE   H8X19409   1.344   3.373   7.392  0.1342  0.2748 -0.5297
  171SAPE   H8Y19410   1.498   3.448   7.347 -0.4001  0.9959  0.8189
  171SAPE   C3919411   1.528   3.250   7.437 -0.6002 -0.1638  0.2047
  171SAPE   H9X19412   1.620   3.226   7.379 -0.8345  0.7878 -0.5937
  171SAPE   H9Y19413   1.476   3.152   7.443 -0.5868 -0.2018 -0.2825
  171SAPE  C31019414   1.563   3.295   7.589  0.9315  0.4142  0.1329
  171SAPE  H10X19415   1.652   3.360   7.585  1.1110  0.1381 -0.6138
  171SAPE  H10Y19416   1.601   3.196   7.622  0.2838 -0.5955 -1.9538
  171SAPE  C31119417   1.438   3.338   7.667  0.3007 -0.1126 -0.4357
  171SAPE  H11X19418   1.361   3.267   7.633  1.4523 -0.9503 -1.3956
  171SAPE  H11Y19419   1.396   3.434   7.630  0.4071 -0.3583 -1.2208
  171SAPE  C31219420   1.447   3.330   7.816 -0.2336 -0.1375  0.6223
  171SAPE  H12X19421   1.513   3.243   7.840  1.6455  0.9825 -0.2310
  171SAPE  H12Y19422   1.342   3.316   7.848 -0.7435  1.6433 -0.1586
  171SAPE  C31319423   1.508   3.450   7.885  1.3495 -1.1068 -0.6709
  171SAPE  H13X19424   1.448   3.535   7.845 -0.2477 -2.8730 -2.2275
  171SAPE  H13Y19425   1.613   3.475   7.859  1.6918  0.6671  1.9640
  171SAPE  C31419426   1.492   3.442   8.043 -0.4779 -0.1962  0.0318
  171SAPE  H14X19427   1.531   3.341   8.067  0.1443  0.0215 -0.0410
  171SAPE  H14Y19428   1.388   3.464   8.074 -0.4084  3.9176 -1.9318
  171SAPE  C31519429   1.589   3.534   8.115 -0.5527 -0.5590 -0.3777
  171SAPE  H15X19430   1.692   3.498   8.095 -0.1831 -0.8474  1.8102
  171SAPE  H15Y19431   1.580   3.528   8.225  0.0139  1.0099 -0.2151
  171SAPE  C31619432   1.567   3.676   8.076 -0.0256  0.3831  0.1654
  171SAPE  H16X19433   1.470   3.711   8.116 -2.5050 -1.9692 -3.1504
  171SAPE  H16Y19434   1.573   3.666   7.965  1.5132 -2.5680  0.4004
  171SAPE  C31719435   1.686   3.770   8.112 -0.0162 -0.1607 -0.6356
  171SAPE  H17X19436   1.672   3.875   8.076  0.4955 -0.1093 -0.6876
  171SAPE  H17Y19437   1.780   3.719   8.085 -0.7914 -2.5420  0.8991
  171SAPE  C31819438   1.685   3.787   8.266  0.1893 -0.3540  0.0546
  171SAPE  H18X19439   1.766   3.855   8.298  0.8279 -1.5505  1.1015
  171SAPE  H18Y19440   1.712   3.695   8.322 -1.6797  0.4094  2.3742
  171SAPE  H18Z19441   1.584   3.818   8.300 -0.1828 -1.4238 -0.0469
  172SAPE     N19442   6.761   3.454   6.271  0.2851  0.0127 -0.7186
  172SAPE   HN119443   6.862   3.471   6.256  0.0176  0.4936 -2.1698
  172SAPE   HN219444   6.735   3.355   6.250  2.7852 -0.5229 -1.6161
  172SAPE   HN319445   6.720   3.511   6.194  1.4260  2.4824  0.3954
  172SAPE   C1219446   6.723   3.502   6.406 -0.3416  0.5231  1.4291
  172SAPE  H12A19447   6.616   3.473   6.413 -1.0067  2.5722  0.6293
  172SAPE  H12B19448   6.720   3.613   6.398  0.8422  0.4914  0.1135
  172SAPE   C1119449   6.820   3.450   6.520  0.2495  0.5404  0.2501
  172SAPE  H11A19450   6.800   3.344   6.547 -1.8662  1.0035  0.7398
  172SAPE  H11B19451   6.787   3.512   6.606  0.3045  0.8652  0.0384
  172SAPE     P19452   7.053   3.368   6.428 -0.2543  0.2672  0.0101
  172SAPE   O1319453   6.986   3.287   6.329  0.0123  0.2180 -0.2415
  172SAPE   O1419454   7.178   3.425   6.378  0.0765  0.1749 -0.2748
  172SAPE   O1219455   6.955   3.483   6.480  0.8090  0.4268  0.1124
  172SAPE   O1119456   7.082   3.289   6.557 -0.4341  0.4112  0.6558
  172SAPE    C119457   7.177   3.325   6.658 -0.5298 -0.4045 -0.0206
  172SAPE    HA19458   7.240   3.243   6.698 -0.4183  0.6111  2.0037
  172SAPE    HB19459   7.246   3.407   6.627  2.0171 -0.8932  3.7519
  172SAPE    C219460   7.099   3.375   6.775  0.2562  0.6375  0.3176
  172SAPE    HS19461   7.038   3.465   6.750  1.0224  1.4277  1.2230
  172SAPE   O2119462   7.191   3.400   6.885  0.7001 -0.2020 -0.5937
  172SAPE   C2119463   7.168   3.502   6.964  0.1375 -0.0342  0.0607
  172SAPE   O2219464   7.108   3.602   6.940 -0.3468 -0.1386 -0.1599
  172SAPE   C2219465   7.243   3.477   7.094 -0.1726 -0.0990  0.2862
  172SAPE   H2R19466   7.244   3.366   7.104 -3.5382 -0.2406  0.0387
  172SAPE   H2S19467   7.343   3.519   7.071 -0.2823  0.0437  0.0706
  172SAPE    C319468   6.988   3.271   6.821 -0.0896 -0.2580 -0.2127
  172SAPE    HX19469   7.025   3.167   6.838 -2.1030 -0.9594  0.2695
  172SAPE    HY19470   6.919   3.270   6.734 -0.9556  2.5952  0.3425
  172SAPE   O3119471   6.924   3.304   6.946 -0.7324 -0.1493  0.7127
  172SAPE   C3119472   6.826   3.391   6.941  0.3285 -0.5750 -0.0412
  172SAPE   O3219473   6.774   3.436   6.835 -0.3113  0.4026  0.0447
  172SAPE   C3219474   6.798   3.443   7.084 -0.2871  0.7487  0.0002
  172SAPE   H2X19475   6.876   3.516   7.115  0.3816 -0.8665  2.3343
  172SAPE   H2Y19476   6.819   3.350   7.140 -0.9206  0.0699 -0.8510
  172SAPE   C2319477   7.168   3.539   7.214 -0.3812 -0.3102  0.9455
  172SAPE   H3R19478   7.062   3.505   7.206 -0.1314 -0.9555  0.3594
  172SAPE   H3S19479   7.151   3.649   7.211  1.8404  0.0580  0.6567
  172SAPE   C2419480   7.229   3.494   7.350 -0.1726 -0.7797  0.7299
  172SAPE   H4R19481   7.338   3.513   7.340 -0.4972  1.0268  0.3410
  172SAPE   H4S19482   7.208   3.385   7.360 -0.5225 -0.7186  0.6623
  172SAPE   C2519483   7.162   3.565   7.469  0.0638  0.0753 -0.4551
  172SAPE   H5R19484   7.142   3.674   7.465 -0.1218  0.0100 -2.9585
  172SAPE   C2619485   7.134   3.493   7.578  0.2177  1.0970 -0.4929
  172SAPE   H6R19486   7.094   3.539   7.670 -0.1776 -0.0290 -0.0904
  172SAPE   C2719487   7.162   3.344   7.600  0.1967  0.3593  0.0058
  172SAPE   H7R19488   7.130   3.277   7.517  0.6465  0.0241  0.0977
  172SAPE   H7S19489   7.089   3.312   7.678  1.2862 -2.4932  0.0007
  172SAPE   C2819490   7.306   3.301   7.622  0.0955  0.0911 -0.3320
  172SAPE   H8R19491   7.373   3.347   7.549 -0.5139  1.0680 -0.2987
  172SAPE   C2919492   7.345   3.212   7.717 -0.0887  0.6912  0.0670
  172SAPE   H9R19493   7.450   3.179   7.717  0.1783  1.5386 -0.2442
  172SAPE  C21019494   7.259   3.140   7.814 -0.1938  0.2155  0.6832
  172SAPE  H10R19495   7.231   3.046   7.762 -0.9797  1.2664 -0.8913
  172SAPE  H10S19496   7.164   3.194   7.837 -0.3633 -0.4396  1.5784
  172SAPE  C21119497   7.327   3.114   7.945  0.0116 -0.3559  0.5167
  172SAPE  H11R19498   7.428   3.157   7.956  0.9835 -2.3685  0.0476
  172SAPE  C21219499   7.269   3.044   8.043  0.5446  0.0808 -0.0282
  172SAPE  H12R19500   7.336   3.011   8.123  0.5889  1.0697  0.3550
  172SAPE  C21319501   7.128   2.988   8.030 -0.6416 -0.5406  0.7216
  172SAPE  H13R19502   7.049   3.051   7.983  0.1903  0.4996  0.6785
  172SAPE  H13S19503   7.086   2.985   8.133 -0.4020  1.4703  0.9271
  172SAPE  C21419504   7.144   2.852   7.970  0.2657  0.0440 -0.0656
  172SAPE  H14R19505   7.132   2.861   7.861 -0.6849  2.0928  0.1655
  172SAPE  C21519506   7.166   2.732   8.032  0.5177 -0.5349 -0.3286
  172SAPE  H15R19507   7.201   2.647   7.971  0.6178 -1.9235  1.5907
  172SAPE  C21619508   7.186   2.723   8.182  0.5176 -0.1820 -0.4638
  172SAPE  H16R19509   7.143   2.631   8.227  3.1360 -0.7477  1.0341
  172SAPE  H16S19510   7.146   2.807   8.242  1.3982 -0.0342 -0.0843
  172SAPE  C21719511   7.339   2.724   8.215  0.7363  0.9391 -0.4685
  172SAPE  H17R19512   7.384   2.821   8.188  0.6415  1.2318  0.3895
  172SAPE  H17S19513   7.391   2.640   8.163 -0.6699  1.1736 -2.3667
  172SAPE  C21819514   7.360   2.708   8.372  0.6984  0.1860 -0.3216
  172SAPE  H18R19515   7.470   2.697   8.386  0.7769 -0.5383 -1.3765
  172SAPE  H18S19516   7.308   2.615   8.401 -0.8411  1.1921  0.2813
  172SAPE  C21919517   7.290   2.809   8.469 -0.1307  0.2346  0.1719
  172SAPE  H19R19518   7.179   2.806   8.467 -0.3532  3.9690 -0.3915
  172SAPE  H19S19519   7.307   2.918   8.452 -1.4385  0.3221 -0.7539
  172SAPE  C22019520   7.321   2.775   8.614  0.1525 -0.0777 -0.3434
  172SAPE  H20R19521   7.240   2.824   8.672  0.6653 -0.7867  1.0130
  172SAPE  H20S19522   7.425   2.789   8.648  0.2576  0.7079 -0.9716
  172SAPE  H20T19523   7.309   2.665   8.624  0.2549 -0.1972 -1.3872
  172SAPE   C3319524   6.653   3.496   7.099  0.2595 -0.1737  0.1199
  172SAPE   H3X19525   6.584   3.417   7.063  1.5171  0.4672 -4.2440
  172SAPE   H3Y19526   6.648   3.581   7.027 -1.1474 -1.2188 -1.0711
  172SAPE   C3419527   6.628   3.546   7.245 -0.2896  0.3393 -0.4141
  172SAPE   H4X19528   6.519   3.566   7.257  0.1694  2.0555  1.5234
  172SAPE   H4Y19529   6.686   3.640   7.244 -0.7672  0.6371 -0.7728
  172SAPE   C3519530   6.683   3.450   7.356 -0.9340 -0.5494 -0.1198
  172SAPE   H5X19531   6.794   3.455   7.350 -0.9188  3.6703  0.1453
  172SAPE   H5Y19532   6.649   3.346   7.337 -0.3708 -0.5796 -1.0529
  172SAPE   C3619533   6.638   3.511   7.489  0.0007  0.6218  0.4956
  172SAPE   H6X19534   6.530   3.536   7.496  0.4137  3.2430 -1.0782
  172SAPE   H6Y19535   6.696   3.604   7.510  1.4655  0.0720 -0.9095
  172SAPE   C3719536   6.659   3.403   7.600 -0.0152  0.9302  0.1774
  172SAPE   H7X19537   6.731   3.325   7.565 -2.9169 -2.1041  0.3966
  172SAPE   H7Y19538   6.575   3.339   7.636 -0.5203  1.8221  0.6174
  172SAPE   C3819539   6.714   3.462   7.733 -0.2554  0.2421 -0.3897
  172SAPE   H8X19540   6.795   3.536   7.712  0.1608 -0.4624 -1.3150
  172SAPE   H8Y19541   6.767   3.387   7.796  2.6914  2.0011 -0.5470
  172SAPE   C3919542   6.597   3.538   7.806 -0.1215 -0.5763  0.1386
  172SAPE   H9X19543   6.558   3.598   7.722  0.3043 -1.2244 -0.5325
  172SAPE   H9Y19544   6.639   3.608   7.882 -1.9830  0.8316 -0.0470
  172SAPE  C31019545   6.492   3.448   7.875  0.0450 -0.7698  0.5709
  172SAPE  H10X19546   6.438   3.392   7.796  1.9227 -1.4066 -0.3308
  172SAPE  H10Y19547   6.416   3.516   7.919  1.0254  1.2916 -0.7360
  172SAPE  C31119548   6.555   3.357   7.982 -0.4790 -0.2267  0.2316
  172SAPE  H11X19549   6.629   3.296   7.927  0.1750  1.5048 -0.8926
  172SAPE  H11Y19550   6.472   3.295   8.021 -3.7263  2.0713 -2.4531
  172SAPE  C31219551   6.614   3.446   8.099 -0.9398  0.7074  0.0176
  172SAPE  H12X19552   6.545   3.528   8.127 -0.9399  1.3153 -1.6237
  172SAPE  H12Y19553   6.700   3.503   8.058 -0.2797 -1.4019 -1.7428
  172SAPE  C31319554   6.655   3.363   8.226  0.3758  0.7120  0.5672
  172SAPE  H13X19555   6.746   3.307   8.196  0.1319  0.5655  0.0798
  172SAPE  H13Y19556   6.576   3.292   8.259 -1.1616  1.8285 -0.5710
  172SAPE  C31419557   6.685   3.458   8.346  0.5322 -0.2092  0.0398
  172SAPE  H14X19558   6.592   3.516   8.365  0.1280 -0.3096 -1.4809
  172SAPE  H14Y19559   6.769   3.518   8.305  1.3090 -2.0507 -1.2262
  172SAPE  C31519560   6.751   3.392   8.471 -0.3373 -0.1853  1.1271
  172SAPE  H15X19561   6.775   3.471   8.545  0.0136 -0.0659  0.8879
  172SAPE  H15Y19562   6.840   3.344   8.424 -0.7650  0.0527  0.0295
  172SAPE  C31619563   6.663   3.282   8.531 -0.1657  0.7593 -0.4306
  172SAPE  H16X19564   6.726   3.221   8.598  1.4352  0.9506 -1.6996
  172SAPE  H16Y19565   6.623   3.211   8.456 -1.0916  0.3216  0.4511
  172SAPE  C31719566   6.543   3.331   8.612  0.0751  0.4679 -0.5327
  172SAPE  H17X19567   6.494   3.416   8.559  1.1683  0.0687 -2.2662
  172SAPE  H17Y19568   6.568   3.372   8.713 -0.3199  1.2674 -0.7535
  172SAPE  C31819569   6.442   3.221   8.651 -0.4239 -0.1212 -0.1997
  172SAPE  H18X19570   6.363   3.269   8.712 -0.3318  1.4008 -1.2288
  172SAPE  H18Y19571   6.480   3.130   8.703  1.2991  0.4504 -0.4102
  172SAPE  H18Z19572   6.396   3.196   8.553  2.0687  1.6962 -1.9378
  173SOPE     N19573   6.500   0.064  11.180  0.0073 -0.2681 -0.1778
  173SOPE   HN119574   6.422   0.007  11.140 -0.5361 -0.2084  0.7722
  173SOPE   HN219575   6.505   0.064  11.283 -1.3693 -1.1374 -0.0954
  173SOPE   HN319576   6.497   0.162  11.145 -2.4792  0.2043  1.1289
  173SOPE   C1219577   6.633  -0.001  11.139  0.5890 -0.6091 -0.6244
  173SOPE  H12A19578   6.613  -0.110  11.129 -0.9596 -0.3471 -0.6355
  173SOPE  H12B19579   6.703   0.013  11.225 -1.3709  0.2139  0.9050
  173SOPE   C1119580   6.693   0.073  11.018  0.0435  0.0545 -0.2400
  173SOPE  H11A19581   6.790   0.033  10.982 -0.8194 -0.3268 -2.2724
  173SOPE  H11B19582   6.717   0.174  11.056  0.7551 -0.8175  1.7532
  173SOPE     P19583   6.631   0.179  10.798 -0.1990  0.3441  0.2484
  173SOPE   O1319584   6.668   0.309  10.858  0.1017  0.3253 -0.1089
  173SOPE   O1419585   6.508   0.179  10.706  0.1519  0.2667 -0.5155
  173SOPE   O1219586   6.603   0.077  10.912  0.2548  0.2936  0.0886
  173SOPE   O1119587   6.757   0.113  10.732 -0.1336  0.2122 -0.3517
  173SOPE    C119588   6.786  -0.020  10.706  0.0431  0.0244  0.7899
  173SOPE    HA19589   6.718  -0.093  10.754  0.6372 -0.1850  1.3252
  173SOPE    HB19590   6.883  -0.038  10.757 -1.3281 -1.0066  3.2013
  173SOPE    C219591   6.799  -0.045  10.555 -0.6885 -0.8181  0.0298
  173SOPE    HS19592   6.841  -0.146  10.537  1.4649 -0.0349  0.3213
  173SOPE   O2119593   6.879   0.062  10.492  0.1357  0.4291 -0.3514
  173SOPE   C2119594   6.998   0.027  10.456  0.2522 -0.5322 -0.1182
  173SOPE   O2219595   7.048  -0.082  10.479  0.9951 -0.1470 -0.3046
  173SOPE   C2219596   7.081   0.130  10.388 -0.3672  0.0326 -0.0570
  173SOPE   H2R19597   7.163   0.078  10.334  0.7961 -1.5765  3.0394
  173SOPE   H2S19598   7.132   0.189  10.466  3.6204 -0.7330 -1.8287
  173SOPE    C319599   6.663  -0.034  10.486  0.8419  0.1358  0.4657
  173SOPE    HX19600   6.606   0.057  10.514 -0.0431 -0.0032 -0.7960
  173SOPE    HY19601   6.603  -0.121  10.520 -1.4797  0.1219 -3.1833
  173SOPE   O3119602   6.680  -0.042  10.339 -0.6383  0.7685  0.2983
  173SOPE   C3119603   6.573  -0.049  10.260  1.1695 -1.1413  0.6280
  173SOPE   O3219604   6.459  -0.014  10.295  0.3945 -0.0611  0.0840
  173SOPE   C3219605   6.615  -0.091  10.120 -0.2259 -0.2805  0.0808
  173SOPE   H2X19606   6.655  -0.194  10.125  0.1300 -0.0904  1.5544
  173SOPE   H2Y19607   6.696  -0.027  10.079  0.0376 -1.4825 -1.3849
  173SOPE   C2319608   7.012   0.232  10.292  0.2559 -0.5303 -0.5585
  173SOPE   H3R19609   7.081   0.314  10.264 -1.0555  0.4433 -1.0938
  173SOPE   H3S19610   6.928   0.275  10.350  0.0877 -0.6269 -0.7277
  173SOPE   C2419611   6.950   0.180  10.163 -0.7723  0.2408  0.5483
  173SOPE   H4R19612   7.033   0.126  10.113  0.3892  0.2981  2.3308
  173SOPE   H4S19613   6.863   0.114  10.184 -0.0941  0.0924  3.2159
  173SOPE   C2519614   6.905   0.287  10.065  0.1118 -0.8845  0.6471
  173SOPE   H5R19615   6.972   0.375  10.078  0.5731 -0.8203 -1.6961
  173SOPE   H5S19616   6.919   0.247   9.962  0.5376  2.9635 -0.9983
  173SOPE   C2619617   6.761   0.340  10.075  0.3910 -0.1932 -0.2192
  173SOPE   H6R19618   6.682   0.263  10.067  0.4395 -0.6762  2.7460
  173SOPE   H6S19619   6.751   0.378  10.179  1.5518  0.0183 -0.1652
  173SOPE   C2719620   6.737   0.461   9.986 -0.4841 -0.7318 -0.1029
  173SOPE   H7R19621   6.655   0.526  10.024 -1.0613 -1.5654  0.1103
  173SOPE   H7S19622   6.828   0.522   9.998 -1.0476 -0.0764  0.9889
  173SOPE   C2819623   6.689   0.430   9.840  0.0616  0.6736  0.7611
  173SOPE   H8R19624   6.761   0.362   9.789 -1.2161  0.1629 -0.4483
  173SOPE   H8S19625   6.593   0.374   9.847  0.7256 -1.0788 -2.1817
  173SOPE   C2919626   6.688   0.554   9.756 -0.0170 -0.1319  0.4869
  173SOPE   H9119627   6.732   0.639   9.809 -1.0162  0.2957  0.6550
  173SOPE  C21019628   6.622   0.577   9.642 -0.4997 -0.7899  0.6761
  173SOPE  H10119629   6.642   0.677   9.599 -0.8148 -0.7847  0.5390
  173SOPE  C21119630   6.538   0.486   9.556 -0.1627 -0.4899 -0.3556
  173SOPE  H11R19631   6.428   0.486   9.573 -0.0692 -1.9810  0.4525
  173SOPE  H11S19632   6.564   0.384   9.593  2.3276  1.0387  2.5312
  173SOPE  C21219633   6.566   0.500   9.399  0.3287 -0.3748  1.0717
  173SOPE  H12R19634   6.670   0.490   9.360 -0.2193  1.4289 -1.0454
  173SOPE  H12S19635   6.539   0.604   9.372  0.8991 -0.3710  0.5049
  173SOPE  C21319636   6.469   0.411   9.324 -0.0541 -0.2686  0.0391
  173SOPE  H13R19637   6.379   0.409   9.388 -0.6062 -1.7392 -0.7331
  173SOPE  H13S19638   6.496   0.304   9.310 -0.7150 -0.0786 -4.0152
  173SOPE  C21419639   6.439   0.451   9.178  0.0951 -0.0414 -0.0459
  173SOPE  H14R19640   6.372   0.539   9.183 -0.1607 -0.0199 -2.3855
  173SOPE  H14S19641   6.378   0.373   9.127 -0.4226 -0.3053  0.9579
  173SOPE  C21519642   6.563   0.481   9.094 -0.0663  0.8364  0.3477
  173SOPE  H15R19643   6.617   0.385   9.080 -0.2008  1.0233 -1.8970
  173SOPE  H15S19644   6.616   0.563   9.148  0.6166 -0.2873  1.4224
  173SOPE  C21619645   6.533   0.553   8.953 -0.3027  0.6981  0.2812
  173SOPE  H16R19646   6.626   0.563   8.893  0.1981  1.3653  1.1359
  173SOPE  H16S19647   6.506   0.658   8.978  2.4855  1.5497  0.1710
  173SOPE  C21719648   6.419   0.488   8.877  0.6905  0.2585 -0.2606
  173SOPE  H17R19649   6.322   0.522   8.918  0.1555  0.4148 -1.5881
  173SOPE  H17S19650   6.441   0.379   8.873 -1.3346 -0.1814 -1.7061
  173SOPE  C21819651   6.430   0.535   8.727 -0.0061  0.2772  0.0514
  173SOPE  H18R19652   6.360   0.476   8.663 -1.6587  0.6743  1.4120
  173SOPE  H18S19653   6.530   0.532   8.680 -0.6040  2.5946 -1.5461
  173SOPE  H18T19654   6.386   0.636   8.742 -0.9502 -0.4251  2.3269
  173SOPE   C3319655   6.496  -0.076  10.035 -0.2984 -0.0704  0.0328
  173SOPE   H3X19656   6.454   0.027  10.030 -0.0690  0.1104  1.3655
  173SOPE   H3Y19657   6.420  -0.144  10.079 -0.9601  1.3804  1.2667
  173SOPE   C3419658   6.545  -0.115   9.890  0.7913  0.4578 -0.6165
  173SOPE   H4X19659   6.453  -0.142   9.833 -0.4346 -1.0883  1.9366
  173SOPE   H4Y19660   6.607  -0.207   9.895 -0.2636 -0.2258  0.5556
  173SOPE   C3519661   6.604  -0.004   9.810  0.0499 -0.6658  0.5061
  173SOPE   H5X19662   6.701   0.033   9.850 -0.0815 -1.1018  1.2469
  173SOPE   H5Y19663   6.535   0.083   9.819 -1.3605 -1.6833 -0.2495
  173SOPE   C3619664   6.611  -0.052   9.669 -0.9258  0.1677 -0.2678
  173SOPE   H6X19665   6.510  -0.073   9.629 -0.8936  0.3043 -0.4226
  173SOPE   H6Y19666   6.668  -0.146   9.681 -1.2600 -0.0149 -0.0924
  173SOPE   C3719667   6.671   0.045   9.575 -0.5297 -0.1204  0.7692
  173SOPE   H7X19668   6.767   0.074   9.622 -0.5165 -0.5150  0.9874
  173SOPE   H7Y19669   6.612   0.137   9.555 -1.8100 -1.3921 -1.8484
  173SOPE   C3819670   6.689  -0.025   9.441  0.1110 -0.5752 -0.0002
  173SOPE   H8X19671   6.592  -0.048   9.391  0.0399 -1.3345  0.4757
  173SOPE   H8Y19672   6.736  -0.125   9.448 -0.1298 -0.6143  1.1133
  173SOPE   C3919673   6.758   0.073   9.347 -0.0801 -0.4718 -0.2684
  173SOPE   H9X19674   6.866   0.075   9.375  0.0039 -1.9287 -0.4121
  173SOPE   H9Y19675   6.731   0.180   9.353  0.7460  0.1686 -4.5694
  173SOPE  C31019676   6.755   0.018   9.206 -0.3482  0.1735  0.7924
  173SOPE  H10X19677   6.647   0.021   9.180 -0.6291 -0.8702  1.7583
  173SOPE  H10Y19678   6.796  -0.085   9.206 -0.9499 -0.0769  0.0390
  173SOPE  C31119679   6.830   0.111   9.105  0.5698  0.3325 -0.6407
  173SOPE  H11X19680   6.935   0.109   9.141  0.3247 -2.8223  0.1749
  173SOPE  H11Y19681   6.787   0.214   9.106  0.1599  0.1749  0.5447
  173SOPE  C31219682   6.824   0.076   8.958  0.4242  0.5742  0.4323
  173SOPE  H12X19683   6.834  -0.035   8.959 -2.3273  0.2735  0.3674
  173SOPE  H12Y19684   6.916   0.114   8.908  0.1289  0.7931  0.0497
  173SOPE  C31319685   6.698   0.124   8.883 -0.2806  0.2044  0.3023
  173SOPE  H13X19686   6.696   0.234   8.868  1.6656  0.0485 -1.4582
  173SOPE  H13Y19687   6.607   0.104   8.944 -0.6138 -0.0502 -0.2651
  173SOPE  C31419688   6.684   0.055   8.744  0.2215  0.0219 -0.5887
  173SOPE  H14X19689   6.775   0.079   8.684  0.9885  1.2557  0.9871
  173SOPE  H14Y19690   6.594   0.104   8.701  0.1182  0.8179  0.4982
  173SOPE  C31519691   6.659  -0.098   8.765 -0.2677 -0.4020  0.2356
  173SOPE  H15X19692   6.580  -0.114   8.841  1.1077  2.2598  2.3884
  173SOPE  H15Y19693   6.761  -0.141   8.780  0.2043  0.2376 -0.9714
  173SOPE  C31619694   6.607  -0.166   8.636 -0.0675  0.6350  0.6688
  173SOPE  H16X19695   6.497  -0.162   8.643 -0.1037 -1.7785  3.3097
  173SOPE  H16Y19696   6.622  -0.276   8.634  2.0780  0.8666 -1.8772
  173SOPE  C31719697   6.665  -0.131   8.498  0.0669 -0.0276 -0.6588
  173SOPE  H17X19698   6.775  -0.140   8.489  0.1991  1.6148 -0.9061
  173SOPE  H17Y19699   6.643  -0.026   8.471  0.0238 -0.0514 -0.7153
  173SOPE  C31819700   6.599  -0.208   8.385  0.1999  0.1241 -0.5400
  173SOPE  H18X19701   6.499  -0.171   8.353 -0.7180 -2.2600 -0.6051
  173SOPE  H18Y19702   6.599  -0.319   8.395  0.8050  0.1077 -0.6670
  173SOPE  H18Z19703   6.653  -0.177   8.293 -3.3962  0.6254 -2.6894
  174SOPE     N19704   6.345   6.762  10.753  0.0610  0.0577  0.1131
  174SOPE   HN119705   6.326   6.726  10.848 -2.3216 -0.2816 -0.4287
  174SOPE   HN219706   6.444   6.795  10.743 -0.4414  1.5506 -0.1942
  174SOPE   HN319707   6.281   6.840  10.730  2.6767  3.2200  2.5779
  174SOPE   C1219708   6.312   6.660  10.647  0.0147  0.1585  0.2014
  174SOPE  H12A19709   6.346   6.698  10.548 -0.9220 -0.6380 -0.4441
  174SOPE  H12B19710   6.202   6.647  10.637 -0.1093  1.8646 -1.0891
  174SOPE   C1119711   6.366   6.521  10.679  0.0303  0.3080 -0.3823
  174SOPE  H11A19712   6.363   6.456  10.588 -1.2533  0.8824 -0.7663
  174SOPE  H11B19713   6.299   6.467  10.749 -0.4102 -0.0721 -1.0857
  174SOPE     P19714   6.545   6.423  10.833  0.2552  0.0911  0.0376
  174SOPE   O1319715   6.483   6.441  10.962  0.1993  0.2976 -0.0158
  174SOPE   O1419716   6.694   6.416  10.832  0.2194 -0.1073 -0.1756
  174SOPE   O1219717   6.492   6.534  10.738 -0.5698 -0.2439  1.2459
  174SOPE   O1119718   6.485   6.298  10.766  0.3745  0.1834  0.3873
  174SOPE    C119719   6.573   6.213  10.688  0.3803  0.6365 -0.4531
  174SOPE    HA19720   6.519   6.119  10.667  0.6368  0.7604 -1.7643
  174SOPE    HB19721   6.674   6.196  10.732  0.7217  1.3574 -0.9238
  174SOPE    C219722   6.590   6.260  10.532 -0.4350 -0.6580 -0.3178
  174SOPE    HS19723   6.612   6.368  10.541 -0.7260 -0.6235 -0.0013
  174SOPE   O2119724   6.473   6.231  10.448 -0.1197  0.7671 -0.0528
  174SOPE   C2119725   6.462   6.302  10.349  0.1638 -0.4864  0.2096
  174SOPE   O2219726   6.537   6.396  10.317 -0.1545  0.4214 -0.5455
  174SOPE   C2219727   6.352   6.242  10.255  0.2871 -0.1942 -0.2920
  174SOPE   H2R19728   6.263   6.221  10.319  0.8571  0.3942  0.7148
  174SOPE   H2S19729   6.381   6.138  10.228 -1.2982 -0.8637  0.4545
  174SOPE    C319730   6.721   6.192  10.473  0.0922  0.2158 -0.3572
  174SOPE    HX19731   6.695   6.084  10.473  0.6800  0.0536 -1.8777
  174SOPE    HY19732   6.803   6.217  10.545  0.1430  2.3914 -1.1078
  174SOPE   O3119733   6.754   6.230  10.340 -0.2580  0.2042 -0.1888
  174SOPE   C3119734   6.828   6.340  10.326  0.2636 -0.0718 -0.0425
  174SOPE   O3219735   6.873   6.408  10.412 -0.0021  0.0659  0.1615
  174SOPE   C3219736   6.869   6.360  10.169  0.3161 -0.5550  0.1563
  174SOPE   H2X19737   6.768   6.364  10.122 -0.3812  1.5121  1.6585
  174SOPE   H2Y19738   6.935   6.277  10.134  0.3437  0.2015 -1.7390
  174SOPE   C2319739   6.312   6.331  10.142  0.5251 -0.2977 -0.1967
  174SOPE   H3R19740   6.335   6.436  10.168 -1.2424  0.1667 -0.3583
  174SOPE   H3S19741   6.204   6.314  10.121  0.7820 -0.0818 -1.8430
  174SOPE   C2419742   6.393   6.300  10.016 -0.1372 -0.1397  0.4553
  174SOPE   H4R19743   6.498   6.326  10.044 -0.7140  2.6032  0.3586
  174SOPE   H4S19744   6.379   6.192   9.996 -0.1200  0.1372 -1.2147
  174SOPE   C2519745   6.350   6.362   9.882  0.3888 -0.8371 -0.8974
  174SOPE   H5R19746   6.248   6.322   9.863 -0.4107  1.3301 -1.3270
  174SOPE   H5S19747   6.348   6.472   9.893  3.2725 -0.6074 -1.8392
  174SOPE   C2619748   6.448   6.326   9.767  0.4057 -0.6636 -0.1658
  174SOPE   H6R19749   6.541   6.384   9.785 -0.6457  1.0569 -0.0769
  174SOPE   H6S19750   6.488   6.222   9.772  1.2524 -0.4769 -1.9565
  174SOPE   C2719751   6.398   6.369   9.624  0.0468  0.1960 -0.3094
  174SOPE   H7R19752   6.320   6.300   9.584  0.5220 -0.3562 -0.2907
  174SOPE   H7S19753   6.348   6.467   9.638 -2.1186 -0.7598 -0.9517
  174SOPE   C2819754   6.515   6.390   9.521  0.2423 -0.7808 -0.3144
  174SOPE   H8R19755   6.470   6.428   9.427  2.1704 -0.7527 -1.2734
  174SOPE   H8S19756   6.580   6.470   9.564 -0.9597 -0.8805  1.8712
  174SOPE   C2919757   6.589   6.264   9.490 -0.4257 -0.4330  0.1282
  174SOPE   H9119758   6.670   6.238   9.560 -0.3792  1.5406  0.8846
  174SOPE  C21019759   6.570   6.189   9.385  0.2689  0.0413  0.3521
  174SOPE  H10119760   6.638   6.105   9.366 -1.6456 -1.0613 -2.3753
  174SOPE  C21119761   6.461   6.214   9.284 -0.3589 -0.1267  0.8466
  174SOPE  H11R19762   6.383   6.290   9.305 -1.5676 -0.3440 -2.3024
  174SOPE  H11S19763   6.396   6.130   9.253 -1.4874  1.9015 -2.8452
  174SOPE  C21219764   6.519   6.278   9.153 -0.3029  0.3572 -1.3184
  174SOPE  H12R19765   6.569   6.370   9.189 -1.2372 -0.0503  1.2107
  174SOPE  H12S19766   6.429   6.307   9.095 -2.7563  0.8105  2.3836
  174SOPE  C21319767   6.603   6.188   9.068  0.6372  0.4774  0.0862
  174SOPE  H13R19768   6.538   6.105   9.035  1.9751 -1.3214  1.7664
  174SOPE  H13S19769   6.685   6.150   9.132  0.8738  1.0387  0.1224
  174SOPE  C21419770   6.663   6.248   8.936  0.3728 -0.5394 -0.7460
  174SOPE  H14R19771   6.707   6.349   8.953  0.2896 -0.9385  2.2720
  174SOPE  H14S19772   6.575   6.274   8.873 -0.0524  1.6280  0.6178
  174SOPE  C21519773   6.758   6.158   8.870 -0.4502  0.2124  0.6078
  174SOPE  H15R19774   6.705   6.060   8.875 -0.5358  0.1190 -1.4982
  174SOPE  H15S19775   6.853   6.155   8.927  0.8945 -3.5718 -1.5359
  174SOPE  C21619776   6.778   6.193   8.727 -0.1740 -0.1652  0.2538
  174SOPE  H16R19777   6.874   6.160   8.682 -0.7666 -1.2090 -0.2754
  174SOPE  H16S19778   6.785   6.304   8.715  0.3230 -0.4067 -2.2559
  174SOPE  C21719779   6.671   6.140   8.636  0.1385 -0.7253 -0.5728
  174SOPE  H17R19780   6.571   6.168   8.676  1.4752  0.7765  2.0256
  174SOPE  H17S19781   6.667   6.029   8.647 -1.1925 -0.6587 -0.1867
  174SOPE  C21819782   6.693   6.175   8.490  0.2079 -0.3443 -0.2537
  174SOPE  H18R19783   6.608   6.129   8.434 -1.7092 -0.1315  2.2799
  174SOPE  H18S19784   6.793   6.151   8.448  0.0020  0.6430 -1.3438
  174SOPE  H18T19785   6.686   6.285   8.474  0.7722 -0.4889 -1.6184
  174SOPE   C3319786   6.947   6.482  10.131 -0.6512 -0.1377  0.1238
  174SOPE   H3X19787   7.053   6.475  10.164 -1.3153 -0.7854  2.2454
  174SOPE   H3Y19788   6.912   6.566  10.194  1.4473  2.8854 -2.3949
  174SOPE   C3419789   6.951   6.518   9.985  0.0447 -1.0799  0.2976
  174SOPE   H4X19790   6.851   6.535   9.939  0.0680 -2.3631 -0.2773
  174SOPE   H4Y19791   6.994   6.439   9.920 -1.5284 -1.7081 -0.0303
  174SOPE   C3519792   7.016   6.654   9.972 -0.1239  0.2309  0.8678
  174SOPE   H5X19793   7.121   6.628   9.996  0.0899  0.4197  0.1750
  174SOPE   H5Y19794   6.965   6.731  10.033  0.9871  1.3311  0.4601
  174SOPE   C3619795   7.017   6.713   9.830  0.0167  0.1727 -0.3611
  174SOPE   H6X19796   7.042   6.821   9.839 -1.2492  0.5270 -0.8682
  174SOPE   H6Y19797   6.910   6.713   9.800 -0.3499  0.8119  0.8918
  174SOPE   C3719798   7.111   6.652   9.728  0.2668 -0.1170  0.0888
  174SOPE   H7X19799   7.116   6.543   9.749  1.1742  0.4288  3.2001
  174SOPE   H7Y19800   7.217   6.679   9.742  0.0494  0.9633 -0.2928
  174SOPE   C3819801   7.059   6.681   9.586 -0.1061  0.5616 -0.2720
  174SOPE   H8X19802   7.069   6.791   9.581 -2.0384  0.8202  0.5735
  174SOPE   H8Y19803   6.955   6.644   9.571 -0.0357  0.2804 -0.0586
  174SOPE   C3919804   7.140   6.618   9.477 -0.9509  0.8788 -0.5910
  174SOPE   H9X19805   7.166   6.515   9.512 -1.5126  0.9095 -0.0522
  174SOPE   H9Y19806   7.241   6.663   9.463  1.5132 -3.4155  1.2275
  174SOPE  C31019807   7.061   6.601   9.344 -0.0834  0.0114 -0.0135
  174SOPE  H10X19808   7.052   6.697   9.288  1.5061 -1.0713 -2.3037
  174SOPE  H10Y19809   6.958   6.572   9.372  0.7586 -1.6445  1.5445
  174SOPE  C31119810   7.122   6.512   9.232 -0.3473  0.3127  0.2007
  174SOPE  H11X19811   7.148   6.417   9.284 -1.3472  0.2712  0.6437
  174SOPE  H11Y19812   7.211   6.561   9.187 -1.2986  0.1606 -1.9447
  174SOPE  C31219813   7.018   6.485   9.118  0.6499 -0.0339 -0.1200
  174SOPE  H12X19814   6.952   6.573   9.103  1.7004  0.5856 -1.4005
  174SOPE  H12Y19815   6.955   6.400   9.149  3.2687 -2.4285 -0.8611
  174SOPE  C31319816   7.083   6.456   8.986  0.4515 -0.3202  0.3001
  174SOPE  H13X19817   7.131   6.549   8.948  2.7325 -2.2720 -1.9045
  174SOPE  H13Y19818   7.006   6.437   8.908 -0.4732  1.7448  0.6410
  174SOPE  C31419819   7.186   6.340   8.988 -0.0766 -1.2400  1.0189
  174SOPE  H14X19820   7.151   6.264   9.062  0.5656 -1.4116  1.1537
  174SOPE  H14Y19821   7.277   6.380   9.037 -1.2601  0.1445  2.1788
  174SOPE  C31519822   7.201   6.263   8.851  0.3729  0.9792 -0.1739
  174SOPE  H15X19823   7.105   6.235   8.803  0.5626  2.9719 -1.8449
  174SOPE  H15Y19824   7.261   6.172   8.869 -0.5954  0.3403 -0.1354
  174SOPE  C31619825   7.275   6.341   8.742 -0.0377  0.1443 -0.3077
  174SOPE  H16X19826   7.372   6.355   8.793  1.3742 -0.5224 -2.6593
  174SOPE  H16Y19827   7.236   6.444   8.726  1.7630  1.0969  1.0891
  174SOPE  C31719828   7.297   6.270   8.610 -0.3354 -0.1338 -0.1841
  174SOPE  H17X19829   7.367   6.185   8.621  0.4556  0.7285  2.1630
  174SOPE  H17Y19830   7.358   6.333   8.541 -0.0860 -1.4327 -1.1818
  174SOPE  C31819831   7.164   6.252   8.534 -0.4643 -0.1822  0.0336
  174SOPE  H18X19832   7.079   6.207   8.588 -0.1245  0.8688  1.4870
  174SOPE  H18Y19833   7.184   6.189   8.444  2.3173  0.5693  0.0244
  174SOPE  H18Z19834   7.124   6.349   8.497  0.3427  0.1331 -0.0523
  175SOPE     N19835   2.185   1.620  10.780 -0.5608  0.5689  0.0457
  175SOPE   HN119836   2.287   1.634  10.766 -1.0304  2.2045 -2.2441
  175SOPE   HN219837   2.152   1.718  10.797  0.2448  0.9743 -0.6561
  175SOPE   HN319838   2.177   1.561  10.866 -0.6953 -0.4970 -0.6874
  175SOPE   C1219839   2.129   1.551  10.656 -0.5857 -0.0203  0.2786
  175SOPE  H12A19840   2.033   1.504  10.685 -0.0598 -0.3429  1.5487
  175SOPE  H12B19841   2.197   1.475  10.611 -2.4227 -2.8101  1.9453
  175SOPE   C1119842   2.095   1.647  10.540 -0.3390  0.4191 -0.2563
  175SOPE  H11A19843   2.017   1.718  10.577  1.7240  2.2260  0.8610
  175SOPE  H11B19844   2.064   1.585  10.453  0.9174  1.8131 -1.7640
  175SOPE     P19845   2.309   1.670  10.397  0.3217 -0.0602 -0.4210
  175SOPE   O1319846   2.367   1.549  10.460  0.4018 -0.3772  0.7732
  175SOPE   O1419847   2.394   1.777  10.352  0.3342 -0.1466  0.0859
  175SOPE   O1219848   2.203   1.728  10.500  0.0872  0.1758  0.3953
  175SOPE   O1119849   2.210   1.629  10.281 -0.6213  0.1569 -0.5511
  175SOPE    C119850   2.257   1.552  10.169 -0.1191  0.3771  0.7925
  175SOPE    HA19851   2.166   1.526  10.110  0.2798  1.3995 -0.3040
  175SOPE    HB19852   2.307   1.455  10.188  0.2791 -0.5111 -3.5562
  175SOPE    C219853   2.343   1.635  10.071  0.1732  0.4965  0.2094
  175SOPE    HS19854   2.441   1.655  10.119  0.4828 -1.2939  0.3958
  175SOPE   O2119855   2.272   1.749  10.023 -0.0407 -0.0372 -0.0647
  175SOPE   C2119856   2.351   1.855  10.014  0.5563  0.2307  0.0524
  175SOPE   O2219857   2.474   1.856  10.026  0.3154 -0.0366  0.5803
  175SOPE   C2219858   2.254   1.980  10.006  0.4450  0.0141  0.3985
  175SOPE   H2R19859   2.281   2.047  10.091  0.2923  2.1296 -1.1448
  175SOPE   H2S19860   2.149   1.948  10.017  0.2584  0.3941 -0.2608
  175SOPE    C319861   2.395   1.533   9.958 -0.0448  0.1905 -0.3597
  175SOPE    HX19862   2.309   1.473   9.923 -1.4631  1.2190  1.2434
  175SOPE    HY19863   2.461   1.453   9.999 -2.6278 -1.2773  1.1610
  175SOPE   O3119864   2.457   1.602   9.848  0.1096  0.2266  0.0564
  175SOPE   C3119865   2.588   1.636   9.871 -0.0016 -0.3623  0.4206
  175SOPE   O3219866   2.647   1.597   9.970 -0.0989 -0.5242 -0.0081
  175SOPE   C3219867   2.634   1.731   9.762  0.4233 -0.4480 -0.1327
  175SOPE   H2X19868   2.586   1.829   9.786  0.1555 -0.3014 -1.2390
  175SOPE   H2Y19869   2.602   1.692   9.663  1.2971  0.9916 -1.0048
  175SOPE   C2319870   2.263   2.055   9.869  0.3159  0.4373 -0.2510
  175SOPE   H3R19871   2.371   2.059   9.844  0.3738  1.4013  0.1246
  175SOPE   H3S19872   2.230   2.161   9.874  0.6752  0.5246  0.3567
  175SOPE   C2419873   2.196   1.978   9.758  0.2870  0.0756 -0.6522
  175SOPE   H4R19874   2.126   1.905   9.804  2.2360 -1.2881  0.3240
  175SOPE   H4S19875   2.142   2.050   9.694  0.7634 -0.1018 -1.2726
  175SOPE   C2519876   2.293   1.900   9.669 -0.5230 -0.9398 -0.1632
  175SOPE   H5R19877   2.362   1.974   9.624 -0.0212 -0.4775  1.3062
  175SOPE   H5S19878   2.349   1.827   9.732  1.7612 -0.8518 -1.9817
  175SOPE   C2619879   2.215   1.816   9.564  0.6562  0.0054 -0.4200
  175SOPE   H6R19880   2.139   1.744   9.599 -0.3403  1.8546  1.4977
  175SOPE   H6S19881   2.167   1.885   9.491 -1.1808 -2.4674 -1.7090
  175SOPE   C2719882   2.309   1.729   9.472  0.3871  0.2009 -0.4629
  175SOPE   H7R19883   2.375   1.806   9.428 -0.0094  1.2362  0.7147
  175SOPE   H7S19884   2.368   1.669   9.545 -0.9532 -0.1027  0.4023
  175SOPE   C2819885   2.224   1.642   9.380 -0.0610 -0.5729  0.6763
  175SOPE   H8R19886   2.299   1.566   9.347 -0.4739 -0.6590 -0.1010
  175SOPE   H8S19887   2.146   1.597   9.445 -1.1026 -0.1213 -0.2419
  175SOPE   C2919888   2.152   1.717   9.267 -0.3262  0.2424 -0.0852
  175SOPE   H9119889   2.080   1.795   9.297 -1.3603  0.2626 -2.4240
  175SOPE  C21019890   2.176   1.704   9.133 -0.2059 -0.7486 -0.9002
  175SOPE  H10119891   2.119   1.765   9.061 -0.6618 -1.2805 -0.9901
  175SOPE  C21119892   2.275   1.614   9.075 -0.0959  0.8723  1.2254
  175SOPE  H11R19893   2.328   1.547   9.146 -1.4020 -3.6912 -1.6220
  175SOPE  H11S19894   2.345   1.668   9.007  1.2491 -1.9561  0.1935
  175SOPE  C21219895   2.209   1.511   8.975  1.0214 -0.7718 -0.1356
  175SOPE  H12R19896   2.116   1.466   9.014  1.3564 -1.9217 -0.6089
  175SOPE  H12S19897   2.286   1.431   8.968  1.6862 -0.1027 -0.5645
  175SOPE  C21319898   2.181   1.565   8.829  0.1872 -0.0845 -0.2142
  175SOPE  H13R19899   2.268   1.630   8.804 -1.0244  0.9031 -2.1186
  175SOPE  H13S19900   2.086   1.621   8.843 -0.0213  0.0801 -1.9795
  175SOPE  C21419901   2.144   1.449   8.735 -0.2394  0.1932  0.4119
  175SOPE  H14R19902   2.070   1.493   8.665  1.2432  0.0643 -1.3064
  175SOPE  H14S19903   2.093   1.367   8.790  1.9710 -1.2003  0.5205
  175SOPE  C21519904   2.264   1.395   8.658 -0.0584 -0.1135  0.5943
  175SOPE  H15R19905   2.342   1.362   8.730  1.2895  0.5520 -0.5155
  175SOPE  H15S19906   2.309   1.482   8.605 -1.5599  1.5051  1.8499
  175SOPE  C21619907   2.233   1.279   8.570  0.3386  0.1110 -0.0254
  175SOPE  H16R19908   2.149   1.298   8.500 -1.0171  1.1988  1.7815
  175SOPE  H16S19909   2.190   1.189   8.620  0.0327 -0.6410 -1.5729
  175SOPE  C21719910   2.351   1.237   8.488  0.1350  0.3160  0.7929
  175SOPE  H17R19911   2.329   1.139   8.441  0.2905  1.6035 -2.1446
  175SOPE  H17S19912   2.443   1.237   8.551  0.7346  1.2964 -0.0345
  175SOPE  C21819913   2.375   1.330   8.371  0.2118 -0.1539 -0.0200
  175SOPE  H18R19914   2.351   1.437   8.392 -1.9080 -0.2957 -1.3290
  175SOPE  H18S19915   2.307   1.314   8.285 -0.1933  1.8135 -0.1255
  175SOPE  H18T19916   2.481   1.333   8.337 -0.1407 -0.5359 -1.2087
  175SOPE   C3319917   2.785   1.733   9.759  0.3214  0.5909  0.1652
  175SOPE   H3X19918   2.839   1.637   9.746 -0.2662  0.2216  0.4225
  175SOPE   H3Y19919   2.827   1.767   9.856  2.7411  2.0351 -1.2811
  175SOPE   C3419920   2.854   1.831   9.670 -0.6181  0.2673  0.1576
  175SOPE   H4X19921   2.963   1.817   9.689 -0.7842 -1.0131  0.2169
  175SOPE   H4Y19922   2.837   1.940   9.689  1.3333  0.9878 -1.8092
  175SOPE   C3519923   2.848   1.815   9.518  0.4802 -0.2550  0.2639
  175SOPE   H5X19924   2.762   1.874   9.481  0.1148 -0.5760  0.5885
  175SOPE   H5Y19925   2.829   1.710   9.486  3.0397 -0.2776 -1.4451
  175SOPE   C3619926   2.971   1.854   9.444 -0.4065 -0.4452  0.0141
  175SOPE   H6X19927   3.050   1.787   9.484 -0.9070 -1.3042 -0.4082
  175SOPE   H6Y19928   3.003   1.959   9.465 -2.7803  0.3837 -0.1602
  175SOPE   C3719929   2.946   1.834   9.297  0.2767 -0.2971 -0.0226
  175SOPE   H7X19930   2.873   1.907   9.256 -0.3160 -1.2864 -0.7657
  175SOPE   H7Y19931   2.905   1.734   9.274  1.4418 -0.1773 -3.0159
  175SOPE   C3819932   3.073   1.863   9.221 -1.1375  0.0505  0.0839
  175SOPE   H8X19933   3.160   1.805   9.256 -0.5621  1.6392  1.4289
  175SOPE   H8Y19934   3.104   1.967   9.247 -1.6421  0.5850 -1.3529
  175SOPE   C3919935   3.043   1.853   9.072 -0.0606 -0.1681 -0.1955
  175SOPE   H9X19936   2.958   1.918   9.040  0.9383  0.5281 -1.5544
  175SOPE   H9Y19937   3.023   1.745   9.055 -0.9562  0.2151 -1.7789
  175SOPE  C31019938   3.166   1.894   9.001 -0.1307 -0.6936  0.1922
  175SOPE  H10X19939   3.247   1.820   9.019  0.7684 -0.1539 -1.4430
  175SOPE  H10Y19940   3.200   1.995   9.034 -0.5781 -0.5028  0.0769
  175SOPE  C31119941   3.164   1.909   8.846 -0.1682  0.4425  0.2088
  175SOPE  H11X19942   3.073   1.868   8.796  0.0306  2.2404 -1.7761
  175SOPE  H11Y19943   3.252   1.853   8.808 -2.1827 -3.5277  0.8748
  175SOPE  C31219944   3.166   2.050   8.795  0.2021  0.3023 -0.3370
  175SOPE  H12X19945   3.255   2.102   8.836 -1.1804  1.2054  1.6987
  175SOPE  H12Y19946   3.077   2.100   8.839 -0.2058 -1.2086  0.5991
  175SOPE  C31319947   3.166   2.058   8.647 -0.0895 -0.1610  0.2608
  175SOPE  H13X19948   3.072   2.017   8.607  0.2252  0.4040 -1.1154
  175SOPE  H13Y19949   3.252   1.995   8.616  0.0598  0.1558  0.0149
  175SOPE  C31419950   3.193   2.196   8.594 -0.6506 -0.9431  0.6593
  175SOPE  H14X19951   3.297   2.225   8.619 -1.0399  1.7457 -0.3996
  175SOPE  H14Y19952   3.130   2.276   8.639  1.9798  0.5959  1.8021
  175SOPE  C31519953   3.170   2.200   8.439  0.2229  0.8775 -0.3094
  175SOPE  H15X19954   3.211   2.300   8.416 -0.3486  0.7033 -2.3031
  175SOPE  H15Y19955   3.060   2.191   8.421  0.7047 -1.4803 -2.8564
  175SOPE  C31619956   3.235   2.088   8.356  0.3675  0.0148  0.0835
  175SOPE  H16X19957   3.220   2.112   8.249  0.2187 -0.0021  0.1008
  175SOPE  H16Y19958   3.201   1.983   8.372  2.0759 -0.8505 -1.6217
  175SOPE  C31719959   3.396   2.087   8.374  0.2158 -0.1441  1.0048
  175SOPE  H17X19960   3.408   2.062   8.482 -3.2424  0.4440  1.6644
  175SOPE  H17Y19961   3.419   2.194   8.353 -2.5133  0.3352  0.0793
  175SOPE  C31819962   3.480   2.004   8.273 -0.0001 -0.0599 -0.2156
  175SOPE  H18X19963   3.430   2.000   8.174 -0.7851  0.4355  0.1502
  175SOPE  H18Y19964   3.491   1.901   8.314 -1.0539  0.8411  2.6213
  175SOPE  H18Z19965   3.584   2.040   8.258 -0.2185  0.5308 -0.3282
  176SOPE     N19966   2.473   1.310  10.567  0.4800 -0.4354 -0.0667
  176SOPE   HN119967   2.430   1.403  10.552  0.9878 -0.5749 -2.8774
  176SOPE   HN219968   2.533   1.291  10.649  1.2614 -3.0453 -1.1374
  176SOPE   HN319969   2.541   1.293  10.490  1.0171  0.6223  0.1503
  176SOPE   C1219970   2.371   1.200  10.571 -1.1458  0.1166  0.7440
  176SOPE  H12A19971   2.293   1.234  10.642 -1.4135  0.9042  0.0917
  176SOPE  H12B19972   2.419   1.105  10.604 -1.2113 -0.4853 -0.7795
  176SOPE   C1119973   2.302   1.184  10.430  0.2069 -0.4656 -0.3190
  176SOPE  H11A19974   2.271   1.285  10.398 -0.3555 -0.3594  0.5267
  176SOPE  H11B19975   2.211   1.125  10.455  0.0282  0.5164  1.5186
  176SOPE     P19976   2.476   1.205  10.221 -0.1758 -0.4260  0.0485
  176SOPE   O1319977   2.570   1.106  10.167 -0.1549 -0.1370 -0.5459
  176SOPE   O1419978   2.535   1.329  10.275 -0.1692 -0.1051  0.1114
  176SOPE   O1219979   2.395   1.129  10.333  0.6426  0.1469 -0.3571
  176SOPE   O1119980   2.366   1.245  10.114 -0.1241  0.1723  0.0545
  176SOPE    C119981   2.289   1.138  10.050 -1.0949 -1.0823 -0.2634
  176SOPE    HA19982   2.190   1.182  10.026 -0.9464  1.3626  2.8891
  176SOPE    HB19983   2.280   1.053  10.121  0.7873 -0.5335  0.7136
  176SOPE    C219984   2.363   1.091   9.927 -0.0777 -0.1883  0.0153
  176SOPE    HS19985   2.463   1.055   9.958 -0.2690 -2.0803 -1.4210
  176SOPE   O2119986   2.377   1.199   9.839 -0.0075 -0.5267 -0.1559
  176SOPE   C2119987   2.485   1.203   9.765 -0.2772 -0.5213  0.0610
  176SOPE   O2219988   2.573   1.122   9.770  0.4224 -0.0877  0.6846
  176SOPE   C2219989   2.475   1.317   9.657  0.0397  0.2196  0.5572
  176SOPE   H2R19990   2.580   1.348   9.640  0.0234 -0.4329 -0.8911
  176SOPE   H2S19991   2.398   1.387   9.696 -2.3098 -1.8151 -0.1461
  176SOPE    C319992   2.264   0.991   9.858  0.2777 -0.8144  0.8932
  176SOPE    HX19993   2.170   1.045   9.834  0.9064 -0.7046 -1.5577
  176SOPE    HY19994   2.231   0.920   9.938 -0.1690  0.3127  1.7484
  176SOPE   O3119995   2.309   0.934   9.734  0.1441 -0.3727  0.1118
  176SOPE   C3119996   2.275   0.811   9.699  0.3002 -0.3957 -0.0566
  176SOPE   O3219997   2.222   0.729   9.771 -0.0470 -0.5120 -0.7269
  176SOPE   C3219998   2.327   0.785   9.561 -0.0830  0.3388  0.4274
  176SOPE   H2X19999   2.368   0.683   9.573  0.7050  0.5994 -0.0238
  176SOPE   H2Y20000   2.411   0.851   9.534  1.5393 -2.5668 -2.2773
  176SOPE   C2320001   2.436   1.256   9.518 -0.3658 -0.0571  0.2516
  176SOPE   H3R20002   2.389   1.337   9.459 -0.8375  0.2747  1.0669
  176SOPE   H3S20003   2.353   1.182   9.518  0.2384 -0.8662 -2.7083
  176SOPE   C2420004   2.546   1.189   9.433 -0.2749  0.4446 -0.1418
  176SOPE   H4R20005   2.579   1.095   9.482 -1.7530  0.0116  0.0654
  176SOPE   H4S20006   2.495   1.155   9.340 -1.6534 -1.7070  1.3286
  176SOPE   C2520007   2.669   1.285   9.407 -0.3498  0.2196 -0.5359
  176SOPE   H5R20008   2.711   1.322   9.502  0.7359 -0.3800 -0.7678
  176SOPE   H5S20009   2.749   1.223   9.362 -0.1799  0.1599 -0.1506
  176SOPE   C2620010   2.634   1.410   9.320 -0.5025  0.3561 -0.3369
  176SOPE   H6R20011   2.561   1.476   9.372 -0.5376  0.9205 -1.0743
  176SOPE   H6S20012   2.727   1.465   9.294 -0.1742  0.1352  0.3531
  176SOPE   C2720013   2.567   1.363   9.189 -0.0545 -0.0048  0.0289
  176SOPE   H7R20014   2.631   1.278   9.156  2.2803  2.1668 -1.4678
  176SOPE   H7S20015   2.464   1.331   9.213 -0.0038 -1.1108 -1.1259
  176SOPE   C2820016   2.570   1.459   9.073 -0.3651 -0.4313 -0.0930
  176SOPE   H8R20017   2.494   1.420   9.003  0.4183 -2.0293 -0.1113
  176SOPE   H8S20018   2.536   1.560   9.103 -1.5175 -1.1404  1.1401
  176SOPE   C2920019   2.708   1.462   9.011 -0.0762 -0.0069  0.7149
  176SOPE   H9120020   2.782   1.397   9.059 -1.4516 -0.6151  2.1127
  176SOPE  C21020021   2.736   1.543   8.904  0.2888 -0.4747  0.2323
  176SOPE  H10120022   2.838   1.553   8.864 -0.0864  1.2895 -0.3808
  176SOPE  C21120023   2.652   1.630   8.822 -0.0983  0.2743 -0.8055
  176SOPE  H11R20024   2.558   1.650   8.878  1.5425  2.3139  1.4253
  176SOPE  H11S20025   2.632   1.589   8.721  0.1068  0.9251 -1.1174
  176SOPE  C21220026   2.721   1.764   8.791 -0.2872 -0.6217 -0.5960
  176SOPE  H12R20027   2.746   1.814   8.887 -1.9373  0.2289 -0.5746
  176SOPE  H12S20028   2.642   1.826   8.743 -0.4978 -0.3115  0.1294
  176SOPE  C21320029   2.842   1.754   8.701  0.1753 -0.3468 -0.1859
  176SOPE  H13R20030   2.926   1.699   8.750  1.5790 -0.0594 -2.1349
  176SOPE  H13S20031   2.879   1.857   8.682 -0.7081  0.0683  0.2784
  176SOPE  C21420032   2.815   1.702   8.564  0.3894  0.3912  1.4775
  176SOPE  H14R20033   2.747   1.769   8.509 -0.3327 -1.1819  0.3987
  176SOPE  H14S20034   2.780   1.598   8.579 -0.4017  0.3408 -0.4514
  176SOPE  C21520035   2.942   1.689   8.477  0.0444 -0.2222  0.9313
  176SOPE  H15R20036   2.976   1.793   8.460  4.3753 -1.8476 -2.0800
  176SOPE  H15S20037   2.915   1.636   8.383  0.5142  0.0484  0.6423
  176SOPE  C21620038   3.055   1.608   8.540 -0.0350  0.2708  0.1660
  176SOPE  H16R20039   3.011   1.509   8.563 -1.6481  1.2412  1.4262
  176SOPE  H16S20040   3.101   1.657   8.628  0.7516  4.0950 -2.1159
  176SOPE  C21720041   3.177   1.588   8.446  0.5441  0.4237 -0.1808
  176SOPE  H17R20042   3.147   1.552   8.345  0.3585 -0.4023  0.1578
  176SOPE  H17S20043   3.235   1.510   8.501  0.5388 -0.2686 -1.1274
  176SOPE  C21820044   3.265   1.712   8.429 -0.9435  0.6847  0.3525
  176SOPE  H18R20045   3.352   1.676   8.371 -0.2630  2.1505  0.4369
  176SOPE  H18S20046   3.289   1.753   8.529 -2.2152  2.1835  0.0778
  176SOPE  H18T20047   3.209   1.787   8.369  0.4230  0.0973 -1.7715
  176SOPE   C3320048   2.228   0.785   9.443 -0.3724 -0.2217 -0.7718
  176SOPE   H3X20049   2.181   0.884   9.426 -0.2603  0.0032  0.1277
  176SOPE   H3Y20050   2.146   0.710   9.453 -2.3447  1.9633  0.5607
  176SOPE   C3420051   2.292   0.757   9.294  0.5037  0.4025 -0.3846
  176SOPE   H4X20052   2.367   0.837   9.273 -0.3407  0.9880 -1.2913
  176SOPE   H4Y20053   2.215   0.774   9.216 -1.8766 -2.2962  1.1943
  176SOPE   C3520054   2.343   0.617   9.267 -0.5477 -0.4476  0.3077
  176SOPE   H5X20055   2.269   0.546   9.311 -1.8581  0.3053 -0.6121
  176SOPE   H5Y20056   2.436   0.611   9.328  1.1230  1.3014 -1.8958
  176SOPE   C3620057   2.371   0.575   9.122  0.0503  0.1684  0.2287
  176SOPE   H6X20058   2.390   0.465   9.121  1.3113  0.3488 -1.8116
  176SOPE   H6Y20059   2.458   0.629   9.080 -0.5249  0.9504  0.0257
  176SOPE   C3720060   2.241   0.597   9.034 -0.5606 -0.3953  1.0250
  176SOPE   H7X20061   2.224   0.705   9.019  1.5442  0.1114  1.9504
  176SOPE   H7Y20062   2.155   0.549   9.085 -2.3098  1.3100 -0.1770
  176SOPE   C3820063   2.265   0.531   8.894 -0.1811  0.6137 -0.0074
  176SOPE   H8X20064   2.318   0.436   8.919  0.6693  1.5751  2.0329
  176SOPE   H8Y20065   2.340   0.588   8.836  1.3667  0.9482  2.2251
  176SOPE   C3920066   2.140   0.499   8.806  0.3065 -0.5744  0.0929
  176SOPE   H9X20067   2.112   0.586   8.742  2.2960 -1.2916 -1.8576
  176SOPE   H9Y20068   2.052   0.480   8.872  0.1036 -0.8440 -0.2522
  176SOPE  C31020069   2.163   0.380   8.712 -0.3010 -0.3926 -0.9817
  176SOPE  H10X20070   2.065   0.355   8.666 -1.1690  1.5768 -0.3491
  176SOPE  H10Y20071   2.183   0.298   8.784 -1.1154 -0.2162 -0.5275
  176SOPE  C31120072   2.282   0.399   8.617  0.1644 -0.1788  0.5918
  176SOPE  H11X20073   2.361   0.397   8.695 -1.9522 -0.4579  2.8771
  176SOPE  H11Y20074   2.280   0.502   8.574  0.0513 -0.4873 -0.1646
  176SOPE  C31220075   2.310   0.291   8.508  0.1911 -0.2360 -0.6189
  176SOPE  H12X20076   2.237   0.296   8.423 -0.4430 -0.1588 -0.0758
  176SOPE  H12Y20077   2.297   0.194   8.559 -1.3866  0.3234  0.1201
  176SOPE  C31320078   2.452   0.318   8.455  0.4584  0.0511  0.0731
  176SOPE  H13X20079   2.514   0.338   8.545  0.2214 -1.3241  0.5765
  176SOPE  H13Y20080   2.441   0.413   8.399 -0.0362 -0.6345 -1.0293
  176SOPE  C31420081   2.496   0.201   8.369 -0.6676 -0.0009 -0.3110
  176SOPE  H14X20082   2.490   0.110   8.433 -0.3867  0.8652  0.9847
  176SOPE  H14Y20083   2.603   0.221   8.347 -0.9832  0.9687 -1.0099
  176SOPE  C31520084   2.417   0.177   8.243  0.1905 -0.0768 -0.3463
  176SOPE  H15X20085   2.414   0.270   8.183  1.3225  0.2288  0.0578
  176SOPE  H15Y20086   2.315   0.153   8.280  0.3729 -0.9924 -0.4107
  176SOPE  C31620087   2.463   0.064   8.158 -0.3883  0.9151  0.8961
  176SOPE  H16X20088   2.455  -0.030   8.216  1.3165 -0.6604 -1.2903
  176SOPE  H16Y20089   2.570   0.079   8.133 -0.2283 -0.8142  0.4476
  176SOPE  C31720090   2.384   0.052   8.028 -0.3378  0.6913  0.0417
  176SOPE  H17X20091   2.388   0.144   7.965  0.2232  0.4772 -0.2391
  176SOPE  H17Y20092   2.287   0.058   8.082  0.4582 -1.3521  1.8166
  176SOPE  C31820093   2.408  -0.075   7.955  0.4832  0.2887 -0.1439
  176SOPE  H18X20094   2.322  -0.080   7.884  0.1549  1.5821  0.1413
  176SOPE  H18Y20095   2.415  -0.165   8.020  1.2714 -0.7799 -1.6309
  176SOPE  H18Z20096   2.505  -0.079   7.902 -0.1247 -3.7723 -1.3102
  177SOPE     N20097   0.381   6.531  10.712  0.7234  0.0640 -0.6424
  177SOPE   HN120098   0.427   6.476  10.637  0.4228 -0.6809 -0.2928
  177SOPE   HN220099   0.288   6.486  10.723  1.1150 -0.7892 -0.7913
  177SOPE   HN320100   0.351   6.629  10.692  1.0199  0.6809  1.6010
  177SOPE   C1220101   0.457   6.525  10.835  0.2855  0.4658 -0.0778
  177SOPE  H12A20102   0.385   6.557  10.914  0.0697  0.8781 -0.4375
  177SOPE  H12B20103   0.536   6.602  10.823  1.7184 -0.5998  1.8698
  177SOPE   C1120104   0.516   6.385  10.866  0.0815 -0.4867 -0.2809
  177SOPE  H11A20105   0.427   6.319  10.879 -0.4896  0.6741  2.4108
  177SOPE  H11B20106   0.569   6.393  10.964 -0.6256  2.7852 -0.0448
  177SOPE     P20107   0.664   6.220  10.728  0.0959 -0.1749 -0.6228
  177SOPE   O1320108   0.558   6.121  10.712  0.5794 -0.0843 -0.3510
  177SOPE   O1420109   0.759   6.188  10.838 -0.1006  0.0801  1.2341
  177SOPE   O1220110   0.604   6.361  10.755  0.3787 -0.1891  0.6345
  177SOPE   O1120111   0.738   6.253  10.595  0.5889 -0.6027  0.0481
  177SOPE    C120112   0.810   6.375  10.565  0.2599  0.2559 -0.3585
  177SOPE    HA20113   0.899   6.381  10.632 -0.0598 -2.4948  0.4264
  177SOPE    HB20114   0.755   6.469  10.587  1.4506  1.2198 -1.3207
  177SOPE    C220115   0.863   6.386  10.414  0.0692 -0.3839  0.2128
  177SOPE    HS20116   0.912   6.485  10.400 -3.5623  1.6479  0.4803
  177SOPE   O2120117   0.736   6.387  10.333  0.0332 -0.1100 -0.2495
  177SOPE   C2120118   0.754   6.436  10.216  0.1100 -0.0727 -0.1849
  177SOPE   O2220119   0.857   6.490  10.177  0.5657  0.1544 -0.2720
  177SOPE   C2220120   0.628   6.425  10.129  0.7331 -0.1473 -0.2646
  177SOPE   H2R20121   0.578   6.522  10.145  0.0844 -0.5087 -0.0565
  177SOPE   H2S20122   0.562   6.339  10.152 -0.8364  0.2916 -2.7299
  177SOPE    C320123   0.946   6.259  10.378  0.5988 -0.5093 -0.0413
  177SOPE    HX20124   0.864   6.183  10.378 -2.4557  2.4935  1.7202
  177SOPE    HY20125   1.021   6.228  10.454  0.1369 -1.5339  0.0197
  177SOPE   O3120126   1.000   6.264  10.241 -0.3882  0.3111  0.0618
  177SOPE   C3120127   1.123   6.323  10.228 -0.2571  0.1935  0.2935
  177SOPE   O3220128   1.191   6.349  10.322 -0.4533 -0.0969  0.0916
  177SOPE   C3220129   1.167   6.332  10.076  0.3965  0.3461 -0.5043
  177SOPE   H2X20130   1.277   6.322  10.065  0.8112  2.1935  1.1727
  177SOPE   H2Y20131   1.135   6.434  10.046 -0.2183  0.4533  0.4618
  177SOPE   C2320132   0.667   6.409   9.979 -0.0559  0.2081 -0.1533
  177SOPE   H3R20133   0.744   6.330   9.966 -0.2372  0.2601 -1.6197
  177SOPE   H3S20134   0.716   6.499   9.936  1.0047  0.2106  0.9967
  177SOPE   C2420135   0.540   6.378   9.888 -0.2817 -0.3213  0.8641
  177SOPE   H4R20136   0.488   6.281   9.905 -0.7202 -0.0359  1.1763
  177SOPE   H4S20137   0.471   6.464   9.894  0.1845 -0.0047  1.7609
  177SOPE   C2520138   0.583   6.376   9.742 -1.1066  0.2339 -0.1540
  177SOPE   H5R20139   0.496   6.400   9.677 -0.7474 -0.6667 -0.9940
  177SOPE   H5S20140   0.660   6.455   9.724 -0.4697 -0.1220  0.9132
  177SOPE   C2620141   0.646   6.242   9.701 -0.5862  0.0308  0.1361
  177SOPE   H6R20142   0.710   6.189   9.775  0.3818  1.1166  0.1069
  177SOPE   H6S20143   0.557   6.180   9.676 -1.2073  0.4393  1.2523
  177SOPE   C2720144   0.745   6.249   9.582  0.1973 -0.3531 -0.7225
  177SOPE   H7R20145   0.698   6.313   9.505  0.1376 -1.7889 -1.9109
  177SOPE   H7S20146   0.843   6.291   9.614 -0.3158 -0.1646  0.6710
  177SOPE   C2820147   0.753   6.110   9.507  0.5283  0.0168  0.1496
  177SOPE   H8R20148   0.768   6.026   9.578 -0.4197 -0.8299 -0.6197
  177SOPE   H8S20149   0.658   6.098   9.451  0.8025 -0.2129 -0.2720
  177SOPE   C2920150   0.869   6.110   9.413  0.0228  0.3967  0.3763
  177SOPE   H9120151   0.964   6.109   9.469  1.0218 -1.2556 -1.2639
  177SOPE  C21020152   0.875   6.099   9.282 -0.2008  0.4608  0.4956
  177SOPE  H10120153   0.973   6.099   9.232 -0.9162  1.4083 -0.9764
  177SOPE  C21120154   0.757   6.089   9.192 -0.1061  0.5393 -0.3596
  177SOPE  H11R20155   0.663   6.122   9.242 -0.0808 -0.8319  0.6655
  177SOPE  H11S20156   0.730   5.986   9.160  1.1875  0.2449 -0.5387
  177SOPE  C21220157   0.765   6.177   9.062  0.3177  0.1049  0.3141
  177SOPE  H12R20158   0.785   6.284   9.084  1.3511 -0.0939  0.3770
  177SOPE  H12S20159   0.670   6.182   9.004 -0.1227 -0.5442  0.9764
  177SOPE  C21320160   0.869   6.124   8.958  0.0888 -0.9722 -0.4039
  177SOPE  H13R20161   0.858   6.015   8.941 -1.3982 -1.4750  2.9676
  177SOPE  H13S20162   0.972   6.142   8.997  0.4873 -0.4181 -1.6666
  177SOPE  C21420163   0.843   6.201   8.826 -0.1416  0.6639  0.0232
  177SOPE  H14R20164   0.835   6.312   8.833  0.6986  0.8665 -1.7123
  177SOPE  H14S20165   0.748   6.162   8.783  1.2969 -0.3895 -2.3719
  177SOPE  C21520166   0.938   6.164   8.711  0.1260  0.1166  0.0858
  177SOPE  H15R20167   0.939   6.055   8.689  0.5232 -0.4348  2.5606
  177SOPE  H15S20168   1.034   6.202   8.751  0.3114  0.1928 -0.4371
  177SOPE  C21620169   0.911   6.233   8.573 -0.0163  0.2675 -0.5756
  177SOPE  H16R20170   0.916   6.343   8.587  0.9579  0.2633 -0.8326
  177SOPE  H16S20171   0.806   6.210   8.543 -0.5916 -0.6631  1.9242
  177SOPE  C21720172   0.999   6.189   8.450 -0.3946 -0.6285  0.0015
  177SOPE  H17R20173   1.102   6.160   8.481 -0.2710 -2.3707 -1.8680
  177SOPE  H17S20174   0.995   6.271   8.376  1.1695  0.9913  1.5831
  177SOPE  C21820175   0.949   6.065   8.383  0.0706  0.2907 -0.3078
  177SOPE  H18R20176   0.843   6.069   8.351  0.1160  1.4684 -0.3405
  177SOPE  H18S20177   0.958   5.973   8.444 -2.0250 -0.0266 -0.4187
  177SOPE  H18T20178   1.010   6.058   8.290 -0.2712  2.4345 -0.7374
  177SOPE   C3320179   1.084   6.240   9.984 -0.2577 -0.4716 -0.7206
  177SOPE   H3X20180   1.111   6.270   9.880  1.4440  2.7784  0.4768
  177SOPE   H3Y20181   0.974   6.246   9.996 -0.1361  1.0249 -0.1169
  177SOPE   C3420182   1.118   6.092  10.003 -0.3163  0.2064  0.1382
  177SOPE   H4X20183   1.074   6.061  10.100 -1.7640  0.1160 -0.5179
  177SOPE   H4Y20184   1.228   6.074  10.003 -0.5398 -1.6938 -2.3015
  177SOPE   C3520185   1.059   6.006   9.899  0.3005  0.3965  0.2206
  177SOPE   H5X20186   1.089   6.053   9.803 -1.4066 -0.2407 -0.6747
  177SOPE   H5Y20187   0.949   6.020   9.905  0.2526 -0.4784  2.2995
  177SOPE   C3620188   1.103   5.858   9.909  0.0327  0.4113  0.1159
  177SOPE   H6X20189   1.072   5.823  10.009 -0.3223 -0.3904 -0.2673
  177SOPE   H6Y20190   1.214   5.848   9.905  0.3263  2.3386  1.8562
  177SOPE   C3720191   1.053   5.768   9.798  0.4219  0.1521  0.4638
  177SOPE   H7X20192   0.943   5.747   9.799  0.2916  0.7670 -0.2358
  177SOPE   H7Y20193   1.091   5.664   9.810  0.2933  0.0469  0.0119
  177SOPE   C3820194   1.105   5.816   9.660 -0.2562  0.2827  0.2613
  177SOPE   H8X20195   1.215   5.799   9.659 -0.1622  0.3907 -3.0799
  177SOPE   H8Y20196   1.076   5.922   9.644 -1.9310 -0.3083 -0.9709
  177SOPE   C3920197   1.049   5.746   9.537  0.2528  0.4390 -0.9430
  177SOPE   H9X20198   0.940   5.752   9.520  0.1382  2.0011  0.1773
  177SOPE   H9Y20199   1.074   5.639   9.552 -1.1445  0.3220  0.9178
  177SOPE  C31020200   1.108   5.800   9.400 -0.0611 -0.1942 -0.3017
  177SOPE  H10X20201   1.216   5.776   9.390 -0.5724 -2.9282 -0.0440
  177SOPE  H10Y20202   1.089   5.909   9.390  1.4913  0.1310 -0.0589
  177SOPE  C31120203   1.026   5.748   9.284  0.1675  0.1067  0.0136
  177SOPE  H11X20204   0.919   5.776   9.275 -0.4107 -2.2832 -1.3435
  177SOPE  H11Y20205   1.035   5.637   9.289  0.0685  0.0905 -0.1335
  177SOPE  C31220206   1.074   5.810   9.139 -1.1756  0.0485  0.2528
  177SOPE  H12X20207   1.046   5.917   9.145 -0.7235  0.1055  2.8072
  177SOPE  H12Y20208   1.029   5.755   9.054  1.1374 -0.2190 -0.8690
  177SOPE  C31320209   1.223   5.813   9.124  0.2681 -0.1553  0.0003
  177SOPE  H13X20210   1.259   5.713   9.155 -1.6699 -1.3726 -1.4227
  177SOPE  H13Y20211   1.261   5.893   9.192 -2.1715  0.8195  0.3365
  177SOPE  C31420212   1.286   5.844   8.986 -0.6423 -0.7540 -0.0791
  177SOPE  H14X20213   1.395   5.855   9.008 -1.0262 -0.2377  1.6440
  177SOPE  H14Y20214   1.234   5.939   8.963 -1.4215 -0.4125  2.7226
  177SOPE  C31520215   1.247   5.747   8.872 -0.4429 -0.2874  0.5087
  177SOPE  H15X20216   1.139   5.721   8.871 -0.4393 -0.5508 -2.4748
  177SOPE  H15Y20217   1.309   5.655   8.884  1.2288  1.1028  4.0488
  177SOPE  C31620218   1.274   5.794   8.730  0.0940  0.0218  0.6966
  177SOPE  H16X20219   1.384   5.807   8.719 -0.1328  0.7509 -1.1342
  177SOPE  H16Y20220   1.227   5.892   8.708  1.4171  0.2259 -1.5850
  177SOPE  C31720221   1.231   5.682   8.633  0.1129 -0.1562 -0.5846
  177SOPE  H17X20222   1.120   5.683   8.634  0.0302 -1.5176  2.4070
  177SOPE  H17Y20223   1.252   5.586   8.685 -2.7600  0.0568  1.2461
  177SOPE  C31820224   1.291   5.692   8.494 -0.5585 -0.0815 -0.2444
  177SOPE  H18X20225   1.290   5.801   8.470  0.5844  0.2818  1.1712
  177SOPE  H18Y20226   1.231   5.641   8.416 -3.3000  0.6025  1.2695
  177SOPE  H18Z20227   1.399   5.665   8.496 -0.5375 -0.0055  1.0807
  178SOPE     N20228   5.720   2.842  10.653 -0.7337 -0.4375  0.7113
  178SOPE   HN120229   5.783   2.773  10.609  1.2963  2.4919 -1.3565
  178SOPE   HN220230   5.766   2.908  10.720 -1.4109 -1.2790  2.0582
  178SOPE   HN320231   5.637   2.793  10.694 -0.3342  1.1516  3.7209
  178SOPE   C1220232   5.672   2.929  10.532  0.1011 -0.3320 -0.1811
  178SOPE  H12A20233   5.603   2.870  10.468 -0.4792  0.5249 -0.3509
  178SOPE  H12B20234   5.759   2.966  10.472  0.7078 -2.9913 -1.0965
  178SOPE   C1120235   5.584   3.048  10.576 -0.6680 -0.2464 -0.0979
  178SOPE  H11A20236   5.564   3.115  10.489 -0.0131  1.3581  0.9469
  178SOPE  H11B20237   5.637   3.121  10.642 -0.3179 -0.6697  0.0927
  178SOPE     P20238   5.371   3.070  10.718  0.2899 -0.3722 -0.0393
  178SOPE   O1320239   5.444   3.153  10.820  0.0892 -0.1376 -0.3858
  178SOPE   O1420240   5.255   2.986  10.760  0.2423 -0.1045  0.2257
  178SOPE   O1220241   5.472   2.983  10.635  0.1989 -0.6654 -0.3819
  178SOPE   O1120242   5.311   3.164  10.607  0.2094  0.1986  0.4797
  178SOPE    C120243   5.248   3.106  10.489 -0.1985 -0.4486  0.3711
  178SOPE    HA20244   5.140   3.095  10.513 -0.5055  2.1980  0.5071
  178SOPE    HB20245   5.298   3.012  10.457 -0.0810  0.4688 -2.4325
  178SOPE    C220246   5.247   3.216  10.369  0.1158 -0.2824  0.0331
  178SOPE    HS20247   5.195   3.161  10.288 -2.9935  0.8337  1.1016
  178SOPE   O2120248   5.386   3.254  10.338  0.3293 -0.6519  0.1692
  178SOPE   C2120249   5.403   3.286  10.209  0.4759 -0.2062  0.2599
  178SOPE   O2220250   5.311   3.280  10.129 -0.0846  0.4115  0.0622
  178SOPE   C2220251   5.546   3.341  10.181  0.3666  0.5796 -0.2270
  178SOPE   H2R20252   5.612   3.317  10.267 -0.5815 -2.2619 -0.1676
  178SOPE   H2S20253   5.547   3.450  10.161  1.1553  0.1988 -2.6491
  178SOPE    C320254   5.162   3.340  10.410  0.0415 -0.8897  0.2058
  178SOPE    HX20255   5.206   3.386  10.501 -1.4543 -0.8268  0.9231
  178SOPE    HY20256   5.067   3.298  10.449 -0.2285  0.6861  1.3389
  178SOPE   O3120257   5.150   3.432  10.298  0.3469 -0.3595  0.8101
  178SOPE   C3120258   5.067   3.401  10.206  0.5031 -0.1539  0.5290
  178SOPE   O3220259   4.992   3.301  10.205 -0.7242  0.2079 -0.4651
  178SOPE   C3220260   5.086   3.492  10.087  0.1495  0.6031  0.0842
  178SOPE   H2X20261   5.188   3.487  10.042  0.6922 -3.7476  1.2738
  178SOPE   H2Y20262   5.091   3.597  10.122 -0.6782  0.6908 -0.0411
  178SOPE   C2320263   5.600   3.276  10.055  0.1167  0.5406  0.0273
  178SOPE   H3R20264   5.525   3.271   9.974  1.9250  1.3968 -1.7953
  178SOPE   H3S20265   5.622   3.171  10.084  1.1604  0.7190 -0.0551
  178SOPE   C2420266   5.723   3.345  10.008  0.2738 -0.5609  0.5194
  178SOPE   H4R20267   5.709   3.455  10.002  2.3113 -0.0929  2.5713
  178SOPE   H4S20268   5.802   3.345  10.086  0.1880  1.6184  0.6453
  178SOPE   C2520269   5.765   3.298   9.870 -0.5937 -0.4812 -0.1192
  178SOPE   H5R20270   5.797   3.192   9.876 -0.0910 -0.3044  0.3814
  178SOPE   H5S20271   5.677   3.291   9.802 -0.4495 -3.9688 -0.1287
  178SOPE   C2620272   5.877   3.390   9.814  0.0070  0.1557  0.0350
  178SOPE   H6R20273   5.842   3.494   9.800 -0.7109 -0.0098  0.5172
  178SOPE   H6S20274   5.960   3.372   9.885  0.2416  1.4120  0.1047
  178SOPE   C2720275   5.940   3.335   9.686  0.2005  0.7304  0.3793
  178SOPE   H7R20276   6.039   3.384   9.672  0.2960  0.2308 -0.7921
  178SOPE   H7S20277   5.958   3.226   9.694 -2.6678  0.2332  1.1441
  178SOPE   C2820278   5.850   3.372   9.563  0.1871 -0.2918  0.3206
  178SOPE   H8R20279   5.876   3.310   9.474 -1.7490  0.7287 -1.0393
  178SOPE   H8S20280   5.741   3.354   9.579  0.1963 -0.4573  0.2004
  178SOPE   C2920281   5.872   3.514   9.527  0.0579 -0.2199 -0.2257
  178SOPE   H9120282   5.865   3.580   9.615 -0.6766 -1.5414  0.7582
  178SOPE  C21020283   5.901   3.564   9.410 -0.2682  0.8033  0.0419
  178SOPE  H10120284   5.909   3.673   9.403 -0.3703  1.0182  2.5169
  178SOPE  C21120285   5.902   3.481   9.283 -0.4707 -0.1199 -0.7993
  178SOPE  H11R20286   5.835   3.392   9.289 -0.0963 -0.3999 -0.7439
  178SOPE  H11S20287   6.003   3.439   9.265 -0.4909 -0.0837 -1.0044
  178SOPE  C21220288   5.861   3.568   9.165  0.7761  0.4040 -0.8556
  178SOPE  H12R20289   5.946   3.636   9.145  0.8958  0.5301  0.0274
  178SOPE  H12S20290   5.768   3.627   9.181 -0.9746 -2.7510  2.0731
  178SOPE  C21320291   5.835   3.482   9.037 -0.1589  0.0156  0.5598
  178SOPE  H13R20292   5.763   3.526   8.964  0.2130  0.2805  0.3491
  178SOPE  H13S20293   5.792   3.382   9.060 -2.7372  0.3012 -2.3207
  178SOPE  C21420294   5.968   3.463   8.964  0.1400 -0.1777  0.3510
  178SOPE  H14R20295   6.038   3.414   9.034 -0.3497 -0.1945  0.8348
  178SOPE  H14S20296   6.017   3.558   8.934 -1.8368  0.5286 -0.9114
  178SOPE  C21520297   5.957   3.380   8.836 -0.1380  0.6314  0.2868
  178SOPE  H15R20298   5.890   3.441   8.772  2.5228  1.8065 -1.5823
  178SOPE  H15S20299   5.903   3.286   8.859  1.0504 -0.7343 -2.0827
  178SOPE  C21620300   6.094   3.360   8.758  0.7383 -0.4345 -0.0157
  178SOPE  H16R20301   6.080   3.297   8.667  0.1599  0.8621 -0.8606
  178SOPE  H16S20302   6.158   3.314   8.835  1.7896  0.3523 -0.3951
  178SOPE  C21720303   6.148   3.492   8.716  0.9333 -0.2652 -0.3311
  178SOPE  H17R20304   6.249   3.469   8.677  0.5730 -1.0590 -0.8429
  178SOPE  H17S20305   6.162   3.570   8.793 -1.7469 -1.9323  2.0696
  178SOPE  C21820306   6.082   3.558   8.590  0.4132  0.2416 -0.2303
  178SOPE  H18R20307   6.137   3.652   8.567  2.2092 -0.8157 -0.4614
  178SOPE  H18S20308   5.980   3.587   8.620 -0.3898 -1.2707 -1.3672
  178SOPE  H18T20309   6.076   3.490   8.502 -1.6291  0.2413 -0.1282
  178SOPE   C3320310   4.969   3.479   9.979  0.2408  0.1246 -0.1613
  178SOPE   H3X20311   4.877   3.512  10.032 -0.0601  2.9354 -2.1833
  178SOPE   H3Y20312   4.972   3.372   9.949  2.3181  0.2734 -0.5710
  178SOPE   C3420313   4.983   3.577   9.861 -0.2915  0.4087  0.4540
  178SOPE   H4X20314   5.081   3.564   9.811 -0.7457 -0.6999 -0.1982
  178SOPE   H4Y20315   4.972   3.681   9.898 -1.0601  0.5797 -0.2130
  178SOPE   C3520316   4.873   3.543   9.770  0.6382 -0.5072  1.3262
  178SOPE   H5X20317   4.768   3.556   9.805  0.3313 -0.0308  0.2661
  178SOPE   H5Y20318   4.889   3.437   9.743 -1.9669 -0.3830 -1.2094
  178SOPE   C3620319   4.904   3.621   9.641 -0.4060  0.0832  0.2175
  178SOPE   H6X20320   4.961   3.715   9.662  2.1360 -1.8278  2.6634
  178SOPE   H6Y20321   4.802   3.656   9.615 -0.6351 -0.4020  0.4660
  178SOPE   C3720322   4.944   3.536   9.523  0.2136  0.3669  0.2495
  178SOPE   H7X20323   4.869   3.455   9.513  2.1475 -1.4193 -0.4682
  178SOPE   H7Y20324   5.038   3.488   9.556 -0.9608 -1.6605  0.7989
  178SOPE   C3820325   4.972   3.602   9.390  0.1254 -0.6547  0.1996
  178SOPE   H8X20326   5.068   3.653   9.412  0.6861 -1.8818  0.6554
  178SOPE   H8Y20327   4.888   3.674   9.373 -0.5657 -1.2157  1.1451
  178SOPE   C3920328   4.979   3.513   9.271 -0.0085  0.6671 -0.5975
  178SOPE   H9X20329   4.884   3.457   9.255 -0.7564  1.0383  2.1736
  178SOPE   H9Y20330   5.054   3.436   9.300 -1.3588 -0.2236  0.6941
  178SOPE  C31020331   5.022   3.584   9.147  0.6213 -0.0544 -0.4947
  178SOPE  H10X20332   5.097   3.519   9.098  0.0908 -0.1167 -1.2441
  178SOPE  H10Y20333   5.070   3.683   9.157  0.5387  0.1802 -2.1684
  178SOPE  C31120334   4.906   3.595   9.045  0.8917 -0.7010 -0.3904
  178SOPE  H11X20335   4.833   3.650   9.109  0.9173  1.3637 -2.0112
  178SOPE  H11Y20336   4.863   3.495   9.023  0.4286 -0.4417 -0.6873
  178SOPE  C31220337   4.947   3.677   8.918 -0.0278  0.7304 -0.4457
  178SOPE  H12X20338   5.042   3.638   8.875  0.5223  1.9926 -0.3992
  178SOPE  H12Y20339   4.976   3.778   8.955 -0.1734  1.1538 -1.4740
  178SOPE  C31320340   4.834   3.685   8.818  0.1584 -0.4047  0.3360
  178SOPE  H13X20341   4.757   3.758   8.850  2.8945  3.4625 -1.0601
  178SOPE  H13Y20342   4.782   3.587   8.806 -0.1029 -0.2592  0.2746
  178SOPE  C31420343   4.865   3.733   8.679 -0.5929 -0.2323  0.4763
  178SOPE  H14X20344   4.944   3.664   8.642  1.8854  2.1631  0.9847
  178SOPE  H14Y20345   4.923   3.828   8.684 -2.2926  0.7922  2.3033
  178SOPE  C31520346   4.745   3.754   8.580 -0.3602 -0.7510  0.2240
  178SOPE  H15X20347   4.684   3.832   8.629  0.5204 -0.3823  0.7623
  178SOPE  H15Y20348   4.694   3.655   8.582  0.3542 -1.1250  0.2427
  178SOPE  C31620349   4.794   3.789   8.447  0.1102 -0.2645 -0.5980
  178SOPE  H16X20350   4.862   3.712   8.406  1.1603  0.1343  0.3433
  178SOPE  H16Y20351   4.852   3.884   8.445  2.6226 -1.6918  0.0463
  178SOPE  C31720352   4.673   3.791   8.340 -0.4362 -0.0141 -0.2698
  178SOPE  H17X20353   4.574   3.779   8.388 -0.5048  2.1184  0.2191
  178SOPE  H17Y20354   4.686   3.702   8.274 -0.9078 -0.0217 -0.3554
  178SOPE  C31820355   4.682   3.914   8.249 -0.1839  0.3787  0.6037
  178SOPE  H18X20356   4.779   3.910   8.195 -0.0298  1.1732  0.8162
  178SOPE  H18Y20357   4.690   4.005   8.312 -1.2414  1.3627 -0.6292
  178SOPE  H18Z20358   4.596   3.919   8.179 -0.9652  2.4384  1.6353
  179SOPE     N20359   4.736   3.068   5.896 -0.6104 -0.3568  0.3340
  179SOPE   HN120360   4.826   3.016   5.892  0.2603  1.1088 -3.0082
  179SOPE   HN220361   4.725   3.091   5.997  0.9948  0.0884  0.4384
  179SOPE   HN320362   4.659   3.013   5.854  0.4349 -0.5616 -1.4235
  179SOPE   C1220363   4.745   3.198   5.819  0.1851  0.6031  0.1040
  179SOPE  H12A20364   4.656   3.259   5.844 -0.4212 -0.8798  1.7659
  179SOPE  H12B20365   4.766   3.181   5.711  3.2446  0.1306  0.6952
  179SOPE   C1120366   4.867   3.277   5.880  0.2029  0.2599  0.5865
  179SOPE  H11A20367   4.874   3.380   5.841  0.5028  0.8479  2.1497
  179SOPE  H11B20368   4.951   3.215   5.842 -1.3700 -0.8810 -1.2264
  179SOPE     P20369   4.840   3.390   6.113 -0.2449 -0.5431 -0.2290
  179SOPE   O1320370   4.725   3.459   6.060  1.2505  0.0506 -0.5391
  179SOPE   O1420371   4.966   3.465   6.140  0.0141 -0.4143  0.3350
  179SOPE   O1220372   4.871   3.267   6.022  0.0837 -0.5687 -0.8048
  179SOPE   O1120373   4.787   3.318   6.246 -0.4139 -0.2622  0.1598
  179SOPE    C120374   4.877   3.249   6.332  0.4004 -0.5707  0.2460
  179SOPE    HA20375   4.980   3.237   6.293 -0.3487 -3.7444 -1.0681
  179SOPE    HB20376   4.825   3.154   6.359  0.4722 -0.5352  0.5117
  179SOPE    C220377   4.893   3.320   6.467 -0.1902  0.3257  0.6265
  179SOPE    HS20378   4.951   3.257   6.537 -1.5265 -0.9058  0.6627
  179SOPE   O2120379   4.771   3.369   6.534  0.1729 -0.3452  0.6404
  179SOPE   C2120380   4.681   3.279   6.566 -0.0045  0.0925  0.2278
  179SOPE   O2220381   4.688   3.158   6.549  0.2129  0.2721  0.3492
  179SOPE   C2220382   4.569   3.349   6.651 -0.4643  0.1422  0.4119
  179SOPE   H2R20383   4.493   3.391   6.582 -2.1650  1.2286  2.8022
  179SOPE   H2S20384   4.618   3.440   6.690  1.5750 -0.6726 -0.1144
  179SOPE    C320385   4.987   3.443   6.455  0.6219  0.6784  0.2622
  179SOPE    HX20386   4.935   3.509   6.382  0.9556 -0.1846 -0.7802
  179SOPE    HY20387   5.084   3.423   6.404 -0.1572  0.1546 -1.0611
  179SOPE   O3120388   5.022   3.495   6.587 -0.0238 -0.0305 -0.3346
  179SOPE   C3120389   4.941   3.581   6.639 -0.1635 -0.4195  0.1896
  179SOPE   O3220390   4.839   3.627   6.591 -0.2919  0.8229 -0.1304
  179SOPE   C3220391   5.017   3.616   6.773 -0.0220 -0.0390 -0.0146
  179SOPE   H2X20392   5.105   3.553   6.798  1.5540  1.4512 -1.5060
  179SOPE   H2Y20393   4.949   3.598   6.859  1.0567 -1.4174  0.5872
  179SOPE   C2320394   4.501   3.256   6.756 -0.5603 -0.1332  0.1311
  179SOPE   H3R20395   4.440   3.181   6.703 -0.8519  0.2212 -0.0424
  179SOPE   H3S20396   4.438   3.325   6.816 -1.2740 -0.9855  0.3802
  179SOPE   C2420397   4.587   3.179   6.864  0.5588 -0.3859  1.4285
  179SOPE   H4R20398   4.511   3.119   6.918 -0.3930 -0.9377 -0.4247
  179SOPE   H4S20399   4.649   3.097   6.821  0.9533  1.6806 -2.4116
  179SOPE   C2520400   4.675   3.268   6.947 -0.1683  0.3513  0.1218
  179SOPE   H5R20401   4.765   3.298   6.890 -0.2923  0.9432  0.2309
  179SOPE   H5S20402   4.626   3.363   6.975 -0.3764  1.2290 -2.9053
  179SOPE   C2620403   4.710   3.202   7.083  0.2949  0.3970  0.8743
  179SOPE   H6R20404   4.705   3.094   7.057 -0.8028  0.5203  0.5221
  179SOPE   H6S20405   4.819   3.215   7.101  0.4370  0.9862 -0.2964
  179SOPE   C2720406   4.608   3.234   7.195 -0.3412  0.4010  0.3731
  179SOPE   H7R20407   4.614   3.343   7.212 -0.2795  0.6958 -1.3063
  179SOPE   H7S20408   4.509   3.203   7.155  1.2856  0.3151 -4.2410
  179SOPE   C2820409   4.644   3.163   7.329  0.6143 -0.3338  0.5606
  179SOPE   H8R20410   4.677   3.058   7.316 -0.5141 -0.9504  2.2892
  179SOPE   H8S20411   4.733   3.218   7.366  0.4375  1.7765 -1.8527
  179SOPE   C2920412   4.542   3.170   7.432 -0.2041  0.1797 -0.7635
  179SOPE   H9120413   4.441   3.182   7.390  0.2015  3.7238 -1.0219
  179SOPE  C21020414   4.561   3.155   7.566 -0.2188  0.7844 -0.6167
  179SOPE  H10120415   4.478   3.156   7.639  2.3475 -0.9070  2.5671
  179SOPE  C21120416   4.693   3.138   7.638  0.0932 -0.0000  0.0893
  179SOPE  H11R20417   4.772   3.108   7.566  1.2647 -1.7277  2.0122
  179SOPE  H11S20418   4.693   3.058   7.714  0.7951 -0.2800 -0.1942
  179SOPE  C21220419   4.725   3.268   7.714  0.4958 -0.0780 -0.2169
  179SOPE  H12R20420   4.805   3.230   7.781 -1.4794 -3.9578  0.1961
  179SOPE  H12S20421   4.645   3.308   7.780  2.0920  0.6879  1.3294
  179SOPE  C21320422   4.785   3.381   7.629 -0.1476  0.3774 -0.8907
  179SOPE  H13R20423   4.717   3.385   7.541 -0.7418  0.5658 -0.4341
  179SOPE  H13S20424   4.875   3.336   7.583  0.1574 -0.2216  0.2575
  179SOPE  C21420425   4.822   3.500   7.712 -0.2027 -0.7402  0.2246
  179SOPE  H14R20426   4.746   3.544   7.780  1.5343  0.9914  1.1395
  179SOPE  H14S20427   4.847   3.565   7.625 -1.1611  2.0663  1.8995
  179SOPE  C21520428   4.951   3.479   7.790  0.2251 -0.2876  0.3120
  179SOPE  H15R20429   5.036   3.457   7.722  1.0349  1.7186  0.5916
  179SOPE  H15S20430   4.936   3.400   7.866  0.1388 -0.3802  0.1988
  179SOPE  C21620431   4.998   3.605   7.857 -0.6550 -0.4136 -0.3098
  179SOPE  H16R20432   4.993   3.682   7.777 -2.0576 -0.9646 -0.7915
  179SOPE  H16S20433   5.098   3.595   7.903 -0.5837  2.1159  0.2523
  179SOPE  C21720434   4.898   3.654   7.969 -0.0024 -0.3671  0.3217
  179SOPE  H17R20435   4.815   3.704   7.917  0.0447  0.1244  0.7091
  179SOPE  H17S20436   4.965   3.718   8.031  0.0624  1.4534 -1.5415
  179SOPE  C21820437   4.851   3.554   8.071  0.1225 -0.3721  0.4833
  179SOPE  H18R20438   4.933   3.482   8.092  0.3272 -0.8112 -1.5724
  179SOPE  H18S20439   4.763   3.495   8.039 -0.5962  0.4559  0.8696
  179SOPE  H18T20440   4.814   3.612   8.159  1.5062  0.6863  0.4137
  179SOPE   C3320441   5.060   3.768   6.768  0.4348  0.2085  0.2067
  179SOPE   H3X20442   4.972   3.831   6.744 -0.3756 -0.3136  1.6512
  179SOPE   H3Y20443   5.147   3.776   6.701  1.5444 -0.2770  1.5392
  179SOPE   C3420444   5.111   3.816   6.898 -0.5647 -0.0052  0.5633
  179SOPE   H4X20445   5.207   3.766   6.924  0.4363  2.9173  3.0850
  179SOPE   H4Y20446   5.034   3.795   6.975 -0.2313 -1.9078  0.4368
  179SOPE   C3520447   5.141   3.972   6.902  0.3208  0.6396  0.3760
  179SOPE   H5X20448   5.042   4.022   6.888 -0.5424 -1.1426 -0.1406
  179SOPE   H5Y20449   5.205   4.016   6.822  0.2059  0.2807  0.0870
  179SOPE   C3620450   5.195   4.012   7.040 -0.5728  0.4443  0.3057
  179SOPE   H6X20451   5.229   4.118   7.036 -1.8590  0.8676  0.0474
  179SOPE   H6Y20452   5.280   3.945   7.062 -0.5962 -0.1353 -1.2561
  179SOPE   C3720453   5.097   4.005   7.153  1.0105  0.9995  0.8001
  179SOPE   H7X20454   5.038   3.911   7.145  0.1843  1.6251 -1.0406
  179SOPE   H7Y20455   5.017   4.082   7.155 -3.0294 -2.6951 -0.8349
  179SOPE   C3820456   5.159   4.019   7.295  0.1855  0.6824 -0.1230
  179SOPE   H8X20457   5.073   4.019   7.366  1.2896 -0.0459  1.2782
  179SOPE   H8Y20458   5.212   4.116   7.302 -1.1463  1.4634 -0.6339
  179SOPE   C3920459   5.233   3.901   7.337  0.2614  0.3559  0.7392
  179SOPE   H9X20460   5.314   3.880   7.264 -1.3181  0.3648 -1.0778
  179SOPE   H9Y20461   5.161   3.817   7.338 -0.1125  0.6542 -0.0848
  179SOPE  C31020462   5.313   3.924   7.474  0.8344 -0.0979  0.0583
  179SOPE  H10X20463   5.242   3.969   7.546 -1.2781 -0.7734 -1.5113
  179SOPE  H10Y20464   5.389   3.999   7.443  0.0968  0.1531 -1.2031
  179SOPE  C31120465   5.359   3.790   7.535  0.2996  0.1290 -0.2071
  179SOPE  H11X20466   5.445   3.752   7.475  0.6693  0.3431  0.1734
  179SOPE  H11Y20467   5.288   3.706   7.537  0.8439 -0.3704  2.2363
  179SOPE  C31220468   5.385   3.811   7.685 -0.1758 -0.1603  0.0623
  179SOPE  H12X20469   5.293   3.811   7.747 -2.2027  2.3806 -2.6659
  179SOPE  H12Y20470   5.403   3.921   7.689 -0.0377 -0.1920  0.3709
  179SOPE  C31320471   5.510   3.739   7.742  1.3241  0.2266 -0.4776
  179SOPE  H13X20472   5.601   3.780   7.694  1.7712 -0.3327 -0.1295
  179SOPE  H13Y20473   5.509   3.629   7.727 -0.5348 -0.1360  1.6328
  179SOPE  C31420474   5.510   3.776   7.892  0.6343 -0.3122 -0.9230
  179SOPE  H14X20475   5.411   3.743   7.928  0.3181  0.0085 -1.4868
  179SOPE  H14Y20476   5.515   3.885   7.912  1.4510 -0.6162  0.6884
  179SOPE  C31520477   5.627   3.708   7.965 -0.7242 -0.2369 -0.3877
  179SOPE  H15X20478   5.723   3.749   7.925 -0.5951  2.0556  2.0239
  179SOPE  H15Y20479   5.625   3.603   7.929 -0.0400 -0.6140  0.6348
  179SOPE  C31620480   5.617   3.709   8.119  0.1359  0.1793 -1.2660
  179SOPE  H16X20481   5.519   3.685   8.164 -0.2875  1.7673 -1.2840
  179SOPE  H16Y20482   5.634   3.815   8.147  0.5266 -0.5775  1.6531
  179SOPE  C31720483   5.725   3.642   8.202 -0.0908 -0.4839  0.1656
  179SOPE  H17X20484   5.824   3.674   8.165 -1.0442 -1.6967 -3.9209
  179SOPE  H17Y20485   5.716   3.533   8.184 -1.2539 -0.1181 -1.8061
  179SOPE  C31820486   5.722   3.649   8.358 -0.9685  0.1969 -0.4504
  179SOPE  H18X20487   5.710   3.757   8.385 -0.7539 -0.0133  0.5457
  179SOPE  H18Y20488   5.815   3.604   8.397 -0.9598  0.6195  0.0400
  179SOPE  H18Z20489   5.636   3.596   8.406 -1.0600  0.3295 -0.4651
  180SOPE     N20490   3.310   4.401   6.467 -0.4511  0.5763 -0.1126
  180SOPE   HN120491   3.393   4.359   6.421 -0.8210 -0.6837  0.3187
  180SOPE   HN220492   3.330   4.502   6.475 -1.3466  0.6111  3.4960
  180SOPE   HN320493   3.298   4.363   6.564  2.4719  1.0950  0.5461
  180SOPE   C1220494   3.190   4.397   6.370 -0.4863  0.5828 -1.2329
  180SOPE  H12A20495   3.229   4.441   6.276  2.8174 -0.7961 -0.6532
  180SOPE  H12B20496   3.119   4.468   6.417 -1.4187 -0.9921 -0.1741
  180SOPE   C1120497   3.125   4.258   6.358 -0.2646  0.4803 -0.9103
  180SOPE  H11A20498   3.071   4.222   6.448  1.1179  0.0311 -0.2295
  180SOPE  H11B20499   3.210   4.187   6.346 -0.3184  0.5621 -1.8929
  180SOPE     P20500   2.913   4.316   6.226  0.4925  0.2149  0.5033
  180SOPE   O1320501   2.868   4.283   6.084 -0.2016 -0.2698 -0.2765
  180SOPE   O1420502   2.913   4.462   6.254  0.3811  0.3691 -0.1799
  180SOPE   O1220503   3.048   4.246   6.247  0.3373  0.3529  0.2605
  180SOPE   O1120504   2.812   4.240   6.322  0.1531 -0.0800 -0.0789
  180SOPE    C120505   2.688   4.278   6.369 -0.3687  0.1755  0.3820
  180SOPE    HA20506   2.620   4.190   6.364  0.1734 -0.2045 -0.5253
  180SOPE    HB20507   2.642   4.365   6.317 -1.3777  0.5900  1.8757
  180SOPE    C220508   2.708   4.302   6.518  0.1975  0.5599  0.0932
  180SOPE    HS20509   2.607   4.315   6.561 -0.2034 -0.7090 -0.4096
  180SOPE   O2120510   2.784   4.417   6.549 -0.1179  0.2802 -0.3866
  180SOPE   C2120511   2.726   4.526   6.538 -0.4256  0.5919 -0.4999
  180SOPE   O2220512   2.610   4.546   6.503  0.2884 -0.2053  0.1746
  180SOPE   C2220513   2.829   4.642   6.572  0.1892 -0.2067  0.3106
  180SOPE   H2R20514   2.770   4.736   6.565  0.1990 -0.3410 -2.9383
  180SOPE   H2S20515   2.906   4.645   6.492  1.0429 -2.5786  0.9700
  180SOPE    C320516   2.767   4.181   6.596  0.0164  0.5518  0.0500
  180SOPE    HX20517   2.864   4.148   6.553  0.8646  0.0490  2.1875
  180SOPE    HY20518   2.692   4.107   6.562  0.4185  0.7243 -1.2440
  180SOPE   O3120519   2.780   4.197   6.738 -0.4496  0.4832  0.2207
  180SOPE   C3120520   2.896   4.242   6.778  0.0134  0.5676 -0.1987
  180SOPE   O3220521   2.998   4.254   6.718  0.5156 -0.2093  0.7237
  180SOPE   C3220522   2.869   4.273   6.924 -0.1966 -0.1886 -0.1962
  180SOPE   H2X20523   2.839   4.178   6.973 -0.4597  1.1019  2.3096
  180SOPE   H2Y20524   2.781   4.341   6.921  0.0646  0.1214 -1.1709
  180SOPE   C2320525   2.898   4.632   6.710  0.1736 -0.2236  0.2799
  180SOPE   H3R20526   2.946   4.531   6.713 -1.4434 -1.0739 -0.8087
  180SOPE   H3S20527   2.823   4.644   6.791 -0.2201 -0.3204 -0.0705
  180SOPE   C2420528   3.004   4.736   6.735  0.0631 -0.1417 -0.3163
  180SOPE   H4R20529   3.093   4.732   6.669  1.5911  0.5857  1.6067
  180SOPE   H4S20530   2.956   4.835   6.719 -0.3209 -0.4391 -1.0659
  180SOPE   C2520531   3.055   4.743   6.886 -0.5952 -0.0226  0.2147
  180SOPE   H5R20532   2.971   4.767   6.955  0.5427 -0.7533  1.9021
  180SOPE   H5S20533   3.101   4.648   6.920 -0.9084 -0.8221 -1.4713
  180SOPE   C2620534   3.163   4.847   6.916 -0.9459  0.3264 -0.7295
  180SOPE   H6R20535   3.262   4.820   6.873 -0.6204  1.7831 -0.9251
  180SOPE   H6S20536   3.108   4.934   6.876 -2.3034 -0.3798 -0.4658
  180SOPE   C2720537   3.177   4.858   7.066  0.2075 -0.4106 -0.5999
  180SOPE   H7R20538   3.080   4.893   7.108  0.5937  0.0406 -0.0564
  180SOPE   H7S20539   3.185   4.755   7.106 -2.1175 -0.5172 -0.2751
  180SOPE   C2820540   3.286   4.959   7.126  0.0111  0.0644  0.1074
  180SOPE   H8R20541   3.264   4.969   7.235 -1.0160  0.5226 -0.1274
  180SOPE   H8S20542   3.383   4.907   7.111 -1.1475 -2.2897  0.2263
  180SOPE   C2920543   3.285   5.094   7.054  0.1436  0.3070 -0.1401
  180SOPE   H9120544   3.334   5.088   6.956 -0.5268 -1.8856 -0.3935
  180SOPE  C21020545   3.217   5.202   7.096 -0.6719  0.5536 -0.3571
  180SOPE  H10120546   3.240   5.299   7.049 -1.9750  0.6237 -0.8924
  180SOPE  C21120547   3.126   5.214   7.211  0.2700 -0.4568  0.6798
  180SOPE  H11R20548   3.093   5.111   7.238  1.8932 -1.8070 -2.0046
  180SOPE  H11S20549   3.033   5.265   7.179  0.3675 -1.6906 -1.9307
  180SOPE  C21220550   3.189   5.291   7.327 -0.2058 -0.2352 -0.0122
  180SOPE  H12R20551   3.229   5.391   7.301 -0.6310  0.0140  0.2835
  180SOPE  H12S20552   3.277   5.233   7.364 -1.0597 -1.6894 -0.1526
  180SOPE  C21320553   3.087   5.296   7.439  0.7516  0.4716  0.2475
  180SOPE  H13R20554   3.048   5.195   7.465 -0.0683  0.0771 -2.1663
  180SOPE  H13S20555   2.993   5.347   7.408 -1.4053 -3.7619 -1.1161
  180SOPE  C21420556   3.137   5.367   7.561  0.4488 -0.1958 -0.5282
  180SOPE  H14R20557   3.179   5.467   7.540  0.1995  0.2004  0.8226
  180SOPE  H14S20558   3.219   5.317   7.617  2.7379  4.1831  0.4165
  180SOPE  C21520559   3.029   5.383   7.671  0.0611  0.1929  0.5822
  180SOPE  H15R20560   2.969   5.290   7.687 -0.5998  0.7432  1.3722
  180SOPE  H15S20561   2.944   5.449   7.642  2.2712  2.7064 -0.5854
  180SOPE  C21620562   3.092   5.424   7.809  0.2047  0.3824 -0.0344
  180SOPE  H16R20563   3.137   5.525   7.797  1.0427 -0.1006 -1.0843
  180SOPE  H16S20564   3.173   5.351   7.827 -0.0399  0.4697  1.5702
  180SOPE  C21720565   3.000   5.425   7.936  0.3399  0.2992 -0.1984
  180SOPE  H17R20566   2.950   5.329   7.963  1.8401 -0.2137  0.9146
  180SOPE  H17S20567   2.926   5.507   7.924 -0.2146 -0.0503  0.7237
  180SOPE  C21820568   3.067   5.472   8.064 -0.0989 -0.1942  0.2009
  180SOPE  H18R20569   3.007   5.473   8.157 -0.3477  4.4540  0.1907
  180SOPE  H18S20570   3.103   5.576   8.049 -0.7456 -0.2587 -2.3630
  180SOPE  H18T20571   3.158   5.413   8.084  0.8154  0.9032 -0.5840
  180SOPE   C3320572   2.980   4.345   6.996 -0.1667  0.1606  0.1130
  180SOPE   H3X20573   2.987   4.444   6.946 -0.1626  0.7186  1.2110
  180SOPE   H3Y20574   3.075   4.288   6.996  0.8156  1.6989  2.1769
  180SOPE   C3420575   2.944   4.375   7.141  0.3579  0.6930 -0.1646
  180SOPE   H4X20576   2.976   4.286   7.199  1.3267  1.8643  1.1455
  180SOPE   H4Y20577   2.834   4.392   7.153 -0.4775 -2.9157 -1.2434
  180SOPE   C3520578   3.021   4.483   7.216 -0.4681  0.6088  0.1552
  180SOPE   H5X20579   2.986   4.575   7.165 -1.8678 -0.0105 -0.0681
  180SOPE   H5Y20580   3.129   4.465   7.199 -0.8237 -0.9395 -0.6341
  180SOPE   C3620581   2.989   4.470   7.364  0.6836 -0.1735  0.1385
  180SOPE   H6X20582   3.036   4.381   7.410  0.5274 -0.7963 -0.8829
  180SOPE   H6Y20583   2.878   4.465   7.364  0.7264 -1.3208  0.2502
  180SOPE   C3720584   3.016   4.593   7.452 -0.4883 -0.7071 -0.6094
  180SOPE   H7X20585   3.037   4.559   7.555 -1.2308 -1.3291 -0.6567
  180SOPE   H7Y20586   2.917   4.642   7.466 -0.8302 -0.7775 -2.5009
  180SOPE   C3820587   3.126   4.694   7.403  0.1234 -0.3056 -0.6448
  180SOPE   H8X20588   3.060   4.755   7.337  1.5352 -0.3319 -2.1482
  180SOPE   H8Y20589   3.216   4.651   7.353 -0.3614  0.8025 -2.5775
  180SOPE   C3920590   3.161   4.776   7.522 -0.0561 -0.9655  0.0026
  180SOPE   H9X20591   3.228   4.723   7.593  1.6356 -1.4615 -1.8930
  180SOPE   H9Y20592   3.063   4.800   7.571 -0.5209  1.7274 -2.0542
  180SOPE  C31020593   3.240   4.910   7.488  0.9017 -0.1919  0.0982
  180SOPE  H10X20594   3.170   4.976   7.432 -0.7943 -1.3427  0.7776
  180SOPE  H10Y20595   3.329   4.876   7.431  0.1774 -1.3992 -0.3666
  180SOPE  C31120596   3.274   4.977   7.622 -0.1091 -0.5931  0.3700
  180SOPE  H11X20597   3.329   5.069   7.596  0.0572 -1.0044 -0.7737
  180SOPE  H11Y20598   3.346   4.905   7.667 -0.0240 -0.1255  0.9993
  180SOPE  C31220599   3.159   5.012   7.716  0.2690 -0.1362  0.8128
  180SOPE  H12X20600   3.098   4.921   7.733 -0.8533  0.4636  0.1060
  180SOPE  H12Y20601   3.103   5.093   7.665  2.2521  0.2355 -0.9251
  180SOPE  C31320602   3.197   5.053   7.856 -0.3983 -0.2254  0.1670
  180SOPE  H13X20603   3.111   5.037   7.924  0.1256  1.1943  1.2037
  180SOPE  H13Y20604   3.227   5.160   7.855 -0.5144 -0.1940  0.0126
  180SOPE  C31420605   3.306   4.972   7.929  0.4802  0.2122  0.0085
  180SOPE  H14X20606   3.390   4.959   7.857  0.3879 -0.4750  0.0258
  180SOPE  H14Y20607   3.274   4.871   7.962  0.4977  0.6517  1.4457
  180SOPE  C31520608   3.355   5.051   8.045 -0.1715 -1.0379 -0.3733
  180SOPE  H15X20609   3.409   5.144   8.016  0.8312 -0.5054  2.8106
  180SOPE  H15Y20610   3.432   4.985   8.092  0.3030 -0.1661  0.1119
  180SOPE  C31620611   3.251   5.072   8.157 -0.0247 -0.5123  0.3379
  180SOPE  H16X20612   3.239   4.970   8.199 -2.6106 -0.7922 -0.8582
  180SOPE  H16Y20613   3.153   5.110   8.121  0.8625  0.3367 -1.2869
  180SOPE  C31720614   3.302   5.180   8.254  0.0888  0.5294  0.0608
  180SOPE  H17X20615   3.289   5.279   8.205  0.4849  1.4757  1.7737
  180SOPE  H17Y20616   3.406   5.154   8.282 -0.3496 -4.3244 -1.8791
  180SOPE  C31820617   3.229   5.204   8.386  0.4930  0.2844 -0.2568
  180SOPE  H18X20618   3.274   5.288   8.442  0.0654  1.7146 -1.9685
  180SOPE  H18Y20619   3.238   5.114   8.451 -0.1049 -0.3263 -0.9933
  180SOPE  H18Z20620   3.122   5.232   8.377  0.2483 -0.2189  0.9487
  181SOPE     N20621   3.961   0.070   5.971 -0.5650  0.0366  0.9011
  181SOPE   HN120622   4.033   0.143   5.987  0.0152  0.7689 -3.6658
  181SOPE   HN220623   3.928   0.020   6.056 -2.1178 -0.6726 -0.0584
  181SOPE   HN320624   3.982  -0.001   5.898 -3.1074  0.5744 -0.4830
  181SOPE   C1220625   3.837   0.132   5.914 -0.4818 -0.2297 -0.2321
  181SOPE  H12A20626   3.767   0.051   5.886 -1.9442  0.7714  0.3605
  181SOPE  H12B20627   3.872   0.190   5.826 -0.0526 -0.3700 -0.1560
  181SOPE   C1120628   3.768   0.224   6.019 -0.2441  0.6667  0.5095
  181SOPE  H11A20629   3.736   0.171   6.112  1.9062  1.1291  1.5668
  181SOPE  H11B20630   3.668   0.256   5.982 -0.3495 -0.9093 -0.7049
  181SOPE     P20631   3.825   0.475   5.986  0.0738 -0.3378 -0.0673
  181SOPE   O1320632   3.772   0.441   5.851 -0.0985 -0.0711 -0.7400
  181SOPE   O1420633   3.949   0.554   6.002  0.2579 -0.0063  0.1878
  181SOPE   O1220634   3.845   0.342   6.062 -0.0285  0.0782 -0.2548
  181SOPE   O1120635   3.710   0.543   6.064 -0.2787 -0.5104  0.3522
  181SOPE    C120636   3.740   0.586   6.198  0.4564  0.4798  0.8088
  181SOPE    HA20637   3.770   0.693   6.191  1.8625  0.1335  1.1890
  181SOPE    HB20638   3.823   0.524   6.238 -0.4880 -1.0115  0.5115
  181SOPE    C220639   3.607   0.562   6.291  0.3780 -0.8599  0.4968
  181SOPE    HS20640   3.559   0.659   6.317 -1.5677 -1.4744 -0.6176
  181SOPE   O2120641   3.648   0.499   6.415  0.4002  0.6207 -0.3074
  181SOPE   C2120642   3.709   0.581   6.508 -0.4030  0.2086 -0.4171
  181SOPE   O2220643   3.720   0.701   6.500 -0.8280 -0.3368  0.0324
  181SOPE   C2220644   3.742   0.497   6.634  0.4496 -0.7029  0.2956
  181SOPE   H2R20645   3.789   0.569   6.704  0.3101 -0.4088  0.0852
  181SOPE   H2S20646   3.810   0.417   6.598 -1.0212 -1.9409  0.1735
  181SOPE    C320647   3.497   0.477   6.223 -0.8848 -0.8295 -0.9294
  181SOPE    HX20648   3.545   0.386   6.183 -1.8252 -2.8446  2.1749
  181SOPE    HY20649   3.447   0.529   6.138  0.7420 -0.5398 -1.7423
  181SOPE   O3120650   3.392   0.432   6.318  0.0543  0.1413  0.9371
  181SOPE   C3120651   3.302   0.525   6.347  0.4593  0.1325  0.2103
  181SOPE   O3220652   3.289   0.635   6.297 -0.2548  0.1752  0.3418
  181SOPE   C3220653   3.203   0.467   6.447 -0.4604  0.2353 -0.8514
  181SOPE   H2X20654   3.253   0.399   6.519 -1.5696 -0.4982 -0.7530
  181SOPE   H2Y20655   3.150   0.398   6.378  0.7324 -1.8235  0.1934
  181SOPE   C2320656   3.610   0.443   6.697 -0.6679 -0.5849  0.1116
  181SOPE   H3R20657   3.636   0.383   6.787  0.6045  1.0888  0.9142
  181SOPE   H3S20658   3.569   0.368   6.626 -0.5805 -0.2274 -0.3215
  181SOPE   C2420659   3.511   0.562   6.725 -0.0433  0.5787  0.1106
  181SOPE   H4R20660   3.564   0.640   6.783 -0.2276 -0.1947  1.3568
  181SOPE   H4S20661   3.487   0.599   6.623  0.8253  0.0198 -0.3153
  181SOPE   C2520662   3.383   0.527   6.804  0.0838 -0.1181 -0.6832
  181SOPE   H5R20663   3.329   0.466   6.729 -3.0516 -0.1798  1.4212
  181SOPE   H5S20664   3.410   0.462   6.890 -0.2765 -0.8736 -1.1293
  181SOPE   C2620665   3.298   0.648   6.845 -0.0527 -0.0064  0.6707
  181SOPE   H6R20666   3.346   0.746   6.823 -1.2518  0.2594 -0.9467
  181SOPE   H6S20667   3.199   0.652   6.795  0.2544  4.7752 -0.0582
  181SOPE   C2720668   3.261   0.635   6.996  0.2349  0.2286  0.1842
  181SOPE   H7R20669   3.192   0.549   7.012 -0.8988  1.2834  1.2503
  181SOPE   H7S20670   3.358   0.614   7.046  0.0716 -0.4359  0.2338
  181SOPE   C2820671   3.186   0.748   7.065 -0.9820 -0.5471 -0.9748
  181SOPE   H8R20672   3.229   0.842   7.024  3.0946 -2.3057 -1.1729
  181SOPE   H8S20673   3.084   0.751   7.022 -1.3878  0.8251  0.0188
  181SOPE   C2920674   3.181   0.741   7.218 -0.3649  0.7995 -0.8322
  181SOPE   H9120675   3.233   0.655   7.262 -0.8803  2.0559  2.5990
  181SOPE  C21020676   3.129   0.832   7.302 -0.5409  0.2234 -0.4395
  181SOPE  H10120677   3.153   0.821   7.409  1.0910  0.4988 -0.7514
  181SOPE  C21120678   3.048   0.959   7.266  0.0773 -0.4864  0.6443
  181SOPE  H11R20679   3.068   0.984   7.160 -1.7446 -1.9748 -0.1117
  181SOPE  H11S20680   3.088   1.027   7.345  0.2209  0.1216  0.0509
  181SOPE  C21220681   2.896   0.949   7.284 -0.3287  0.6778  0.1020
  181SOPE  H12R20682   2.844   0.864   7.236 -1.6677  1.4431  0.1533
  181SOPE  H12S20683   2.855   1.046   7.248 -0.2523  0.0987 -1.6362
  181SOPE  C21320684   2.860   0.937   7.432 -0.0605 -0.2703 -0.3680
  181SOPE  H13R20685   2.893   1.026   7.491  0.7849 -0.5292 -0.4315
  181SOPE  H13S20686   2.912   0.846   7.468 -1.0208 -1.8016 -2.6195
  181SOPE  C21420687   2.712   0.905   7.456  0.0302  0.5233 -0.0901
  181SOPE  H14R20688   2.709   0.867   7.560 -0.4137  2.0320  0.4745
  181SOPE  H14S20689   2.668   0.840   7.377 -0.1128  0.8814 -0.3079
  181SOPE  C21520690   2.621   1.032   7.449 -0.0266 -0.6552 -0.0349
  181SOPE  H15R20691   2.526   1.007   7.397 -0.8204  1.8754  0.0684
  181SOPE  H15S20692   2.691   1.099   7.394 -0.1344 -0.4449  0.0817
  181SOPE  C21620693   2.596   1.096   7.586 -0.2106  0.2305 -0.3292
  181SOPE  H16R20694   2.574   1.203   7.567 -1.8617  0.1102  0.7272
  181SOPE  H16S20695   2.694   1.093   7.639 -0.8296  0.9600  0.9018
  181SOPE  C21720696   2.479   1.025   7.650  0.7856  0.5782 -0.2603
  181SOPE  H17R20697   2.501   0.917   7.665 -1.4881 -0.0152 -0.6839
  181SOPE  H17S20698   2.386   1.031   7.589 -0.2048  2.3665  1.3129
  181SOPE  C21820699   2.449   1.095   7.788 -0.3606  0.0694  0.3274
  181SOPE  H18R20700   2.382   1.032   7.850  0.6086  0.5052  1.8822
  181SOPE  H18S20701   2.404   1.197   7.784  0.9064  0.8115  2.7960
  181SOPE  H18T20702   2.543   1.102   7.848 -0.6443  1.6161  0.6287
  181SOPE   C3320703   3.115   0.572   6.509 -1.3519 -0.4046 -0.1647
  181SOPE   H3X20704   3.075   0.647   6.438 -1.0691 -0.4673 -0.3909
  181SOPE   H3Y20705   3.178   0.632   6.577 -1.5685 -0.1809 -0.1618
  181SOPE   C3420706   3.012   0.512   6.601  0.6607  0.1674  0.0849
  181SOPE   H4X20707   3.048   0.435   6.671  0.3581 -0.1986 -0.1562
  181SOPE   H4Y20708   2.941   0.456   6.537 -1.1021 -0.7043  2.6652
  181SOPE   C3520709   2.916   0.622   6.651 -0.7212  0.0352 -0.1393
  181SOPE   H5X20710   2.860   0.655   6.562 -0.2944 -0.7237 -0.7023
  181SOPE   H5Y20711   2.979   0.707   6.685  0.8791 -0.0926 -2.5467
  181SOPE   C3620712   2.811   0.583   6.755  0.0672  1.1727  0.3534
  181SOPE   H6X20713   2.777   0.478   6.738  0.3564  1.0931  0.2668
  181SOPE   H6Y20714   2.712   0.631   6.738 -0.5720 -0.6823 -1.7205
  181SOPE   C3720715   2.864   0.590   6.897  0.2689 -0.3325  0.0449
  181SOPE   H7X20716   2.872   0.699   6.915  0.6205 -0.0135 -1.8252
  181SOPE   H7Y20717   2.965   0.545   6.898  1.9266  3.0044 -1.4222
  181SOPE   C3820718   2.783   0.526   7.005  0.5572 -0.1463 -0.1958
  181SOPE   H8X20719   2.787   0.416   6.990 -0.3552 -0.5375  2.0088
  181SOPE   H8Y20720   2.677   0.555   6.994  0.5910  0.4956  0.9536
  181SOPE   C3920721   2.836   0.547   7.146 -0.5002  0.6030 -0.8278
  181SOPE   H9X20722   2.838   0.652   7.183 -0.6147  0.2675  0.1491
  181SOPE   H9Y20723   2.939   0.507   7.148 -0.0850  1.6484 -0.7513
  181SOPE  C31020724   2.755   0.462   7.252  0.0252 -0.1398  0.3836
  181SOPE  H10X20725   2.760   0.351   7.245 -0.3854 -0.1596  0.3647
  181SOPE  H10Y20726   2.648   0.492   7.243  0.2772  0.3028 -1.9043
  181SOPE  C31120727   2.791   0.493   7.395  0.0644  0.9261 -0.6982
  181SOPE  H11X20728   2.762   0.599   7.405  0.0947  0.8732  0.0507
  181SOPE  H11Y20729   2.901   0.483   7.411 -0.0121 -0.3188 -0.8499
  181SOPE  C31220730   2.718   0.421   7.506  0.0674  0.2404 -0.3185
  181SOPE  H12X20731   2.749   0.314   7.501 -1.0065 -0.0460 -1.2336
  181SOPE  H12Y20732   2.608   0.430   7.490 -0.2216 -1.0427  0.7064
  181SOPE  C31320733   2.743   0.482   7.645  0.9373 -0.3184 -0.0881
  181SOPE  H13X20734   2.685   0.577   7.645 -3.5406 -2.7648 -1.0564
  181SOPE  H13Y20735   2.851   0.504   7.659  0.6928  1.5491 -0.8480
  181SOPE  C31420736   2.704   0.386   7.760  0.2402  0.5547 -0.1347
  181SOPE  H14X20737   2.735   0.282   7.738 -0.4870  0.4622 -0.7776
  181SOPE  H14Y20738   2.594   0.379   7.756  0.0727 -0.2709  3.2996
  181SOPE  C31520739   2.728   0.423   7.909  0.0160 -0.1733 -0.7335
  181SOPE  H15X20740   2.653   0.377   7.977 -0.6016 -0.0039 -1.2867
  181SOPE  H15Y20741   2.718   0.534   7.911 -1.0008 -0.2757  0.8281
  181SOPE  C31620742   2.871   0.391   7.967  0.2187  0.0134  0.5366
  181SOPE  H16X20743   2.942   0.432   7.892  0.3570  0.4589  0.9061
  181SOPE  H16Y20744   2.884   0.281   7.962 -0.6214 -0.0506 -0.6404
  181SOPE  C31720745   2.891   0.439   8.105 -0.2298  0.0186 -0.1953
  181SOPE  H17X20746   2.882   0.549   8.117 -2.0828 -0.1950  0.7171
  181SOPE  H17Y20747   2.990   0.405   8.143 -0.6083 -1.5478 -0.5528
  181SOPE  C31820748   2.795   0.386   8.205  0.5643  0.0626 -0.1320
  181SOPE  H18X20749   2.689   0.406   8.178  0.2402 -1.0189  0.2766
  181SOPE  H18Y20750   2.794   0.436   8.304 -1.2370  0.3112 -0.2419
  181SOPE  H18Z20751   2.811   0.278   8.228  0.0061  0.3783  1.9402
  182SOPE     N20752   3.940   3.709   6.095 -0.0733  0.5701  0.1544
  182SOPE   HN120753   3.867   3.780   6.073  0.1192  0.8085  0.2885
  182SOPE   HN220754   3.997   3.679   6.014  1.0525  1.9940  0.3935
  182SOPE   HN320755   3.876   3.628   6.110  1.4519 -1.0169 -1.5142
  182SOPE   C1220756   4.011   3.741   6.224  0.4393 -0.0429  0.0791
  182SOPE  H12A20757   4.111   3.779   6.193 -0.0910 -0.3746 -2.1627
  182SOPE  H12B20758   4.037   3.643   6.269  1.6200 -0.0666 -0.6109
  182SOPE   C1120759   3.922   3.835   6.307 -0.6517  0.7983 -0.4004
  182SOPE  H11A20760   3.958   3.834   6.412  0.0002 -0.0443 -0.6157
  182SOPE  H11B20761   3.823   3.785   6.315 -0.3226  0.0892 -0.6453
  182SOPE     P20762   3.951   4.103   6.284  0.2567  0.1949  0.3255
  182SOPE   O1320763   3.853   4.196   6.222 -0.1877  0.2495  0.5859
  182SOPE   O1420764   4.093   4.121   6.235 -0.2171 -0.4877 -0.1388
  182SOPE   O1220765   3.900   3.960   6.252  0.3813 -0.3045 -0.2609
  182SOPE   O1120766   3.943   4.123   6.438 -0.6589 -0.6911 -0.3543
  182SOPE    C120767   3.822   4.112   6.503 -0.3140  0.2711  0.3831
  182SOPE    HA20768   3.831   4.030   6.578  0.7485  1.1874  1.3064
  182SOPE    HB20769   3.734   4.088   6.440 -0.6565 -0.4233  1.0977
  182SOPE    C220770   3.787   4.238   6.595  0.8697  0.6391  1.0582
  182SOPE    HS20771   3.760   4.313   6.518  0.6277 -0.5193 -0.0145
  182SOPE   O2120772   3.898   4.278   6.672  0.2912 -0.7610  0.3059
  182SOPE   C2120773   3.887   4.407   6.707  0.0050  0.2325 -0.7295
  182SOPE   O2220774   3.797   4.486   6.679  0.1967 -0.2918  0.3067
  182SOPE   C2220775   4.013   4.449   6.777 -0.4186  0.4495  0.3572
  182SOPE   H2R20776   3.998   4.547   6.828 -0.3565  0.5334  0.2144
  182SOPE   H2S20777   4.094   4.455   6.701  0.0914 -3.3203  0.4127
  182SOPE    C320778   3.649   4.215   6.670 -0.6108 -0.2912  0.8610
  182SOPE    HX20779   3.573   4.182   6.596  1.3742 -1.6029 -0.7501
  182SOPE    HY20780   3.612   4.312   6.706 -3.9242 -1.0875 -0.0966
  182SOPE   O3120781   3.664   4.113   6.781  0.4351  0.0618  0.4247
  182SOPE   C3120782   3.561   4.110   6.862 -0.8335  0.1413  0.0687
  182SOPE   O3220783   3.458   4.169   6.843 -0.3009 -0.5529  0.7619
  182SOPE   C3220784   3.596   4.050   6.994 -0.1220 -0.0617 -0.4321
  182SOPE   H2X20785   3.528   4.100   7.066  0.5010 -3.1128  2.4806
  182SOPE   H2Y20786   3.700   4.064   7.031  0.2190 -0.7145 -1.1244
  182SOPE   C2320787   4.075   4.351   6.884  0.2141 -0.7077 -0.2719
  182SOPE   H3R20788   4.179   4.383   6.910  0.0169 -1.1092  1.0794
  182SOPE   H3S20789   4.087   4.246   6.850  0.6905 -0.3325 -1.3149
  182SOPE   C2420790   4.001   4.341   7.012 -0.2199  0.7174 -0.3083
  182SOPE   H4R20791   3.987   4.442   7.056  0.8021  1.1898 -1.0129
  182SOPE   H4S20792   3.901   4.293   7.012 -1.3683  2.9915 -0.9839
  182SOPE   C2520793   4.074   4.256   7.113 -0.3165 -0.1519 -0.8076
  182SOPE   H5R20794   4.100   4.160   7.065  2.0483 -0.2623  0.5182
  182SOPE   H5S20795   4.170   4.304   7.143 -1.0136  0.6460  0.2455
  182SOPE   C2620796   3.993   4.233   7.247  0.4159  0.3991  0.2740
  182SOPE   H6R20797   3.977   4.325   7.307  0.6655  2.8415 -3.1270
  182SOPE   H6S20798   3.900   4.180   7.218  0.9590 -0.8794  0.7597
  182SOPE   C2720799   4.070   4.135   7.333  0.3250 -0.9164 -0.1878
  182SOPE   H7R20800   4.070   4.032   7.290  1.2392 -0.5984 -0.9796
  182SOPE   H7S20801   4.169   4.181   7.348 -0.9884  1.5611  1.5266
  182SOPE   C2820802   4.007   4.122   7.476  0.2161 -0.0014  0.0249
  182SOPE   H8R20803   4.024   4.222   7.522  1.0106  0.1610 -0.5888
  182SOPE   H8S20804   3.899   4.097   7.483 -0.1724  1.9758  2.6334
  182SOPE   C2920805   4.092   4.026   7.554 -0.6445 -0.5994  0.1721
  182SOPE   H9120806   4.188   4.063   7.594  0.0397 -2.2545  0.1394
  182SOPE  C21020807   4.057   3.898   7.576  0.0676 -0.8841 -0.2982
  182SOPE  H10120808   4.125   3.829   7.630  0.7392  0.8692  1.1875
  182SOPE  C21120809   3.942   3.822   7.513 -0.4123 -0.1838  0.6673
  182SOPE  H11R20810   3.991   3.737   7.460 -1.0728  1.4566 -2.8503
  182SOPE  H11S20811   3.889   3.874   7.431  1.6321  0.2124 -0.4715
  182SOPE  C21220812   3.850   3.753   7.610  0.6361 -0.0021  0.7212
  182SOPE  H12R20813   3.905   3.691   7.684 -0.5734 -2.3846 -0.2968
  182SOPE  H12S20814   3.803   3.677   7.545  2.3053 -0.2347 -0.2876
  182SOPE  C21320815   3.747   3.849   7.677 -0.4021  0.2184  0.4928
  182SOPE  H13R20816   3.699   3.915   7.601 -0.7368 -0.4422  0.1250
  182SOPE  H13S20817   3.821   3.916   7.726 -0.0891  0.3842 -0.1826
  182SOPE  C21420818   3.637   3.786   7.771 -0.1723  0.3351  0.4811
  182SOPE  H14R20819   3.680   3.715   7.845  0.7581  1.1672  0.7628
  182SOPE  H14S20820   3.573   3.732   7.698 -0.1594 -0.9893  1.4218
  182SOPE  C21520821   3.548   3.886   7.839 -0.7801  0.0172 -0.0646
  182SOPE  H15R20822   3.456   3.842   7.883 -2.1588  0.6787 -2.1261
  182SOPE  H15S20823   3.522   3.945   7.748 -2.3660 -0.0305  0.3321
  182SOPE  C21620824   3.622   3.980   7.934 -0.1397  0.3384  0.1138
  182SOPE  H16R20825   3.709   4.028   7.885  0.1351  0.9409  1.1504
  182SOPE  H16S20826   3.663   3.931   8.025  0.8101 -0.6495 -0.8116
  182SOPE  C21720827   3.524   4.088   7.983 -0.0697  0.0807  0.1690
  182SOPE  H17R20828   3.442   4.045   8.045  1.0140 -0.9680  0.9272
  182SOPE  H17S20829   3.472   4.123   7.891 -1.1009  0.3147  0.8166
  182SOPE  C21820830   3.583   4.204   8.065 -0.5639 -0.3910  0.0036
  182SOPE  H18R20831   3.499   4.263   8.109  1.4931  2.5576  0.2839
  182SOPE  H18S20832   3.638   4.275   7.999 -1.6582  0.5614  0.0721
  182SOPE  H18T20833   3.655   4.175   8.144 -0.2161  0.2996 -0.0485
  182SOPE   C3320834   3.563   3.900   6.987  0.2956 -1.0442 -0.3001
  182SOPE   H3X20835   3.653   3.857   6.938  1.8603  0.2969  1.2912
  182SOPE   H3Y20836   3.468   3.882   6.933 -0.2371  0.8858 -0.0774
  182SOPE   C3420837   3.545   3.834   7.127  0.6605 -1.0466 -0.5577
  182SOPE   H4X20838   3.644   3.807   7.171  0.6588 -1.9350 -1.0594
  182SOPE   H4Y20839   3.499   3.735   7.108  1.0731 -1.2879 -0.3223
  182SOPE   C3520840   3.458   3.921   7.229 -0.2423  0.1755  0.9612
  182SOPE   H5X20841   3.365   3.937   7.170  0.4830 -2.6095 -1.1437
  182SOPE   H5Y20842   3.505   4.019   7.254  0.1130 -0.5883  3.5573
  182SOPE   C3620843   3.433   3.857   7.364 -0.8616  0.3354  0.0069
  182SOPE   H6X20844   3.527   3.841   7.420 -0.1904  1.6129 -0.7169
  182SOPE   H6Y20845   3.397   3.753   7.347  0.1565  0.3354 -2.5558
  182SOPE   C3720846   3.320   3.932   7.444  0.5277  1.2047 -0.1613
  182SOPE   H7X20847   3.243   3.938   7.364 -0.5866 -1.9323  0.5492
  182SOPE   H7Y20848   3.344   4.037   7.471  0.6274  1.1370  0.0119
  182SOPE   C3820849   3.265   3.849   7.552 -0.0855  0.0021 -0.9858
  182SOPE   H8X20850   3.332   3.844   7.640 -1.6320  0.5549  0.2713
  182SOPE   H8Y20851   3.255   3.742   7.526 -1.3959 -0.3795  0.9107
  182SOPE   C3920852   3.134   3.900   7.610 -0.2022  0.0097 -0.1781
  182SOPE   H9X20853   3.051   3.899   7.536 -0.0666  0.5673 -0.3435
  182SOPE   H9Y20854   3.146   4.008   7.634 -1.3019 -0.1447  1.2208
  182SOPE  C31020855   3.085   3.841   7.745 -0.1082  0.3548 -0.0243
  182SOPE  H10X20856   3.058   3.734   7.730 -2.8528  1.2416 -2.2086
  182SOPE  H10Y20857   2.994   3.891   7.785  0.1508  0.1129  0.8917
  182SOPE  C31120858   3.191   3.852   7.855  0.2689  0.7230 -0.7700
  182SOPE  H11X20859   3.239   3.950   7.835  1.7860 -0.3013 -2.4561
  182SOPE  H11Y20860   3.265   3.771   7.838 -0.6776 -0.5271  0.7310
  182SOPE  C31220861   3.138   3.850   8.000 -0.4008 -1.0548  0.1389
  182SOPE  H12X20862   3.214   3.799   8.063  0.1837  1.8237  1.9600
  182SOPE  H12Y20863   3.047   3.786   8.007 -3.4398  2.9186  0.9027
  182SOPE  C31320864   3.105   3.987   8.055  0.5538  0.2339 -0.0643
  182SOPE  H13X20865   3.002   4.020   8.029  0.4152  1.0185  1.3865
  182SOPE  H13Y20866   3.163   4.062   7.997  0.0079  0.0410 -0.8809
  182SOPE  C31420867   3.138   4.015   8.204 -0.2685  0.3893 -1.2492
  182SOPE  H14X20868   3.241   3.983   8.232 -0.9656 -0.8088  0.0803
  182SOPE  H14Y20869   3.065   3.958   8.265 -0.5725  0.8584 -1.1745
  182SOPE  C31520870   3.118   4.167   8.248 -0.3018 -0.5776  0.6211
  182SOPE  H15X20871   3.010   4.181   8.226 -0.3576  2.5950  2.3576
  182SOPE  H15Y20872   3.176   4.231   8.179 -0.7895  0.4134  1.1180
  182SOPE  C31620873   3.148   4.207   8.390  0.5812  0.1319  0.3106
  182SOPE  H16X20874   3.070   4.175   8.462  1.4363 -2.1138  0.3076
  182SOPE  H16Y20875   3.159   4.318   8.399  0.8227  0.1838 -0.5944
  182SOPE  C31720876   3.275   4.143   8.454 -0.0353  0.6091 -0.1283
  182SOPE  H17X20877   3.265   4.034   8.473  0.2860  0.1399 -2.4351
  182SOPE  H17Y20878   3.282   4.181   8.558 -2.1211 -2.5816  1.3442
  182SOPE  C31820879   3.398   4.164   8.365  0.2170  0.0561 -0.4509
  182SOPE  H18X20880   3.447   4.259   8.394  0.1790 -0.5991  1.9720
  182SOPE  H18Y20881   3.376   4.160   8.256 -0.2110 -1.7172 -0.3217
  182SOPE  H18Z20882   3.470   4.085   8.394 -0.2339  0.0915  0.8406
  183SOPE     N20883   6.736   2.009   6.373 -0.3018 -0.7753 -0.4782
  183SOPE   HN120884   6.799   1.988   6.293 -0.6433  0.9335 -1.2485
  183SOPE   HN220885   6.776   2.025   6.467 -0.3147 -2.3253 -0.1815
  183SOPE   HN320886   6.662   1.936   6.380  0.3721 -1.4769 -0.5455
  183SOPE   C1220887   6.671   2.141   6.342 -0.8573 -0.2230 -0.6034
  183SOPE  H12A20888   6.588   2.159   6.414  0.1584  2.0792  0.0477
  183SOPE  H12B20889   6.629   2.127   6.240 -1.0289 -0.8264 -0.4600
  183SOPE   C1120890   6.773   2.260   6.335  0.4764 -0.0033 -0.4918
  183SOPE  H11A20891   6.811   2.266   6.439  2.3215 -1.3222 -1.0597
  183SOPE  H11B20892   6.720   2.355   6.311  3.2628  2.0657  1.0153
  183SOPE     P20893   6.970   2.365   6.178 -0.2853 -0.0677  0.1099
  183SOPE   O1320894   6.914   2.493   6.219  0.2300  0.6833  0.0462
  183SOPE   O1420895   6.984   2.333   6.035 -0.2995  0.1907  0.3160
  183SOPE   O1220896   6.881   2.244   6.241 -1.1211  0.1390  0.1284
  183SOPE   O1120897   7.108   2.350   6.250  0.8014 -0.5300  0.3059
  183SOPE    C120898   7.145   2.230   6.312  0.3413 -0.3506  0.0122
  183SOPE    HA20899   7.255   2.211   6.310  0.4280  0.0006  0.8509
  183SOPE    HB20900   7.094   2.140   6.273  0.0383 -0.7708  1.3241
  183SOPE    C220901   7.114   2.234   6.470 -0.2535  0.3198 -0.1970
  183SOPE    HS20902   7.014   2.283   6.471 -0.0040  0.8337  0.7645
  183SOPE   O2120903   7.217   2.304   6.540  0.1425 -0.0634  0.4816
  183SOPE   C2120904   7.165   2.388   6.637  0.0675 -0.3356 -0.4768
  183SOPE   O2220905   7.044   2.395   6.653 -0.0005 -0.3565 -0.4206
  183SOPE   C2220906   7.272   2.446   6.733  0.3089 -0.8036 -0.4547
  183SOPE   H2R20907   7.326   2.527   6.679  1.1551  1.1743  3.0522
  183SOPE   H2S20908   7.343   2.363   6.750  0.2523 -0.8149 -0.2757
  183SOPE    C320909   7.095   2.077   6.514 -0.3805 -0.2144  0.2583
  183SOPE    HX20910   7.182   2.028   6.466 -0.6115  0.5297 -0.9630
  183SOPE    HY20911   7.011   2.031   6.458 -1.0418  1.1655  0.0736
  183SOPE   O3120912   7.084   2.055   6.654 -0.7073 -0.1293 -0.3214
  183SOPE   C3120913   6.955   2.078   6.694 -0.4652 -0.2466  0.1488
  183SOPE   O3220914   6.865   2.096   6.609  0.2887  0.6211 -0.6374
  183SOPE   C3220915   6.935   2.055   6.843  0.1502 -0.2923  0.2073
  183SOPE   H2X20916   6.973   1.955   6.872  2.5156 -0.2909 -2.5123
  183SOPE   H2Y20917   6.826   2.063   6.865  0.0839  2.4166 -0.7502
  183SOPE   C2320918   7.216   2.499   6.868 -0.2021  0.2900  0.6664
  183SOPE   H3R20919   7.158   2.425   6.926 -2.2694  1.8092  0.6698
  183SOPE   H3S20920   7.153   2.587   6.842 -0.4576 -0.5039 -1.6464
  183SOPE   C2420921   7.333   2.550   6.956 -0.0377  0.8933  0.2582
  183SOPE   H4R20922   7.412   2.473   6.970 -0.2986  0.4644 -0.5672
  183SOPE   H4S20923   7.390   2.631   6.905  1.0129  0.4117  0.6294
  183SOPE   C2520924   7.280   2.602   7.091  0.0402 -0.2358  0.6991
  183SOPE   H5R20925   7.357   2.669   7.137 -1.5542  1.8368  0.5240
  183SOPE   H5S20926   7.193   2.670   7.079  0.0430 -0.5652 -1.6219
  183SOPE   C2620927   7.240   2.502   7.192  0.0606 -0.1202 -0.0607
  183SOPE   H6R20928   7.145   2.457   7.156  0.0044 -1.2704  1.4196
  183SOPE   H6S20929   7.311   2.420   7.217  0.5354  0.0507 -0.8016
  183SOPE   C2720930   7.206   2.586   7.318 -0.1090 -0.1175  0.1317
  183SOPE   H7R20931   7.292   2.650   7.351  0.1818 -0.6908  0.5063
  183SOPE   H7S20932   7.126   2.660   7.295 -1.6879 -0.9095  2.6376
  183SOPE   C2820933   7.144   2.505   7.436 -0.9207 -0.3979 -0.0949
  183SOPE   H8R20934   7.062   2.447   7.388 -0.7731  0.8040 -1.8580
  183SOPE   H8S20935   7.221   2.441   7.486 -0.2483  0.0020 -0.6090
  183SOPE   C2920936   7.079   2.592   7.542 -0.4284 -0.3978  0.7835
  183SOPE   H9120937   6.978   2.631   7.525  0.2495  1.5600  1.0113
  183SOPE  C21020938   7.134   2.634   7.659  0.3096 -0.7854  0.8281
  183SOPE  H10120939   7.088   2.722   7.707 -1.5507 -1.0827 -0.2810
  183SOPE  C21120940   7.263   2.578   7.714 -0.9231 -0.2865  0.0020
  183SOPE  H11R20941   7.297   2.648   7.793 -0.4004 -1.6171  0.9796
  183SOPE  H11S20942   7.340   2.546   7.641 -0.1603 -1.7242  1.3903
  183SOPE  C21220943   7.219   2.442   7.781 -0.3638  0.0113  0.6257
  183SOPE  H12R20944   7.167   2.393   7.696 -0.7951  1.0017  0.2967
  183SOPE  H12S20945   7.159   2.470   7.871  0.3682  2.7009  0.3592
  183SOPE  C21320946   7.344   2.360   7.832 -0.0914 -0.4392 -0.6847
  183SOPE  H13R20947   7.389   2.427   7.908 -3.1993  0.7691  0.2754
  183SOPE  H13S20948   7.415   2.344   7.749  0.0696 -1.9508 -0.2806
  183SOPE  C21420949   7.312   2.228   7.903 -0.0808  0.5256  0.6075
  183SOPE  H14R20950   7.397   2.159   7.924 -0.9405 -0.6796  0.2629
  183SOPE  H14S20951   7.246   2.175   7.830  1.5886 -0.5466 -0.1967
  183SOPE  C21520952   7.238   2.237   8.037  0.4003  0.8809 -0.0571
  183SOPE  H15R20953   7.133   2.274   8.038 -0.6743 -1.8654 -2.0303
  183SOPE  H15S20954   7.287   2.310   8.106  1.7463 -1.5977  1.7830
  183SOPE  C21620955   7.234   2.097   8.115 -0.2497 -0.1653  0.1220
  183SOPE  H16R20956   7.331   2.072   8.163 -0.7861 -2.8193 -0.0274
  183SOPE  H16S20957   7.206   2.016   8.044 -2.4578  0.4577  0.1994
  183SOPE  C21720958   7.121   2.099   8.221  0.1190  0.0205 -0.5341
  183SOPE  H17R20959   7.136   2.000   8.269  0.1537  1.0211  1.6932
  183SOPE  H17S20960   7.021   2.113   8.176 -1.5013  1.3169  3.0598
  183SOPE  C21820961   7.145   2.206   8.331  0.3207 -0.0021 -1.4107
  183SOPE  H18R20962   7.252   2.196   8.362  0.0816 -0.1340 -0.6043
  183SOPE  H18S20963   7.074   2.190   8.415  1.9417 -0.5994 -0.0957
  183SOPE  H18T20964   7.122   2.306   8.290 -0.7913 -0.2787 -1.4876
  183SOPE   C3320965   7.009   2.163   6.922  0.4075  0.1291  0.2561
  183SOPE   H3X20966   6.999   2.265   6.878 -1.2298 -0.8323 -1.7910
  183SOPE   H3Y20967   7.114   2.134   6.943 -0.0390 -0.7027  1.4340
  183SOPE   C3420968   6.960   2.192   7.065 -0.3972  0.3381  0.0504
  183SOPE   H4X20969   6.850   2.205   7.060 -0.6635 -1.9067 -1.8913
  183SOPE   H4Y20970   7.006   2.287   7.100 -1.3649  1.4185 -1.4875
  183SOPE   C3520971   6.981   2.079   7.166  0.4607  0.2663  0.0326
  183SOPE   H5X20972   7.089   2.055   7.164 -0.0198 -2.4041  1.8014
  183SOPE   H5Y20973   6.929   1.988   7.129  1.9282 -0.4084 -0.4442
  183SOPE   C3620974   6.930   2.116   7.305  0.1488  0.2481  0.8097
  183SOPE   H6X20975   6.824   2.148   7.304  0.0618 -0.0286 -0.2074
  183SOPE   H6Y20976   6.988   2.202   7.344 -0.3293  0.2029  1.6376
  183SOPE   C3720977   6.943   2.003   7.413 -0.9624  0.0205 -0.1449
  183SOPE   H7X20978   7.034   1.944   7.389 -1.1812  0.0102 -0.9562
  183SOPE   H7Y20979   6.865   1.926   7.394  0.7939 -2.2074  1.1554
  183SOPE   C3820980   6.932   2.060   7.554 -0.2379 -0.3616 -0.5061
  183SOPE   H8X20981   6.830   2.103   7.548  0.1751  0.6880 -0.1777
  183SOPE   H8Y20982   7.012   2.136   7.565 -0.7841  0.5773 -2.5663
  183SOPE   C3920983   6.927   1.967   7.666  0.3549  0.3630  0.1137
  183SOPE   H9X20984   7.024   1.917   7.683  0.1715  0.1124  0.4521
  183SOPE   H9Y20985   6.857   1.888   7.630 -0.3966  0.1626  1.8629
  183SOPE  C31020986   6.873   2.030   7.802 -0.0660  0.3859  0.6899
  183SOPE  H10X20987   6.765   2.050   7.790 -0.5478 -1.6937  1.2511
  183SOPE  H10Y20988   6.925   2.128   7.806  1.5531 -0.2780 -1.7269
  183SOPE  C31120989   6.899   1.945   7.930  0.6150  0.0850 -0.4882
  183SOPE  H11X20990   6.838   1.996   8.007  3.6022  1.5113  1.1084
  183SOPE  H11Y20991   7.006   1.955   7.956  0.1402  1.1810  1.1850
  183SOPE  C31220992   6.852   1.806   7.902  0.0731 -0.5141  0.5239
  183SOPE  H12X20993   6.915   1.750   7.829 -0.0914 -2.0159  1.4753
  183SOPE  H12Y20994   6.751   1.806   7.855  0.5051 -2.0889 -0.5188
  183SOPE  C31320995   6.864   1.715   8.029  0.6376  0.2513 -0.4113
  183SOPE  H13X20996   6.968   1.725   8.065  0.5914  2.9687 -0.8258
  183SOPE  H13Y20997   6.848   1.612   7.990 -0.0769  0.3021 -0.2707
  183SOPE  C31420998   6.771   1.741   8.147  0.6202 -1.0049 -0.3646
  183SOPE  H14X20999   6.760   1.653   8.214  0.2718  1.3364  2.9111
  183SOPE  H14Y21000   6.670   1.756   8.104  0.6093 -0.2300 -0.0914
  183SOPE  C31521001   6.823   1.841   8.247 -0.0645 -0.0385  0.1103
  183SOPE  H15X21002   6.804   1.948   8.224  0.9922  0.2505  0.4984
  183SOPE  H15Y21003   6.933   1.826   8.259 -0.1134  0.7992  1.9654
  183SOPE  C31621004   6.759   1.828   8.385 -0.2296  0.6940  0.5297
  183SOPE  H16X21005   6.766   1.724   8.424  3.3560  0.4706 -0.3609
  183SOPE  H16Y21006   6.652   1.849   8.364 -0.2788  0.3565  0.4388
  183SOPE  C31721007   6.822   1.921   8.488  0.6903 -0.2895 -0.0861
  183SOPE  H17X21008   6.801   2.021   8.445 -0.7848 -0.9772 -1.0845
  183SOPE  H17Y21009   6.931   1.902   8.486  0.5609 -2.1514  3.3424
  183SOPE  C31821010   6.773   1.900   8.634  0.6636  0.0134 -0.1329
  183SOPE  H18X21011   6.824   1.965   8.709  1.3063 -0.4377 -0.1696
  183SOPE  H18Y21012   6.787   1.796   8.673  1.0652 -0.7297 -2.1392
  183SOPE  H18Z21013   6.665   1.927   8.631  0.3373 -1.2214 -0.0789
  184SOPE     N21014   6.498   2.702   6.226  0.3477 -0.0964  0.1815
  184SOPE   HN121015   6.449   2.711   6.318  0.4115  2.9263  0.0294
  184SOPE   HN221016   6.455   2.619   6.180  0.8355  0.2233 -0.8717
  184SOPE   HN321017   6.600   2.685   6.234  0.1209 -0.6575  3.1263
  184SOPE   C1221018   6.438   2.817   6.150 -0.4980 -0.0605 -0.1711
  184SOPE  H12A21019   6.332   2.832   6.181  0.3665  1.3578  2.4031
  184SOPE  H12B21020   6.445   2.795   6.041 -0.6414  1.7988 -0.5961
  184SOPE   C1121021   6.517   2.955   6.169 -0.6478  0.1856 -0.1629
  184SOPE  H11A21022   6.476   3.020   6.088  1.1089  4.3485  1.9599
  184SOPE  H11B21023   6.626   2.936   6.152 -0.7245  0.4587 -1.0380
  184SOPE     P21024   6.586   3.142   6.339  0.2550  0.2609 -0.0948
  184SOPE   O1321025   6.544   3.208   6.463  0.0728 -0.7023 -0.0013
  184SOPE   O1421026   6.610   3.233   6.223 -0.2201 -0.7067 -0.2902
  184SOPE   O1221027   6.484   3.028   6.290 -0.5329 -0.4629  0.1396
  184SOPE   O1121028   6.720   3.063   6.363 -0.1206 -0.5511  0.3884
  184SOPE    C121029   6.722   2.929   6.398  0.6590  0.0931 -0.6530
  184SOPE    HA21030   6.773   2.879   6.312  0.0719  0.3987 -1.1886
  184SOPE    HB21031   6.625   2.876   6.399  1.0929 -0.7696 -1.8147
  184SOPE    C221032   6.801   2.923   6.529  0.0652  0.9714 -0.2125
  184SOPE    HS21033   6.801   2.820   6.570  1.4051  1.2087  0.4377
  184SOPE   O2121034   6.761   3.019   6.631 -0.0471 -1.0997  0.5236
  184SOPE   C2121035   6.651   2.988   6.697 -0.4269  0.5486  0.1048
  184SOPE   O2221036   6.591   2.880   6.680  0.0425 -0.1509  0.1737
  184SOPE   C2221037   6.604   3.101   6.784  1.0508 -0.5233  0.2590
  184SOPE   H2R21038   6.500   3.118   6.750  1.5602  0.7053 -0.7574
  184SOPE   H2S21039   6.676   3.183   6.766  2.3921 -1.8818 -0.8248
  184SOPE    C321040   6.948   2.949   6.501 -0.3971 -0.6614  0.5866
  184SOPE    HX21041   6.952   3.058   6.479 -0.9363 -0.4566  1.4516
  184SOPE    HY21042   6.976   2.890   6.411  0.1508 -1.5023  1.3000
  184SOPE   O3121043   7.033   2.914   6.615 -0.1708  0.0317  0.3333
  184SOPE   C3121044   7.160   2.942   6.616  0.1409  0.1428 -0.6067
  184SOPE   O3221045   7.223   3.010   6.540 -0.2291  0.3852 -0.3006
  184SOPE   C3221046   7.214   2.890   6.756  0.2460  0.0515  0.6860
  184SOPE   H2X21047   7.236   2.781   6.747 -1.1064 -0.1931  0.1040
  184SOPE   H2Y21048   7.133   2.904   6.830  0.7431  1.3053  1.0184
  184SOPE   C2321049   6.591   3.069   6.935 -0.1645  0.3019  0.3812
  184SOPE   H3R21050   6.521   2.985   6.951  0.0400  0.2536  1.0355
  184SOPE   H3S21051   6.563   3.158   6.995 -2.1978  0.3680 -0.5840
  184SOPE   C2421052   6.722   3.025   6.999  0.5345  0.0379 -0.0188
  184SOPE   H4R21053   6.759   2.932   6.951 -1.6044  0.0476 -1.8662
  184SOPE   H4S21054   6.799   3.105   6.999  0.6054 -0.0244  0.4236
  184SOPE   C2521055   6.702   2.986   7.143 -0.4757  0.0428 -0.2819
  184SOPE   H5R21056   6.657   3.058   7.214  0.1038 -0.7611  0.9350
  184SOPE   H5S21057   6.626   2.905   7.147  0.1452 -0.4950  2.1650
  184SOPE   C2621058   6.830   2.936   7.217 -0.4436  0.5559  0.7090
  184SOPE   H6R21059   6.795   2.912   7.320 -0.5228  0.1559  0.5912
  184SOPE   H6S21060   6.868   2.838   7.181  1.4356  1.2718  0.6109
  184SOPE   C2721061   6.952   3.036   7.229  0.5224  0.2935  0.3528
  184SOPE   H7R21062   7.046   2.976   7.239 -0.3391 -1.2254 -0.2980
  184SOPE   H7S21063   6.958   3.095   7.136 -3.1127 -2.1076 -1.6416
  184SOPE   C2821064   6.940   3.119   7.361 -0.6350  0.4506  0.1164
  184SOPE   H8R21065   7.009   3.201   7.331  0.0048 -0.2563 -0.3450
  184SOPE   H8S21066   6.837   3.159   7.372 -0.2109  2.1109 -1.5058
  184SOPE   C2921067   6.993   3.044   7.481  0.1300 -0.4322  0.2422
  184SOPE   H9121068   7.098   3.014   7.471 -0.2472 -1.4787 -0.9011
  184SOPE  C21021069   6.925   2.991   7.583 -0.6796 -0.0419  0.7195
  184SOPE  H10121070   6.993   2.954   7.661  0.8309  1.0055 -0.0396
  184SOPE  C21121071   6.772   2.995   7.607 -0.8861 -0.6045 -0.3539
  184SOPE  H11R21072   6.725   2.896   7.593 -1.1298 -0.9073  2.1972
  184SOPE  H11S21073   6.716   3.060   7.536 -0.7946 -1.0549 -0.8448
  184SOPE  C21221074   6.739   3.033   7.754  0.6194 -0.2326 -0.0991
  184SOPE  H12R21075   6.630   3.049   7.772  0.6106  0.3044 -0.6107
  184SOPE  H12S21076   6.788   3.129   7.780 -2.0605  1.8856 -2.2084
  184SOPE  C21321077   6.786   2.939   7.866 -0.1291  0.6375  0.7975
  184SOPE  H13R21078   6.897   2.927   7.863 -0.1002  0.9299  0.6205
  184SOPE  H13S21079   6.762   2.838   7.827  1.8699  0.5947 -0.5118
  184SOPE  C21421080   6.747   2.969   8.012  0.6499 -0.2957 -0.2407
  184SOPE  H14R21081   6.774   3.074   8.039 -1.1912  0.0016  0.5593
  184SOPE  H14S21082   6.810   2.908   8.081 -1.1080  0.0315  1.7709
  184SOPE  C21521083   6.600   2.932   8.033 -0.2513 -0.1334  0.0091
  184SOPE  H15R21084   6.594   2.822   8.016 -0.0211 -0.2086  0.4059
  184SOPE  H15S21085   6.541   2.987   7.956  3.0444  0.5041 -2.2791
  184SOPE  C21621086   6.547   2.960   8.173 -0.2261 -0.2377 -0.1641
  184SOPE  H16R21087   6.578   3.058   8.216 -1.2091 -0.1236  0.3159
  184SOPE  H16S21088   6.577   2.884   8.248 -0.8117 -2.3073 -1.9277
  184SOPE  C21721089   6.392   2.963   8.187 -0.1599  0.5135 -1.1626
  184SOPE  H17R21090   6.374   2.853   8.178 -0.1113  0.5245 -1.4003
  184SOPE  H17S21091   6.334   3.013   8.107  0.7208  0.2200 -2.0030
  184SOPE  C21821092   6.345   3.026   8.313 -0.2277  0.5436 -0.4171
  184SOPE  H18R21093   6.394   2.986   8.404 -1.7936 -1.1768 -0.2960
  184SOPE  H18S21094   6.237   3.012   8.336 -0.2748  2.8760  1.1400
  184SOPE  H18T21095   6.364   3.136   8.315 -2.6763  1.0067  0.6055
  184SOPE   C3321096   7.347   2.953   6.792 -0.3194 -0.2291 -0.0900
  184SOPE   H3X21097   7.329   3.062   6.780  0.2381 -0.1979 -0.6845
  184SOPE   H3Y21098   7.419   2.913   6.718 -1.2149 -2.1506  0.0015
  184SOPE   C3421099   7.381   2.937   6.947  0.9501  0.0094  0.5257
  184SOPE   H4X21100   7.485   2.975   6.963  1.3957 -1.6493  1.8947
  184SOPE   H4Y21101   7.384   2.831   6.981  0.1776 -0.1057  0.2499
  184SOPE   C3521102   7.280   3.009   7.039 -0.0750 -0.7223  0.2573
  184SOPE   H5X21103   7.190   2.949   7.065  0.3215 -1.3627  0.1735
  184SOPE   H5Y21104   7.247   3.102   6.988 -0.4198  0.0733  1.8803
  184SOPE   C3621105   7.343   3.060   7.170 -0.7423 -0.0917  0.7640
  184SOPE   H6X21106   7.300   3.155   7.206  1.5003  0.9294  0.8991
  184SOPE   H6Y21107   7.450   3.082   7.145 -1.0664 -0.7391 -1.4238
  184SOPE   C3721108   7.335   2.951   7.275 -0.2653  0.0536 -1.1277
  184SOPE   H7X21109   7.393   2.861   7.246 -0.4674 -0.3065 -0.4376
  184SOPE   H7Y21110   7.227   2.929   7.291 -0.1918  1.3556  1.9865
  184SOPE   C3821111   7.391   3.007   7.409  0.1504 -0.1300 -0.3043
  184SOPE   H8X21112   7.320   3.085   7.444  0.9611 -0.2856  1.8612
  184SOPE   H8Y21113   7.486   3.063   7.394 -0.4105  1.9270  2.8417
  184SOPE   C3921114   7.412   2.903   7.521 -0.5654  0.0294 -0.0246
  184SOPE   H9X21115   7.425   2.801   7.480  0.5615 -0.2353  0.9591
  184SOPE   H9Y21116   7.319   2.887   7.580 -0.5761 -1.0862 -0.3228
  184SOPE  C31021117   7.540   2.925   7.613  0.4951 -0.1498 -0.0193
  184SOPE  H10X21118   7.542   3.035   7.624  0.0805  0.1654 -2.6116
  184SOPE  H10Y21119   7.630   2.898   7.553  0.3095  0.3441 -0.5180
  184SOPE  C31121120   7.534   2.848   7.749  0.0755  0.2160  0.0581
  184SOPE  H11X21121   7.536   2.740   7.727  1.0204  0.7631 -3.0072
  184SOPE  H11Y21122   7.442   2.876   7.805  0.7351 -1.0929  1.8902
  184SOPE  C31221123   7.644   2.888   7.838 -0.1004  0.2861 -0.8253
  184SOPE  H12X21124   7.631   2.998   7.846  0.1816  0.2972 -0.4807
  184SOPE  H12Y21125   7.745   2.864   7.799 -0.5335  0.0096 -1.7962
  184SOPE  C31321126   7.620   2.811   7.976 -0.0916 -0.2856  0.5298
  184SOPE  H13X21127   7.645   2.708   7.943  0.5485  0.2014 -0.5756
  184SOPE  H13Y21128   7.514   2.828   8.005  0.9305  1.2263  3.9178
  184SOPE  C31421129   7.718   2.867   8.076  0.7176  0.3523 -0.2355
  184SOPE  H14X21130   7.697   2.975   8.090 -0.7718  0.0173  0.2952
  184SOPE  H14Y21131   7.823   2.863   8.040  1.6975  2.0694  2.1726
  184SOPE  C31521132   7.715   2.802   8.217  0.1045  0.2498 -0.1899
  184SOPE  H15X21133   7.743   2.695   8.203 -0.7832 -0.2762  1.7465
  184SOPE  H15Y21134   7.614   2.816   8.259 -0.3623  1.0375 -1.5021
  184SOPE  C31621135   7.821   2.863   8.311  0.1203 -0.3106  0.0257
  184SOPE  H16X21136   7.794   2.970   8.322  2.0461  0.4054 -1.6595
  184SOPE  H16Y21137   7.926   2.858   8.274  0.5680 -0.1339  1.2259
  184SOPE  C31721138   7.823   2.808   8.450 -0.4318 -0.0551  0.3306
  184SOPE  H17X21139   7.848   2.701   8.466 -1.3088 -0.0041  2.3467
  184SOPE  H17Y21140   7.714   2.811   8.472  0.0387  1.0043  2.7913
  184SOPE  C31821141   7.899   2.886   8.547  0.0647  0.0654  0.5403
  184SOPE  H18X21142   7.877   2.853   8.651 -1.2911 -3.2371 -0.6726
  184SOPE  H18Y21143   7.873   2.994   8.538 -0.5345 -0.1933 -1.1984
  184SOPE  H18Z21144   8.007   2.867   8.529  0.4722  2.4207  0.1707
  185SAPI   C1221145   2.586   5.893  10.544  0.5697 -0.4150 -0.0364
  185SAPI    H221146   2.560   5.999  10.568  3.0895  0.2202  0.2100
  185SAPI    O221147   2.650   5.906  10.417 -0.0569  0.3294  0.3321
  185SAPI   HO221148   2.670   5.820  10.380  0.0190  0.9061 -1.0311
  185SAPI   C1321149   2.678   5.856  10.656 -0.0067 -0.1030 -0.5795
  185SAPI    H321150   2.630   5.866  10.755  1.9874 -0.0622  0.4260
  185SAPI    O321151   2.789   5.943  10.673  0.5387  0.3571 -0.2229
  185SAPI   HO321152   2.852   5.925  10.603 -1.1564 -0.1692 -1.7127
  185SAPI   C1421153   2.731   5.707  10.653  0.4852  0.1578  0.4266
  185SAPI    H421154   2.789   5.704  10.558 -0.5667  0.6515 -0.2588
  185SAPI    O421155   2.815   5.683  10.763  0.7268 -0.0134  0.5155
  185SAPI   HO421156   2.896   5.651  10.724  0.8320  1.8378 -0.8943
  185SAPI   C1521157   2.611   5.614  10.640  0.3855  0.0344  0.4722
  185SAPI    H521158   2.582   5.588  10.744 -0.6409 -1.6457 -0.1876
  185SAPI    O521159   2.651   5.485  10.596 -0.0933 -0.1591 -0.1232
  185SAPI   HO521160   2.741   5.478  10.630 -0.0217 -0.7425 -0.4194
  185SAPI   C1621161   2.484   5.656  10.568  0.3774 -0.2632  0.4251
  185SAPI    H621162   2.485   5.610  10.467 -2.3599 -0.9717  0.6267
  185SAPI    O621163   2.370   5.599  10.630  0.5663 -0.4814  0.1645
  185SAPI   HO621164   2.288   5.642  10.605  0.5665 -0.1979  0.6371
  185SAPI   C1121165   2.458   5.807  10.543 -0.3891 -0.3098  1.2105
  185SAPI    H121166   2.410   5.850  10.634 -0.8139  1.0368  0.3763
  185SAPI     P21167   2.206   5.861  10.466 -0.2278 -0.2742  0.6121
  185SAPI   O1321168   2.172   5.998  10.514 -0.2104  0.8173  0.2200
  185SAPI   O1421169   2.166   5.752  10.557  0.5203  0.4161  0.1565
  185SAPI   O1221170   2.368   5.852  10.433 -0.2031 -0.0703 -0.2922
  185SAPI   O1121171   2.130   5.852  10.333  0.1395 -0.5584 -0.0889
  185SAPI    C121172   2.143   5.935  10.217  0.9963  0.2953 -0.1942
  185SAPI    HA21173   2.038   5.956  10.186  0.2822 -0.5688  1.4972
  185SAPI    HB21174   2.188   6.032  10.247  2.1399 -0.5526  0.9191
  185SAPI    C221175   2.197   5.854  10.093 -0.2503 -0.2512 -0.5337
  185SAPI    HS21176   2.301   5.822  10.117  0.3977  2.4756  0.6829
  185SAPI   O2121177   2.179   5.931   9.969 -0.1396 -0.1587 -0.4316
  185SAPI   C2121178   2.277   6.020   9.946  0.1575  0.3240 -0.3567
  185SAPI   O2221179   2.373   6.035  10.019 -0.4257 -0.4683  0.1131
  185SAPI   C2221180   2.253   6.087   9.811  0.8521  0.5303 -0.1129
  185SAPI   H2R21181   2.151   6.050   9.788  1.2563 -1.5487  1.2184
  185SAPI   H2S21182   2.240   6.198   9.817  0.7942  0.8073 -3.4702
  185SAPI    C321183   2.122   5.718  10.076  0.3351  0.2694  0.3610
  185SAPI    HX21184   2.016   5.752  10.067  0.6044  1.3854  1.1402
  185SAPI    HY21185   2.124   5.660  10.171  1.6448 -1.0562 -0.4353
  185SAPI   O3121186   2.162   5.638   9.961 -0.1454 -0.2162 -0.1787
  185SAPI   C3121187   2.089   5.540   9.929  0.1740 -0.1725  0.1021
  185SAPI   O3221188   1.997   5.492   9.992  0.3361  0.1757 -0.0813
  185SAPI   C3221189   2.131   5.500   9.791  0.0439 -0.3295  0.4375
  185SAPI   H2X21190   2.120   5.583   9.718  1.3068 -1.8780 -1.6278
  185SAPI   H2Y21191   2.055   5.427   9.755 -0.1784 -0.3728  0.9802
  185SAPI   C2321192   2.351   6.043   9.698  0.0036  0.3493 -0.4583
  185SAPI   H3R21193   2.450   6.047   9.749  0.9324  0.2377 -2.1404
  185SAPI   H3S21194   2.359   6.126   9.624  0.8018  0.9745  0.3137
  185SAPI   C2421195   2.323   5.903   9.637 -0.2784 -0.4821  0.3715
  185SAPI   H4R21196   2.217   5.893   9.606 -0.6254 -1.4914  1.7448
  185SAPI   H4S21197   2.340   5.837   9.726 -1.5489  2.2932  2.8362
  185SAPI   C2521198   2.414   5.863   9.520  0.1846  0.6117 -0.4828
  185SAPI   H5R21199   2.509   5.821   9.556 -1.3307 -2.0652  0.7164
  185SAPI   C2621200   2.403   5.895   9.389  0.5965  0.5005 -0.2023
  185SAPI   H6R21201   2.484   5.875   9.316 -0.2309 -2.7220 -0.3756
  185SAPI   C2721202   2.280   5.956   9.329  0.0507 -0.6633 -0.2562
  185SAPI   H7R21203   2.215   6.000   9.407  2.0433 -0.2517  1.2469
  185SAPI   H7S21204   2.215   5.882   9.277  0.1626 -0.8692 -0.1024
  185SAPI   C2821205   2.307   6.067   9.228  0.2197 -0.2280 -0.0864
  185SAPI   H8R21206   2.280   6.169   9.258  1.6052  0.3661 -0.7405
  185SAPI   C2921207   2.319   6.055   9.093 -0.2821 -1.0411 -0.5530
  185SAPI   H9R21208   2.322   6.143   9.027 -1.7208 -2.1180 -2.1300
  185SAPI  C21021209   2.325   5.923   9.024 -0.1844  0.0437  0.2422
  185SAPI  H10R21210   2.243   5.920   8.949  1.4584  1.6721 -1.7510
  185SAPI  H10S21211   2.304   5.839   9.094 -2.2246  0.0583 -0.2977
  185SAPI  C21121212   2.460   5.903   8.963  0.0145 -0.1381  0.6680
  185SAPI  H11R21213   2.537   5.868   9.033  0.3525 -0.1108  0.3170
  185SAPI  C21221214   2.492   5.938   8.833  0.0354  0.2071  0.7603
  185SAPI  H12R21215   2.596   5.943   8.798 -0.2988 -0.2610 -0.3437
  185SAPI  C21321216   2.386   5.984   8.731  0.2575  0.1610  0.7683
  185SAPI  H13R21217   2.284   6.008   8.769 -0.0736  0.3825 -0.2323
  185SAPI  H13S21218   2.367   5.891   8.674  1.6452 -1.0756  2.2102
  185SAPI  C21421219   2.434   6.098   8.651  0.2181  0.2247  0.4128
  185SAPI  H14R21220   2.484   6.173   8.714 -0.4244  1.0856 -0.0733
  185SAPI  C21521221   2.446   6.114   8.520  0.2446  0.2713  0.1656
  185SAPI  H15R21222   2.492   6.205   8.480 -2.5581  1.6733 -0.1115
  185SAPI  C21621223   2.410   6.003   8.425  0.1820 -0.0638  0.2738
  185SAPI  H16R21224   2.359   5.916   8.471  1.8443 -0.1285  2.1099
  185SAPI  H16S21225   2.505   5.977   8.374  0.7354  1.0812  0.7012
  185SAPI  C21721226   2.323   6.068   8.313  0.0759 -0.5795 -0.2770
  185SAPI  H17R21227   2.236   6.120   8.357  0.0880  0.1911 -1.1321
  185SAPI  H17S21228   2.281   5.988   8.249  1.4822 -1.2108 -0.4624
  185SAPI  C21821229   2.385   6.169   8.208 -0.3496 -0.5608  0.1776
  185SAPI  H18R21230   2.443   6.243   8.267  1.1539 -0.5115 -1.2734
  185SAPI  H18S21231   2.302   6.226   8.162 -1.3520 -2.1556 -0.0828
  185SAPI  C21921232   2.467   6.110   8.094 -0.1551  0.0614 -0.6640
  185SAPI  H19R21233   2.392   6.045   8.044 -0.9053 -0.8495  1.5378
  185SAPI  H19S21234   2.543   6.049   8.148 -0.3800 -0.8490 -1.3312
  185SAPI  C22021235   2.523   6.204   7.990  0.0443  0.0168 -0.2567
  185SAPI  H20R21236   2.587   6.279   8.042  1.7927 -1.0621 -0.7747
  185SAPI  H20S21237   2.450   6.239   7.915  0.7078 -3.9288 -3.0423
  185SAPI  H20T21238   2.595   6.151   7.924 -0.3558  0.6819 -1.2404
  185SAPI   C3321239   2.275   5.442   9.797  0.1384 -0.4960  0.3635
  185SAPI   H3X21240   2.269   5.357   9.868  0.0447 -0.3689  0.5094
  185SAPI   H3Y21241   2.336   5.521   9.847  0.4301  0.2322 -1.0921
  185SAPI   C3421242   2.334   5.394   9.665  0.1256  0.3094 -0.0518
  185SAPI   H4X21243   2.261   5.332   9.611  1.6574 -0.0741 -1.7962
  185SAPI   H4Y21244   2.425   5.337   9.693 -0.9446 -1.2042  0.4233
  185SAPI   C3521245   2.374   5.510   9.565  0.2990  0.5851  0.0296
  185SAPI   H5X21246   2.465   5.566   9.597  0.6094  0.8637 -1.2875
  185SAPI   H5Y21247   2.289   5.582   9.571 -0.2155 -0.1134  1.8225
  185SAPI   C3621248   2.392   5.445   9.428  0.3535  0.1013  0.1822
  185SAPI   H6X21249   2.301   5.408   9.376  0.9441  0.5449 -1.2059
  185SAPI   H6Y21250   2.442   5.348   9.451 -0.6469 -0.6925 -0.8467
  185SAPI   C3721251   2.462   5.537   9.336 -0.4803  0.3015  0.2594
  185SAPI   H7X21252   2.566   5.553   9.373 -0.9888 -0.0155  1.8637
  185SAPI   H7Y21253   2.408   5.634   9.326 -0.9794 -0.1235 -1.4791
  185SAPI   C3821254   2.467   5.487   9.188 -0.1450 -0.0556  0.8279
  185SAPI   H8X21255   2.368   5.446   9.157 -0.1776  0.0414  0.8027
  185SAPI   H8Y21256   2.523   5.391   9.180 -1.8660 -1.1627  1.4081
  185SAPI   C3921257   2.538   5.585   9.092  0.0142  0.6798 -0.1114
  185SAPI   H9X21258   2.646   5.606   9.107  0.4694  0.7234 -2.8718
  185SAPI   H9Y21259   2.480   5.679   9.100  2.1206  1.9205  1.8267
  185SAPI  C31021260   2.536   5.555   8.943  0.5179  0.2443 -0.3215
  185SAPI  H10X21261   2.590   5.458   8.940  3.0044  1.4910  0.9331
  185SAPI  H10Y21262   2.592   5.624   8.876 -0.4905  0.6821 -0.7473
  185SAPI  C31121263   2.397   5.531   8.887  0.6056  0.5974  0.0454
  185SAPI  H11X21264   2.342   5.626   8.873  0.9951  1.2673  2.5135
  185SAPI  H11Y21265   2.328   5.465   8.945  0.9906 -0.2878 -0.4823
  185SAPI  C31221266   2.391   5.474   8.746 -1.1575 -0.0723  0.5742
  185SAPI  H12X21267   2.291   5.433   8.721 -0.2703 -1.5394 -0.8051
  185SAPI  H12Y21268   2.465   5.391   8.738 -0.7192  0.4713 -2.8400
  185SAPI  C31321269   2.428   5.570   8.636  0.1595  0.0837 -0.4997
  185SAPI  H13X21270   2.536   5.592   8.650  0.7488 -1.2949 -2.4003
  185SAPI  H13Y21271   2.362   5.657   8.654  1.0970  0.9154 -1.0208
  185SAPI  C31421272   2.434   5.522   8.488  0.2164 -0.3431 -0.2786
  185SAPI  H14X21273   2.337   5.480   8.451  0.6871 -0.2684 -1.6611
  185SAPI  H14Y21274   2.510   5.441   8.489  1.6409  0.9582 -0.4376
  185SAPI  C31521275   2.492   5.623   8.392 -0.7631  0.5109  0.5889
  185SAPI  H15X21276   2.581   5.671   8.439  0.4480  0.4020 -1.4448
  185SAPI  H15Y21277   2.419   5.707   8.386 -1.0575  0.4082  2.3298
  185SAPI  C31621278   2.517   5.579   8.249 -0.2732  0.0855 -0.8941
  185SAPI  H16X21279   2.544   5.669   8.190  1.3859  0.9798  1.0947
  185SAPI  H16Y21280   2.430   5.524   8.208 -0.0806  0.6181 -2.0479
  185SAPI  C31721281   2.631   5.469   8.238 -0.0965  0.2289 -0.1878
  185SAPI  H17X21282   2.591   5.368   8.264 -0.7743  0.6752  0.5474
  185SAPI  H17Y21283   2.715   5.488   8.309 -1.4516  2.0959  1.0157
  185SAPI  C31821284   2.678   5.478   8.096 -0.4303 -0.3596 -0.1931
  185SAPI  H18X21285   2.746   5.564   8.078  0.8109 -1.3243 -0.3092
  185SAPI  H18Y21286   2.599   5.473   8.018 -0.0069 -0.8463 -0.6029
  185SAPI  H18Z21287   2.740   5.392   8.062  0.4365 -0.0356  0.5346
  186SAPI   C1221288   1.011   4.950  11.076  0.4536 -0.0054  0.1586
  186SAPI    H221289   0.921   4.897  11.113 -0.6186  1.2228 -0.5873
  186SAPI    O221290   0.989   5.087  11.112 -0.2260 -0.4156  0.0110
  186SAPI   HO221291   0.978   5.147  11.039 -0.2815 -0.8006 -0.3032
  186SAPI   C1321292   1.123   4.897  11.151 -0.1321  0.1410 -0.7825
  186SAPI    H321293   1.134   4.791  11.117  1.9399 -0.2696  0.9457
  186SAPI    O321294   1.091   4.898  11.288  0.4460 -0.0599 -1.0693
  186SAPI   HO321295   1.083   4.984  11.330  1.9136 -0.5347  0.2905
  186SAPI   C1421296   1.258   4.969  11.126 -0.7016  0.1800 -0.2339
  186SAPI    H421297   1.243   5.071  11.169  0.4521 -0.1434  1.0040
  186SAPI    O421298   1.365   4.910  11.194 -0.7149 -0.3089 -0.5731
  186SAPI   HO421299   1.387   4.981  11.255 -0.0443 -0.1939 -0.9366
  186SAPI   C1521300   1.284   4.982  10.976 -0.6226  0.6418  0.3153
  186SAPI    H521301   1.331   4.886  10.945  1.2139  1.9408 -1.1719
  186SAPI    O521302   1.394   5.073  10.949 -0.1478  0.4137  0.1455
  186SAPI   HO521303   1.469   5.018  10.927  1.4600  2.2684  0.6275
  186SAPI   C1621304   1.159   5.007  10.886 -0.3646 -0.1660  0.1301
  186SAPI    H621305   1.144   5.117  10.893 -1.1359 -0.3212  1.1181
  186SAPI    O621306   1.182   4.980  10.746 -0.4119  0.2991 -0.2499
  186SAPI   HO621307   1.226   5.056  10.705  0.1568  0.7162  1.0868
  186SAPI   C1121308   1.029   4.939  10.926 -0.4076  0.2438  0.8829
  186SAPI    H121309   1.038   4.829  10.909 -1.1629 -0.5477  4.6628
  186SAPI     P21310   0.773   4.909  10.849  0.3406  0.1691 -0.1268
  186SAPI   O1321311   0.659   4.978  10.921 -0.0546  0.3224 -0.0051
  186SAPI   O1421312   0.788   4.773  10.906 -0.2079 -0.0568 -0.1677
  186SAPI   O1221313   0.914   4.988  10.856  0.0340  0.2060  0.9291
  186SAPI   O1121314   0.737   4.902  10.687  0.3309 -0.5603  0.0731
  186SAPI    C121315   0.706   5.018  10.611 -1.0422 -0.2107 -0.3899
  186SAPI    HA21316   0.596   5.015  10.594 -1.2568  1.1761  0.6108
  186SAPI    HB21317   0.734   5.113  10.660  1.3561  0.0272 -2.0800
  186SAPI    C221318   0.780   5.014  10.478 -0.3656  0.3715  0.4738
  186SAPI    HS21319   0.779   5.120  10.445  2.4360  1.3909  3.2167
  186SAPI   O2121320   0.707   4.927  10.382 -0.2824 -0.0560  0.7339
  186SAPI   C2121321   0.603   4.999  10.323 -0.7192  0.3641 -0.2096
  186SAPI   O2221322   0.569   5.108  10.353 -0.0641 -0.5926  0.2237
  186SAPI   C2221323   0.545   4.910  10.217  0.3744  0.2246  0.0981
  186SAPI   H2R21324   0.480   4.829  10.257 -0.2304  0.6349 -0.0298
  186SAPI   H2S21325   0.495   4.979  10.146  4.4025 -1.0612 -4.5488
  186SAPI    C321326   0.925   4.978  10.489 -0.8257  0.1306 -0.4808
  186SAPI    HX21327   0.938   4.884  10.547  0.1429  1.8119  2.1855
  186SAPI    HY21328   0.975   5.058  10.547 -1.5300 -1.2790  2.2442
  186SAPI   O3121329   0.986   4.967  10.356 -0.4459  0.1524  0.1953
  186SAPI   C3121330   0.993   4.841  10.309  0.0466 -0.5614  0.1134
  186SAPI   O3221331   0.965   4.740  10.366 -0.4092  0.0977 -0.7017
  186SAPI   C3221332   1.029   4.859  10.160  0.4804  0.0093 -0.6457
  186SAPI   H2X21333   1.125   4.916  10.154  0.2184  0.3196 -2.6227
  186SAPI   H2Y21334   0.952   4.920  10.108 -0.0268  0.8798  1.0736
  186SAPI   C2321335   0.656   4.851  10.125  0.2375  0.3034  0.2511
  186SAPI   H3R21336   0.708   4.775  10.187 -0.4707 -0.7715 -0.4366
  186SAPI   H3S21337   0.726   4.927  10.082  1.4066 -1.2606 -0.7207
  186SAPI   C2421338   0.597   4.759  10.017  1.1196 -0.2194  0.8610
  186SAPI   H4R21339   0.541   4.678  10.069  0.9727  0.8968  2.5044
  186SAPI   H4S21340   0.683   4.707   9.969  0.7635 -1.7718  1.8328
  186SAPI   C2521341   0.517   4.837   9.913  0.4124  0.1046 -0.2421
  186SAPI   H5R21342   0.430   4.884   9.961 -0.3193 -2.0206  0.6229
  186SAPI   C2621343   0.543   4.857   9.783 -0.0129 -0.6208  0.4349
  186SAPI   H6R21344   0.470   4.908   9.719 -1.4343  0.1722  2.5604
  186SAPI   C2721345   0.665   4.788   9.711  0.1032 -0.4641 -0.6163
  186SAPI   H7R21346   0.645   4.679   9.713 -0.1756 -0.4096 -0.2775
  186SAPI   H7S21347   0.756   4.810   9.771  0.1243  0.7270 -1.0463
  186SAPI   C2821348   0.684   4.845   9.575  0.4975  0.0876 -0.4116
  186SAPI   H8R21349   0.707   4.952   9.586  1.1678  0.2256 -2.7665
  186SAPI   C2921350   0.668   4.785   9.460 -0.0959  0.5265  0.0538
  186SAPI   H9R21351   0.673   4.842   9.366 -0.0074  2.8874  1.4131
  186SAPI  C21021352   0.654   4.633   9.445  0.3415  0.5952 -0.1035
  186SAPI  H10R21353   0.568   4.620   9.376  0.3303 -1.7047  0.2599
  186SAPI  H10S21354   0.623   4.577   9.536  1.8782  2.5384  1.7205
  186SAPI  C21121355   0.767   4.561   9.378 -0.0124  0.4801  0.2175
  186SAPI  H11R21356   0.827   4.495   9.444 -0.5826  0.2854  0.5475
  186SAPI  C21221357   0.798   4.573   9.245  0.2977  0.1371  0.1108
  186SAPI  H12R21358   0.893   4.532   9.209 -0.0600 -2.6234  1.9550
  186SAPI  C21321359   0.722   4.646   9.132  0.6476 -0.4443 -0.0700
  186SAPI  H13R21360   0.615   4.656   9.159  0.5042 -1.8956 -0.0309
  186SAPI  H13S21361   0.721   4.571   9.051  0.1721 -0.1701 -0.3189
  186SAPI  C21421362   0.777   4.781   9.099 -0.5350 -0.4334 -0.1598
  186SAPI  H14R21363   0.808   4.848   9.180  0.1600 -0.0254 -0.7529
  186SAPI  C21521364   0.783   4.817   8.974 -0.2446 -0.1209  0.1017
  186SAPI  H15R21365   0.835   4.909   8.945  0.4691 -0.1359  1.2880
  186SAPI  C21621366   0.734   4.743   8.860  0.1011  0.3594  0.3846
  186SAPI  H16R21367   0.627   4.719   8.876 -0.2225  0.8491 -0.9347
  186SAPI  H16S21368   0.781   4.643   8.850 -2.1460 -0.6662 -0.5009
  186SAPI  C21721369   0.721   4.823   8.726  0.5099  0.7060  0.5492
  186SAPI  H17R21370   0.657   4.914   8.735  1.0752  1.0108  1.6828
  186SAPI  H17S21371   0.661   4.759   8.657  1.6740  1.0921 -0.8552
  186SAPI  C21821372   0.851   4.878   8.656  0.1163 -0.2077  0.4087
  186SAPI  H18R21373   0.901   4.786   8.621 -1.0107 -0.4709 -0.5862
  186SAPI  H18S21374   0.909   4.942   8.727 -1.5412  0.9752  0.7555
  186SAPI  C21921375   0.838   4.963   8.526 -0.3381 -0.6770 -0.1898
  186SAPI  H19R21376   0.937   4.984   8.481 -0.0455 -0.0399  0.7411
  186SAPI  H19S21377   0.814   5.064   8.565 -0.9956 -1.1391  0.6572
  186SAPI  C22021378   0.755   4.904   8.404 -0.4436  0.0644 -0.5338
  186SAPI  H20R21379   0.781   4.952   8.307 -0.4827  0.2061 -0.4723
  186SAPI  H20S21380   0.645   4.908   8.423  0.1156  0.0077  3.6128
  186SAPI  H20T21381   0.764   4.793   8.413  0.4594  0.2715  1.6463
  186SAPI   C3321382   1.052   4.727  10.096  0.0547 -0.2262  1.0291
  186SAPI   H3X21383   0.954   4.677  10.081  0.4094 -0.0319 -2.7878
  186SAPI   H3Y21384   1.134   4.670  10.143  1.5342  1.3943  0.4921
  186SAPI   C3421385   1.134   4.732   9.957 -0.5179  0.2819  0.5891
  186SAPI   H4X21386   1.127   4.625   9.927 -0.9196 -0.3314  2.7002
  186SAPI   H4Y21387   1.240   4.750   9.983 -0.3293  0.5950 -0.3447
  186SAPI   C3521388   1.089   4.822   9.845  0.2205  0.4887 -0.5156
  186SAPI   H5X21389   1.096   4.919   9.898  0.9844  0.0135  0.2842
  186SAPI   H5Y21390   0.984   4.810   9.810 -0.2909  2.2683  0.2691
  186SAPI   C3621391   1.178   4.812   9.722  0.4059  0.6895  0.0845
  186SAPI   H6X21392   1.287   4.799   9.743  0.5741 -0.8389 -1.4747
  186SAPI   H6Y21393   1.164   4.912   9.675 -0.4834 -0.2974 -1.8666
  186SAPI   C3721394   1.127   4.718   9.606  1.0610 -0.1783  0.1105
  186SAPI   H7X21395   1.016   4.716   9.600  0.8466  0.0230  2.8548
  186SAPI   H7Y21396   1.149   4.612   9.633  2.3821  0.4085  1.5219
  186SAPI   C3821397   1.185   4.754   9.473  0.5727  0.4834 -0.7286
  186SAPI   H8X21398   1.295   4.767   9.475  0.7728 -0.7897 -2.1638
  186SAPI   H8Y21399   1.155   4.860   9.458 -4.9655 -0.4133  1.3553
  186SAPI   C3921400   1.142   4.671   9.356  0.4616 -0.5814  0.4257
  186SAPI   H9X21401   1.037   4.698   9.336  0.0194  0.4791  3.6049
  186SAPI   H9Y21402   1.166   4.564   9.373  1.3782 -0.3749  0.4957
  186SAPI  C31021403   1.212   4.706   9.228  0.1462 -0.8417  0.4273
  186SAPI  H10X21404   1.309   4.654   9.237  0.0907 -0.8155  1.2058
  186SAPI  H10Y21405   1.225   4.815   9.211 -2.1098 -0.4081  1.1740
  186SAPI  C31121406   1.152   4.655   9.103  0.3988  0.9899 -0.2145
  186SAPI  H11X21407   1.043   4.672   9.098  0.3023  0.1895 -1.1654
  186SAPI  H11Y21408   1.184   4.549   9.099  0.1799  0.9312 -0.3788
  186SAPI  C31221409   1.203   4.726   8.978  0.6236  0.5233 -0.2863
  186SAPI  H12X21410   1.313   4.736   8.978  0.5426  1.5844  0.4405
  186SAPI  H12Y21411   1.155   4.826   8.984 -1.5186 -0.4505 -0.3078
  186SAPI  C31321412   1.155   4.675   8.845 -0.0639 -0.6598 -0.0106
  186SAPI  H13X21413   1.050   4.706   8.827  0.4611  0.4183 -1.3680
  186SAPI  H13Y21414   1.168   4.565   8.839 -0.0384 -0.6310 -0.5930
  186SAPI  C31421415   1.230   4.741   8.726 -0.6959  0.3643  0.0940
  186SAPI  H14X21416   1.236   4.852   8.739  0.8448  0.4400 -1.0371
  186SAPI  H14Y21417   1.162   4.723   8.640 -0.8498 -1.4239  0.5508
  186SAPI  C31521418   1.367   4.690   8.691 -0.1904 -0.1927 -0.1916
  186SAPI  H15X21419   1.438   4.688   8.777  2.1117 -2.1998 -1.9898
  186SAPI  H15Y21420   1.403   4.751   8.605  1.2943 -0.8083 -0.0419
  186SAPI  C31621421   1.364   4.547   8.638  0.1640  0.2579 -0.0641
  186SAPI  H16X21422   1.284   4.540   8.561  0.8391 -2.3559 -0.6362
  186SAPI  H16Y21423   1.346   4.476   8.721  0.0348 -1.4590 -1.4878
  186SAPI  C31721424   1.494   4.506   8.563  0.3312  0.3681  0.0702
  186SAPI  H17X21425   1.508   4.396   8.576  0.4632  0.3879  0.0981
  186SAPI  H17Y21426   1.578   4.556   8.615  1.1969 -2.7188  1.9284
  186SAPI  C31821427   1.490   4.531   8.412  0.4104 -0.0609  0.1052
  186SAPI  H18X21428   1.434   4.626   8.393 -1.4530 -0.8870  1.2316
  186SAPI  H18Y21429   1.433   4.451   8.360 -3.4307  1.6351  1.3340
  186SAPI  H18Z21430   1.595   4.534   8.378  0.4992  0.4637  0.4051
  187SAPI   C1221431   4.684   4.081   5.825  0.0309  0.3769  0.0176
  187SAPI    H221432   4.601   4.155   5.823 -0.1547  0.2683  1.7546
  187SAPI    O221433   4.638   3.953   5.799  0.3534 -0.3878 -0.6704
  187SAPI   HO221434   4.547   3.959   5.828  1.2314  2.5985  2.0380
  187SAPI   C1321435   4.796   4.128   5.737 -0.6426 -0.4061 -0.0508
  187SAPI    H321436   4.822   4.228   5.778  0.7504 -1.2581  1.2424
  187SAPI    O321437   4.753   4.148   5.602 -0.0674  0.0199 -0.3210
  187SAPI   HO321438   4.746   4.243   5.602 -1.1457 -0.0375 -1.0786
  187SAPI   C1421439   4.924   4.042   5.744  0.0631  0.0691 -0.3253
  187SAPI    H421440   4.887   3.947   5.700 -1.8699  1.0133 -0.8645
  187SAPI    O421441   5.027   4.105   5.669 -0.2780 -0.5261  0.0671
  187SAPI   HO421442   5.072   4.038   5.617  0.7006 -0.8821  1.3450
  187SAPI   C1521443   4.972   4.018   5.886  0.6796  0.0385 -0.4718
  187SAPI    H521444   5.029   4.107   5.919 -2.9130  2.3168  0.0812
  187SAPI    O521445   5.058   3.901   5.890  0.0953  0.2684 -0.3416
  187SAPI   HO521446   5.148   3.935   5.896  0.4650 -0.8407  0.5508
  187SAPI   C1621447   4.861   4.008   6.001 -0.1829  0.3959  0.2217
  187SAPI    H621448   4.827   3.903   6.009  0.1091  0.1473 -1.3801
  187SAPI    O621449   4.912   4.041   6.125 -0.7194  0.1855  0.3337
  187SAPI   HO621450   4.841   4.071   6.183  1.7974  0.1769  3.7960
  187SAPI   C1121451   4.736   4.093   5.969  0.7190 -0.3248 -0.4628
  187SAPI    H121452   4.766   4.199   5.979 -1.2107  0.2341 -0.2114
  187SAPI     P21453   4.564   4.164   6.164 -0.0082 -0.4986 -0.0762
  187SAPI   O1321454   4.437   4.110   6.220 -0.0462  0.6873  0.7407
  187SAPI   O1421455   4.544   4.295   6.096 -0.6268  0.2806 -0.4547
  187SAPI   O1221456   4.636   4.054   6.062 -0.1094  0.1734 -0.6414
  187SAPI   O1121457   4.678   4.186   6.269 -0.1959  0.6376 -0.0839
  187SAPI    C121458   4.757   4.304   6.283 -0.0516 -0.1090  1.1469
  187SAPI    HA21459   4.817   4.321   6.191  2.5294 -1.2270  2.5245
  187SAPI    HB21460   4.688   4.388   6.308  0.1726 -0.4574  3.1499
  187SAPI    C221461   4.854   4.284   6.407  0.0605 -0.2856  0.1314
  187SAPI    HS21462   4.929   4.204   6.390 -0.3360 -0.3857 -1.2101
  187SAPI   O2121463   4.765   4.252   6.521  0.2431 -0.3098  0.8505
  187SAPI   C2121464   4.820   4.183   6.618 -0.4980  0.7536  0.0115
  187SAPI   O2221465   4.925   4.123   6.605 -0.1314  0.3661  0.1565
  187SAPI   C2221466   4.736   4.193   6.739  0.5156  0.2970  0.5282
  187SAPI   H2R21467   4.634   4.158   6.712  1.2018 -0.9123 -0.5988
  187SAPI   H2S21468   4.762   4.115   6.813  0.5658 -2.4611 -2.1894
  187SAPI    C321469   4.939   4.412   6.432  0.2356  0.6640  0.1277
  187SAPI    HX21470   4.860   4.487   6.453 -2.6015 -1.4601 -2.0876
  187SAPI    HY21471   4.997   4.443   6.342  0.5118 -3.5365 -1.3291
  187SAPI   O3121472   5.030   4.391   6.543  0.0386  0.2563 -0.0064
  187SAPI   C3121473   5.049   4.509   6.618  0.1756 -0.4709 -0.6304
  187SAPI   O3221474   4.993   4.615   6.590  1.1585  0.2215 -0.1993
  187SAPI   C3221475   5.129   4.468   6.740  0.5512 -0.7309  0.1336
  187SAPI   H2X21476   5.194   4.380   6.718  0.3274 -0.4788 -1.6896
  187SAPI   H2Y21477   5.055   4.423   6.809  0.9707 -2.9098 -0.7481
  187SAPI   C2321478   4.723   4.340   6.788  0.3028  0.5184 -0.5089
  187SAPI   H3R21479   4.663   4.407   6.723  0.0916  1.2374  0.4174
  187SAPI   H3S21480   4.824   4.386   6.786  0.7447 -0.4159 -3.0257
  187SAPI   C2421481   4.661   4.353   6.929 -0.4584  1.0717  0.5829
  187SAPI   H4R21482   4.565   4.298   6.925  1.3166 -2.1976 -0.6570
  187SAPI   H4S21483   4.627   4.458   6.945 -1.9068  0.6076  0.6784
  187SAPI   C2521484   4.748   4.294   7.035  0.3478  0.2316 -0.1609
  187SAPI   H5R21485   4.842   4.250   6.998 -0.2833  0.5808 -2.2958
  187SAPI   C2621486   4.712   4.255   7.159  1.2223 -0.1674  0.7065
  187SAPI   H6R21487   4.789   4.216   7.227  0.0590  0.6669  2.5789
  187SAPI   C2721488   4.574   4.288   7.215 -0.3577 -0.1328  0.1311
  187SAPI   H7R21489   4.518   4.348   7.141 -0.6598 -0.5791 -0.0100
  187SAPI   H7S21490   4.586   4.343   7.310 -0.8138  0.2186 -0.0128
  187SAPI   C2821491   4.491   4.167   7.239 -0.5776  1.0329 -0.4089
  187SAPI   H8R21492   4.435   4.130   7.152  0.0162 -0.0443 -0.3475
  187SAPI   C2921493   4.471   4.111   7.360  0.6075  0.1315  1.0020
  187SAPI   H9R21494   4.411   4.020   7.366  2.4708 -1.3987 -1.7152
  187SAPI  C21021495   4.521   4.161   7.500  0.2231 -0.0832  0.4186
  187SAPI  H10R21496   4.457   4.117   7.580  0.7378  1.1868  1.5679
  187SAPI  H10S21497   4.506   4.270   7.515  0.7216 -0.1435  1.4787
  187SAPI  C21121498   4.663   4.129   7.544 -0.2708 -0.0005 -0.0108
  187SAPI  H11R21499   4.741   4.201   7.515  1.3299 -0.6019  2.4731
  187SAPI  C21221500   4.712   4.029   7.620  0.2336  0.5208 -0.4866
  187SAPI  H12R21501   4.816   4.045   7.651 -0.2707  0.4915  1.3185
  187SAPI  C21321502   4.638   3.908   7.670  0.6121  0.3825  0.0397
  187SAPI  H13R21503   4.529   3.927   7.664 -0.1397 -2.5552  1.8772
  187SAPI  H13S21504   4.671   3.901   7.776  0.6113 -0.0435  0.0148
  187SAPI  C21421505   4.661   3.778   7.603  0.0893 -0.5178 -0.0588
  187SAPI  H14R21506   4.762   3.742   7.623 -1.0939 -2.8610  2.2933
  187SAPI  C21521507   4.573   3.705   7.525  0.1995 -0.2993  0.2124
  187SAPI  H15R21508   4.613   3.610   7.485  0.1242 -0.4602  0.5183
  187SAPI  C21621509   4.444   3.757   7.474  0.0419  1.1915  0.1804
  187SAPI  H16R21510   4.417   3.863   7.494 -1.6966  1.0386 -1.0838
  187SAPI  H16S21511   4.362   3.710   7.533  1.3362 -1.2180  0.1616
  187SAPI  C21721512   4.406   3.720   7.323 -0.2304 -0.1636  0.0807
  187SAPI  H17R21513   4.429   3.612   7.308 -1.2328 -0.3914  0.1472
  187SAPI  H17S21514   4.470   3.781   7.256  0.2658 -2.1968 -1.4014
  187SAPI  C21821515   4.258   3.731   7.290 -0.4309 -0.1957 -0.0144
  187SAPI  H18R21516   4.233   3.832   7.328  0.2379  0.6597 -1.7175
  187SAPI  H18S21517   4.204   3.649   7.343 -1.2747  0.2048 -0.2320
  187SAPI  C21921518   4.216   3.725   7.136  0.2641 -0.1893  0.4695
  187SAPI  H19R21519   4.270   3.636   7.097  2.9152  2.2847 -2.0173
  187SAPI  H19S21520   4.249   3.817   7.084 -0.6350 -0.3505 -0.4119
  187SAPI  C22021521   4.065   3.706   7.112 -0.2381 -0.3136  0.0587
  187SAPI  H20R21522   4.011   3.800   7.136  0.1063  0.1013 -0.7628
  187SAPI  H20S21523   4.026   3.621   7.171 -0.9870  0.2547  0.4038
  187SAPI  H20T21524   4.036   3.699   7.005 -0.6394  2.3637 -0.0736
  187SAPI   C3321525   5.208   4.591   6.805 -0.2846  0.2568 -0.5286
  187SAPI   H3X21526   5.138   4.674   6.827  1.7284  1.7017  0.7038
  187SAPI   H3Y21527   5.294   4.621   6.742 -1.2498  2.9802 -0.6767
  187SAPI   C3421528   5.267   4.550   6.944 -0.3529  0.8057  0.3667
  187SAPI   H4X21529   5.349   4.475   6.938 -2.5830 -1.6730 -1.4061
  187SAPI   H4Y21530   5.186   4.513   7.010 -0.8146  0.1030 -0.5699
  187SAPI   C3521531   5.328   4.670   7.007  0.1332  1.1480 -0.3416
  187SAPI   H5X21532   5.261   4.758   7.000  1.0439  1.7732 -1.7208
  187SAPI   H5Y21533   5.418   4.689   6.945  0.1906  2.2271  0.0555
  187SAPI   C3621534   5.377   4.630   7.144 -0.3020  0.9330  0.2106
  187SAPI   H6X21535   5.445   4.542   7.131  0.4004  1.1511  2.0993
  187SAPI   H6Y21536   5.288   4.602   7.205 -1.7339 -2.5277 -3.0812
  187SAPI   C3721537   5.463   4.743   7.202  0.3832 -0.4600  0.1705
  187SAPI   H7X21538   5.393   4.829   7.191 -1.7408 -1.9826  0.9881
  187SAPI   H7Y21539   5.554   4.754   7.139 -0.8675 -0.4661 -1.7148
  187SAPI   C3821540   5.499   4.718   7.344 -0.0846  0.1879  0.4548
  187SAPI   H8X21541   5.536   4.614   7.357  2.6724  1.0738  0.3887
  187SAPI   H8Y21542   5.409   4.718   7.409  0.2085 -1.2811  0.9023
  187SAPI   C3921543   5.615   4.815   7.387 -0.2251 -0.4748 -0.1390
  187SAPI   H9X21544   5.583   4.918   7.362  0.3083 -0.2600  0.0561
  187SAPI   H9Y21545   5.710   4.796   7.333  1.1956  2.8066  0.9867
  187SAPI  C31021546   5.648   4.802   7.540  0.0964 -0.1673  0.3983
  187SAPI  H10X21547   5.555   4.815   7.601  0.7787  0.8115  1.2551
  187SAPI  H10Y21548   5.714   4.884   7.573 -2.4130  1.7436  1.0154
  187SAPI  C31121549   5.695   4.665   7.581 -0.5984  0.8705  0.5047
  187SAPI  H11X21550   5.778   4.653   7.507 -0.8287  1.0434  0.2141
  187SAPI  H11Y21551   5.622   4.583   7.561 -0.3151  0.4505  1.1677
  187SAPI  C31221552   5.728   4.652   7.729  0.4429  0.5791 -0.4508
  187SAPI  H12X21553   5.773   4.748   7.761  2.8193 -0.0815 -1.5596
  187SAPI  H12Y21554   5.804   4.573   7.748  0.5919  0.8135 -0.0652
  187SAPI  C31321555   5.599   4.637   7.806 -0.0755 -0.0748 -0.4763
  187SAPI  H13X21556   5.575   4.529   7.791  2.6122 -0.7531 -0.4657
  187SAPI  H13Y21557   5.521   4.704   7.765  1.0153  2.5608  1.4923
  187SAPI  C31421558   5.615   4.653   7.954 -0.6325 -0.7995  0.0241
  187SAPI  H14X21559   5.628   4.761   7.979 -2.4981 -0.6164  0.3327
  187SAPI  H14Y21560   5.707   4.597   7.979 -1.4485 -1.2583  2.1911
  187SAPI  C31521561   5.502   4.591   8.046  0.2758 -0.0395  0.3527
  187SAPI  H15X21562   5.475   4.485   8.028  1.3362 -0.1641 -0.6434
  187SAPI  H15Y21563   5.417   4.654   8.009 -1.4684 -2.4500  0.0070
  187SAPI  C31621564   5.527   4.615   8.197 -0.2295 -0.2397  0.0195
  187SAPI  H16X21565   5.434   4.644   8.249 -0.6649  1.1293 -1.4638
  187SAPI  H16Y21566   5.604   4.694   8.204  2.0387 -2.1696 -1.3094
  187SAPI  C31721567   5.572   4.483   8.257 -0.4752 -0.2069 -0.4053
  187SAPI  H17X21568   5.673   4.447   8.228  1.1816  1.1114  3.1283
  187SAPI  H17Y21569   5.496   4.403   8.242 -0.7695 -0.3414  1.5695
  187SAPI  C31821570   5.582   4.503   8.411  0.0637  0.0914 -0.0354
  187SAPI  H18X21571   5.620   4.408   8.453 -1.5030 -1.0540 -1.1241
  187SAPI  H18Y21572   5.490   4.545   8.456  0.8668  1.2374  0.6146
  187SAPI  H18Z21573   5.643   4.588   8.449 -1.3158  0.9420  0.3441
  188SAPI   C1221574   1.244   2.355   6.058  1.1056 -0.3932 -0.0478
  188SAPI    H221575   1.225   2.446   6.118 -0.1901 -1.5254  1.3259
  188SAPI    O221576   1.109   2.317   6.025 -0.1956  0.0125 -0.1383
  188SAPI   HO221577   1.073   2.252   6.085 -1.4893  1.2002  0.4268
  188SAPI   C1321578   1.324   2.389   5.934 -0.5004  0.5527  0.1201
  188SAPI    H321579   1.423   2.423   5.971 -1.2640  3.2748 -0.1259
  188SAPI    O321580   1.257   2.488   5.862  0.2967  0.0806  0.4045
  188SAPI   HO321581   1.162   2.476   5.872  0.4566  0.2504  2.5554
  188SAPI   C1421582   1.335   2.268   5.850 -0.1853 -0.1959  1.1251
  188SAPI    H421583   1.238   2.259   5.798 -0.5934  2.7321  1.2488
  188SAPI    O421584   1.418   2.279   5.733 -0.0970 -0.0725 -0.5489
  188SAPI   HO421585   1.372   2.328   5.664 -0.5430 -1.0777 -0.9905
  188SAPI   C1521586   1.376   2.142   5.924  0.1285 -0.2139  0.3234
  188SAPI    H521587   1.487   2.138   5.923  0.1774  0.6929 -0.8324
  188SAPI    O521588   1.344   2.023   5.852 -0.3028  0.1374  0.5883
  188SAPI   HO521589   1.251   2.006   5.862 -0.3477 -0.4635 -0.6894
  188SAPI   C1621590   1.332   2.130   6.077  0.4421 -0.0493  0.6119
  188SAPI    H621591   1.242   2.065   6.070 -0.3626  1.0613  0.3854
  188SAPI    O621592   1.417   2.051   6.159 -0.0412 -0.0335 -0.2737
  188SAPI   HO621593   1.404   2.086   6.247 -0.6029  1.6794 -1.0023
  188SAPI   C1121594   1.305   2.257   6.149 -0.1250  0.2815 -0.4788
  188SAPI    H121595   1.402   2.300   6.182  0.9031 -2.9840  1.1774
  188SAPI     P21596   1.274   2.222   6.414 -0.1103  0.5618 -0.2204
  188SAPI   O1321597   1.388   2.126   6.405 -0.0400 -0.7941  0.6159
  188SAPI   O1421598   1.151   2.187   6.491 -0.4806 -0.8070  0.2119
  188SAPI   O1221599   1.219   2.244   6.264  0.0350 -0.2703  0.4645
  188SAPI   O1121600   1.340   2.364   6.451  0.2519  0.1149  0.0799
  188SAPI    C121601   1.259   2.480   6.432  1.0727  0.3779 -0.5885
  188SAPI    HA21602   1.249   2.508   6.325 -1.2176  0.9275 -0.2741
  188SAPI    HB21603   1.153   2.466   6.459  1.5697  1.8026  2.6016
  188SAPI    C221604   1.300   2.605   6.519 -0.1849  0.5652  0.1568
  188SAPI    HS21605   1.408   2.625   6.504  0.0878 -1.1911 -0.3310
  188SAPI   O2121606   1.268   2.569   6.656 -0.0152  0.1604 -0.2831
  188SAPI   C2121607   1.375   2.533   6.729  0.7936 -0.8965  0.0446
  188SAPI   O2221608   1.493   2.535   6.697 -0.1875  0.4742  0.5909
  188SAPI   C2221609   1.325   2.506   6.871  0.2155  0.8878 -0.0206
  188SAPI   H2R21610   1.328   2.602   6.926  1.3972 -0.2043  1.9823
  188SAPI   H2S21611   1.218   2.478   6.866  0.1793  0.6227  1.5942
  188SAPI    C321612   1.207   2.731   6.494  0.2176 -0.0586  0.0550
  188SAPI    HX21613   1.103   2.694   6.511  0.6180 -2.5399 -2.1174
  188SAPI    HY21614   1.198   2.757   6.386  1.7635  0.6383  0.0830
  188SAPI   O3121615   1.270   2.838   6.566  0.1562 -0.1704 -0.5275
  188SAPI   C3121616   1.201   2.938   6.600  0.0560  0.3894 -0.5366
  188SAPI   O3221617   1.084   2.966   6.588  0.2198  0.3080  0.0300
  188SAPI   C3221618   1.290   3.048   6.654 -0.5879  0.5147 -0.3134
  188SAPI   H2X21619   1.232   3.135   6.693 -1.0736  0.3456 -0.6508
  188SAPI   H2Y21620   1.342   3.078   6.560 -1.0697  1.1176 -0.3950
  188SAPI   C2321621   1.411   2.415   6.962 -0.1694 -0.0831 -0.8953
  188SAPI   H3R21622   1.446   2.318   6.921 -2.4649 -1.2424 -0.2352
  188SAPI   H3S21623   1.349   2.392   7.051  0.6968  1.6454  0.2236
  188SAPI   C2421624   1.536   2.483   7.021 -0.0031  0.3039 -0.1144
  188SAPI   H4R21625   1.498   2.573   7.073 -0.9430 -0.2881  0.2538
  188SAPI   H4S21626   1.600   2.499   6.932 -0.1323 -3.0022 -0.9391
  188SAPI   C2521627   1.612   2.387   7.108 -0.6411 -0.2015 -1.1420
  188SAPI   H5R21628   1.670   2.309   7.057 -1.2247 -0.7490 -0.9953
  188SAPI   C2621629   1.594   2.378   7.241  0.2650  0.5990 -0.3633
  188SAPI   H6R21630   1.661   2.301   7.281  0.1360  0.6062 -0.1360
  188SAPI   C2721631   1.501   2.452   7.322 -0.2012 -0.0318 -0.7269
  188SAPI   H7R21632   1.434   2.528   7.277 -0.5985  0.4514  0.6269
  188SAPI   H7S21633   1.557   2.515   7.395 -1.4989  0.1540  0.1505
  188SAPI   C2821634   1.407   2.362   7.402 -0.0540 -0.0322  0.3434
  188SAPI   H8R21635   1.339   2.306   7.337  1.4741 -0.9226 -0.5650
  188SAPI   C2921636   1.388   2.365   7.536  0.1555  0.2225  0.2008
  188SAPI   H9R21637   1.312   2.295   7.573 -1.2290  1.8475  0.5422
  188SAPI  C21021638   1.471   2.442   7.637 -0.3739  0.0194 -0.1138
  188SAPI  H10R21639   1.430   2.545   7.646 -0.5562 -0.2421  4.3645
  188SAPI  H10S21640   1.577   2.439   7.603  0.4094 -3.7017  2.0110
  188SAPI  C21121641   1.473   2.383   7.773  0.6099 -0.3909 -0.5092
  188SAPI  H11R21642   1.375   2.347   7.807  0.1440  1.1365 -0.1790
  188SAPI  C21221643   1.566   2.391   7.868  0.0483  0.8349  0.3192
  188SAPI  H12R21644   1.540   2.345   7.965  0.7199 -1.6036 -0.5835
  188SAPI  C21321645   1.709   2.430   7.853 -0.2637 -0.3034 -0.2416
  188SAPI  H13R21646   1.727   2.485   7.758  0.1701 -0.7799 -0.4392
  188SAPI  H13S21647   1.782   2.346   7.850 -0.1708 -0.2227 -0.2621
  188SAPI  C21421648   1.746   2.517   7.973  0.8302  0.2805  0.5959
  188SAPI  H14R21649   1.666   2.590   7.991  0.6175  0.6520 -1.6596
  188SAPI  C21521650   1.851   2.512   8.057  0.3837  0.2960  0.0160
  188SAPI  H15R21651   1.854   2.585   8.139  1.8503  0.4814 -0.1755
  188SAPI  C21621652   1.952   2.403   8.060 -0.0427 -0.1525 -0.0647
  188SAPI  H16R21653   2.045   2.456   8.089 -0.8445 -0.1487  2.8471
  188SAPI  H16S21654   1.964   2.361   7.958 -2.0601 -0.9348 -0.0343
  188SAPI  C21721655   1.935   2.282   8.153  0.6061 -0.2619 -0.5962
  188SAPI  H17R21656   2.001   2.198   8.120 -2.0222 -2.2949 -0.9971
  188SAPI  H17S21657   1.833   2.239   8.144  0.9051 -1.3504  0.8471
  188SAPI  C21821658   1.967   2.320   8.299 -0.5246  0.7923 -0.1723
  188SAPI  H18R21659   1.919   2.256   8.376  2.2372  0.2183  1.1993
  188SAPI  H18S21660   1.935   2.426   8.313  0.2450  1.1136 -0.7658
  188SAPI  C21921661   2.118   2.316   8.340  0.2102  0.1255 -0.0089
  188SAPI  H19R21662   2.161   2.403   8.285 -0.1483  0.8534  0.8384
  188SAPI  H19S21663   2.145   2.211   8.316  0.5480  0.0924  0.5053
  188SAPI  C22021664   2.145   2.321   8.487  0.2251 -0.2742  0.4822
  188SAPI  H20R21665   2.110   2.226   8.533  0.6581 -0.7278 -0.1125
  188SAPI  H20S21666   2.094   2.406   8.538  1.1132  0.5269  0.0430
  188SAPI  H20T21667   2.255   2.330   8.500  0.2190  0.5779  0.0196
  188SAPI   C3321668   1.389   3.008   6.774  0.5172 -0.1231 -0.3086
  188SAPI   H3X21669   1.448   3.097   6.802  0.0276 -0.5637  2.3534
  188SAPI   H3Y21670   1.464   2.933   6.740  1.7563  1.4320 -1.1080
  188SAPI   C3421671   1.307   2.954   6.892 -0.0527 -0.6536 -0.4738
  188SAPI   H4X21672   1.246   2.864   6.870 -0.2357 -1.3364  2.4560
  188SAPI   H4Y21673   1.244   3.042   6.919  0.9959 -0.2679  0.8209
  188SAPI   C3521674   1.399   2.923   7.015 -0.1964  0.4129  0.3952
  188SAPI   H5X21675   1.460   3.016   7.024  1.0102 -0.3335  0.0740
  188SAPI   H5Y21676   1.454   2.828   6.999 -2.0585 -0.4516 -1.1902
  188SAPI   C3621677   1.315   2.929   7.148  0.5815  0.7411  0.6307
  188SAPI   H6X21678   1.227   2.863   7.132 -0.4348  1.6807  2.0981
  188SAPI   H6Y21679   1.274   3.031   7.165 -0.0446  0.2236  2.4921
  188SAPI   C3721680   1.400   2.879   7.269 -0.6684 -0.2001 -0.4257
  188SAPI   H7X21681   1.494   2.939   7.269 -0.0307 -0.9204 -4.0873
  188SAPI   H7Y21682   1.433   2.774   7.257 -1.3546 -1.1225  4.1415
  188SAPI   C3821683   1.338   2.897   7.404 -0.8856 -0.1922 -0.6684
  188SAPI   H8X21684   1.246   2.836   7.402 -0.5981 -0.6760  0.3426
  188SAPI   H8Y21685   1.304   3.001   7.426 -0.2022 -0.6930  3.4543
  188SAPI   C3921686   1.427   2.877   7.531  0.0951  0.0210  0.1922
  188SAPI   H9X21687   1.517   2.939   7.514  0.7537 -0.1353  2.7476
  188SAPI   H9Y21688   1.472   2.775   7.535  1.9005  0.6802 -1.6860
  188SAPI  C31021689   1.354   2.910   7.661  0.1539  0.6331  0.0932
  188SAPI  H10X21690   1.263   2.849   7.676  0.8200 -0.2331  0.6834
  188SAPI  H10Y21691   1.321   3.016   7.657 -2.7575 -0.2057 -0.5092
  188SAPI  C31121692   1.439   2.903   7.788  0.2411 -0.4160  0.1784
  188SAPI  H11X21693   1.493   2.996   7.815  1.5299 -1.3032  0.7588
  188SAPI  H11Y21694   1.509   2.818   7.769 -0.4063 -1.1822  1.0972
  188SAPI  C31221695   1.345   2.867   7.901 -0.2117 -0.5601  0.1924
  188SAPI  H12X21696   1.292   2.771   7.885  0.7401 -1.3025  1.2755
  188SAPI  H12Y21697   1.275   2.952   7.914  2.9061  2.6621 -2.0313
  188SAPI  C31321698   1.426   2.857   8.035 -0.5040 -0.1705 -0.2036
  188SAPI  H13X21699   1.535   2.871   8.018 -0.4663 -1.2852 -0.9607
  188SAPI  H13Y21700   1.416   2.751   8.065 -2.4907 -0.4519 -1.7115
  188SAPI  C31421701   1.388   2.955   8.148 -0.0269 -0.3224 -0.4248
  188SAPI  H14X21702   1.278   2.970   8.160  0.3268  0.8042  2.0275
  188SAPI  H14Y21703   1.421   3.058   8.124 -0.5408  0.1407  0.7537
  188SAPI  C31521704   1.445   2.918   8.293  0.2055  0.2305 -0.0335
  188SAPI  H15X21705   1.555   2.900   8.292  0.5080  1.9246 -0.9205
  188SAPI  H15Y21706   1.406   2.821   8.332 -0.9062  0.7343  0.1174
  188SAPI  C31621707   1.418   3.024   8.407  0.2535  0.1321 -0.0366
  188SAPI  H16X21708   1.311   3.049   8.420 -0.0712  0.0013 -2.0772
  188SAPI  H16Y21709   1.470   3.115   8.370  0.8676  0.7911  2.2744
  188SAPI  C31721710   1.482   2.988   8.546  0.1399 -0.2748  0.5515
  188SAPI  H17X21711   1.578   2.932   8.537  1.4439  1.3017  3.2802
  188SAPI  H17Y21712   1.415   2.910   8.588 -0.5840 -1.0717 -1.9306
  188SAPI  C31821713   1.480   3.096   8.644 -0.9364  0.0764  0.1910
  188SAPI  H18X21714   1.511   3.078   8.749  1.5288  0.4343 -0.4174
  188SAPI  H18Y21715   1.386   3.156   8.647 -0.1161  1.3961  3.3651
  188SAPI  H18Z21716   1.566   3.161   8.619 -1.5157  0.5546 -0.6375
  189POPC     N21717   0.716   4.525  10.575  0.5351  0.2830 -0.0209
  189POPC   C1221718   0.605   4.628  10.589 -0.7060 -0.6000  0.1248
  189POPC  H12A21719   0.650   4.724  10.566  1.0926 -1.3686  0.2422
  189POPC  H12B21720   0.569   4.639  10.690  1.2690 -2.0164  1.0490
  189POPC   C1321721   0.742   4.477  10.427 -0.3138 -0.1787  0.2102
  189POPC  H13A21722   0.787   4.559  10.373  0.1383  0.3281  1.3114
  189POPC  H13B21723   0.791   4.381  10.433 -1.6337 -0.8153  4.6313
  189POPC  H13C21724   0.650   4.464  10.372  1.5087 -0.2834 -3.0433
  189POPC   C1421725   0.848   4.573  10.623  0.0407  0.6109  0.8650
  189POPC  H14A21726   0.931   4.504  10.610  0.1582  0.8177  0.4946
  189POPC  H14B21727   0.872   4.659  10.563  0.7928  0.6520  1.2132
  189POPC  H14C21728   0.840   4.601  10.727 -2.1398  0.4033  0.7883
  189POPC   C1521729   0.671   4.405  10.655 -0.2570  0.2160  0.3878
  189POPC  H15A21730   0.588   4.364  10.600  0.7984 -0.4371 -0.7719
  189POPC  H15B21731   0.646   4.438  10.755 -0.3373 -0.2585  0.5271
  189POPC  H15C21732   0.746   4.328  10.666  0.7515  0.8120 -1.7510
  189POPC   C1121733   0.477   4.612  10.503 -0.5190 -0.0418  0.1092
  189POPC  H11A21734   0.490   4.603  10.393 -3.9751 -1.1564 -0.3114
  189POPC  H11B21735   0.420   4.704  10.526 -1.4802 -0.6538  0.2343
  189POPC     P21736   0.253   4.485  10.563  0.4202 -0.2776  0.2285
  189POPC   O1321737   0.203   4.569  10.674  0.2215  0.0980  0.4721
  189POPC   O1421738   0.216   4.342  10.555 -0.1174 -0.2886 -0.1135
  189POPC   O1221739   0.410   4.496  10.548  0.0356  0.1983 -0.5336
  189POPC   O1121740   0.209   4.560  10.428 -0.4975  0.0848 -0.0855
  189POPC    C121741   0.071   4.550  10.387 -0.0564 -0.2185 -0.5715
  189POPC    HA21742   0.020   4.637  10.434 -1.6536 -2.0991  1.3961
  189POPC    HB21743   0.020   4.463  10.433  1.3785 -1.2607 -0.8768
  189POPC    C221744   0.052   4.552  10.238 -0.1519 -0.3134 -0.1858
  189POPC    HS21745  -0.053   4.577  10.211  0.0496  0.2528 -0.4577
  189POPC   O2121746   0.093   4.422  10.193 -0.1366  0.1204 -0.0532
  189POPC   C2121747   0.000   4.332  10.166 -1.0608  0.2120 -0.0278
  189POPC   O2221748  -0.118   4.349  10.194 -0.5414 -0.3195 -0.0029
  189POPC   C2221749   0.064   4.219  10.091  0.0341 -0.1171  0.3137
  189POPC   H2R21750   0.121   4.151  10.158  1.1867 -3.2155 -3.4673
  189POPC   H2S21751   0.138   4.264  10.021 -1.2793  1.0167 -0.3854
  189POPC    C321752   0.146   4.661  10.169 -0.4460  0.3423  0.4696
  189POPC    HX21753   0.248   4.656  10.212 -0.3760 -1.3428  0.1720
  189POPC    HY21754   0.104   4.761  10.195 -1.1703 -0.1807  1.3875
  189POPC   O3121755   0.142   4.649  10.029  0.3802  0.0200  1.0051
  189POPC   C3121756   0.228   4.557   9.970  0.0529 -0.6542  0.8806
  189POPC   O3221757   0.327   4.511  10.021 -0.3874  0.0242  0.0817
  189POPC   C3221758   0.177   4.542   9.828  1.2048  0.1091  0.2277
  189POPC   H2X21759   0.067   4.550   9.838  1.1555  0.6662 -0.6743
  189POPC   H2Y21760   0.201   4.437   9.800  1.2980  0.4519 -1.0831
  189POPC   C2321761  -0.021   4.124  10.008 -0.1291  0.4813  0.1482
  189POPC   H3R21762  -0.091   4.185   9.946  0.4805  0.5661 -0.4646
  189POPC   H3S21763  -0.076   4.057  10.078 -0.8899  0.9628  0.0210
  189POPC   C2421764   0.057   4.042   9.901 -0.0017 -0.2102 -0.3823
  189POPC   H4R21765  -0.019   3.968   9.868  1.0217 -0.6035 -1.9508
  189POPC   H4S21766   0.135   3.977   9.946 -0.1664 -1.6439 -2.0947
  189POPC   C2521767   0.111   4.119   9.776  0.2214  0.1710 -0.4290
  189POPC   H5R21768   0.149   4.040   9.707 -2.2765 -0.3986 -1.2514
  189POPC   H5S21769   0.201   4.176   9.808 -0.6274 -0.2583  3.0698
  189POPC   C2621770   0.014   4.204   9.690  0.5038 -1.0939 -0.4165
  189POPC   H6R21771  -0.001   4.289   9.760 -0.2979 -1.8940  0.4135
  189POPC   H6S21772  -0.085   4.155   9.677  1.2927 -2.1614 -2.9336
  189POPC   C2721773   0.073   4.268   9.566 -0.2899 -0.0911 -0.1699
  189POPC   H7R21774   0.177   4.304   9.582  0.6105 -1.1179 -3.0308
  189POPC   H7S21775   0.010   4.355   9.537  0.6950  0.5258 -0.5379
  189POPC   C2821776   0.073   4.171   9.446 -0.0141 -0.4314 -0.4494
  189POPC   H8R21777   0.131   4.078   9.463 -0.3780 -1.0533 -2.3322
  189POPC   H8S21778   0.127   4.220   9.362  0.7226 -0.6592 -0.1152
  189POPC   C2921779  -0.073   4.139   9.399 -0.8645  0.0629  0.2550
  189POPC   H9121780  -0.128   4.074   9.468 -1.4029 -2.1453 -2.0864
  189POPC  C21021781  -0.157   4.193   9.307 -0.0787  0.2303  0.0071
  189POPC  H10121782  -0.253   4.145   9.286  0.0416 -0.2769  0.5892
  189POPC  C21121783  -0.108   4.296   9.208 -0.2781  0.3549 -0.1835
  189POPC  H11R21784  -0.039   4.371   9.251  1.3053 -1.7605  1.1537
  189POPC  H11S21785  -0.193   4.358   9.171  1.2169  1.0649 -2.6727
  189POPC  C21221786  -0.045   4.229   9.084 -0.4565  0.0703  0.3586
  189POPC  H12R21787  -0.103   4.151   9.031  2.7560 -1.2477 -1.5037
  189POPC  H12S21788   0.049   4.183   9.120  0.1715  0.8616 -0.2326
  189POPC  C21321789  -0.013   4.343   8.978 -0.5417  0.1880  0.3210
  189POPC  H13R21790   0.053   4.419   9.026 -1.1166  0.8470  0.0799
  189POPC  H13S21791  -0.110   4.391   8.952 -1.4999 -1.0196  1.5247
  189POPC  C21421792   0.063   4.295   8.854  0.1036  0.0689 -0.5200
  189POPC  H14R21793  -0.007   4.222   8.809 -1.0671 -1.4933  3.4579
  189POPC  H14S21794   0.153   4.240   8.890  0.2871  0.8675  0.2719
  189POPC  C21521795   0.097   4.403   8.747 -0.5412  0.2891  0.1663
  189POPC  H15R21796   0.135   4.339   8.664 -0.5140 -0.3056  0.6325
  189POPC  H15S21797   0.182   4.471   8.771 -0.4240  0.7740 -1.4544
  189POPC  C21621798  -0.020   4.500   8.706  0.1794 -0.0567 -0.1901
  189POPC  H16R21799   0.022   4.571   8.631  0.7375  1.0063  1.0873
  189POPC  H16S21800  -0.032   4.574   8.787  1.7867  1.2683 -1.1131
  189POPC  C21721801  -0.155   4.442   8.655  0.0084  0.0147 -0.5147
  189POPC  H17R21802  -0.205   4.383   8.735  1.0463  1.2381  1.0790
  189POPC  H17S21803  -0.137   4.377   8.566 -1.3828 -1.5424  0.2800
  189POPC  C21821804  -0.258   4.550   8.616 -1.0239 -0.1001  0.3114
  189POPC  H18R21805  -0.213   4.635   8.560  0.4246 -1.4993 -0.7545
  189POPC  H18S21806  -0.314   4.581   8.706 -1.8097  0.1546 -0.2547
  189POPC  H18T21807  -0.330   4.494   8.554 -1.6778  1.5572 -0.4818
  189POPC   C3321808   0.255   4.629   9.728  0.7266  0.9486  0.5613
  189POPC   H3X21809   0.359   4.592   9.738  0.3273 -0.2833  0.3205
  189POPC   H3Y21810   0.253   4.740   9.737  1.7177  1.1633 -1.3070
  189POPC   C3421811   0.209   4.612   9.582  0.9139 -0.5180 -0.6226
  189POPC   H4X21812   0.101   4.636   9.590  0.5732 -2.3816  1.3044
  189POPC   H4Y21813   0.224   4.505   9.556  2.0886 -0.7524  0.9185
  189POPC   C3521814   0.286   4.698   9.481 -0.0341  0.2389 -0.2247
  189POPC   H5X21815   0.396   4.688   9.493 -0.1516 -0.3228  0.4458
  189POPC   H5Y21816   0.257   4.802   9.505 -1.7660 -0.2306 -0.1123
  189POPC   C3621817   0.242   4.657   9.344  0.0691  0.0600 -0.0944
  189POPC   H6X21818   0.133   4.682   9.349 -0.3694 -1.6942 -0.2356
  189POPC   H6Y21819   0.262   4.549   9.325  1.0292  0.7302 -3.5575
  189POPC   C3721820   0.306   4.737   9.228  0.0013 -0.0688 -0.0768
  189POPC   H7X21821   0.414   4.712   9.238  0.1881  0.2829 -1.0261
  189POPC   H7Y21822   0.289   4.846   9.243 -1.2626 -0.4032  1.1090
  189POPC   C3821823   0.251   4.705   9.091 -0.3638 -0.0547  0.1770
  189POPC   H8X21824   0.147   4.741   9.076 -0.2697 -0.2452 -1.0839
  189POPC   H8Y21825   0.241   4.597   9.067 -1.2440  0.6892 -3.5017
  189POPC   C3921826   0.332   4.779   8.986  0.1762 -0.3953  0.5837
  189POPC   H9X21827   0.441   4.755   8.986 -0.3089 -2.9388  0.0867
  189POPC   H9Y21828   0.330   4.888   9.006  0.1075 -0.3408  0.2748
  189POPC  C31021829   0.268   4.751   8.849  0.2076  0.0202  0.9352
  189POPC  H10X21830   0.157   4.761   8.848  0.3276  2.0596 -1.2661
  189POPC  H10Y21831   0.300   4.657   8.800 -0.8830 -1.7861  3.4227
  189POPC  C31121832   0.310   4.853   8.738 -0.3974  0.8899  0.2553
  189POPC  H11X21833   0.419   4.848   8.713 -0.6695  1.6355 -1.2049
  189POPC  H11Y21834   0.292   4.959   8.768 -1.2218  0.8417 -0.0692
  189POPC  C31221835   0.236   4.827   8.610 -0.2215 -0.4470 -0.6238
  189POPC  H12X21836   0.134   4.870   8.621 -1.5441 -3.6710  1.0732
  189POPC  H12Y21837   0.221   4.718   8.601  0.8379 -0.5768 -0.8865
  189POPC  C31321838   0.304   4.898   8.492  0.4016 -0.1930  0.3324
  189POPC  H13X21839   0.409   4.863   8.499  0.1155 -1.0729  0.3451
  189POPC  H13Y21840   0.298   5.008   8.495  0.1208 -0.2091  0.3824
  189POPC  C31421841   0.244   4.845   8.357  0.0599 -0.9751  0.6909
  189POPC  H14X21842   0.290   4.903   8.274  0.1640  0.8555  1.9650
  189POPC  H14Y21843   0.136   4.872   8.358 -0.3075 -2.3613  0.7495
  189POPC  C31521844   0.244   4.698   8.327 -0.0190  0.4129 -0.1807
  189POPC  H15X21845   0.187   4.683   8.232 -0.6542 -1.8320  0.4786
  189POPC  H15Y21846   0.193   4.641   8.408 -2.9815 -0.0480 -2.1942
  189POPC  C31621847   0.382   4.626   8.307 -0.6337 -0.3765  0.1141
  189POPC  H16X21848   0.451   4.631   8.394  0.3406 -1.0816 -0.5880
  189POPC  H16Y21849   0.434   4.670   8.219 -2.1911  0.4292 -0.4469
  189POPC  H16Z21850   0.366   4.518   8.292 -1.3211  0.0438 -2.7378
  190POPC     N21851   1.094   0.668  10.640 -0.5311 -0.1701 -0.3207
  190POPC   C1221852   1.181   0.557  10.693  0.0050  1.1166 -0.3550
  190POPC  H12A21853   1.162   0.541  10.798 -1.9839  1.8881 -0.5522
  190POPC  H12B21854   1.285   0.587  10.687  0.0862  1.1227  0.9196
  190POPC   C1321855   1.114   0.673  10.493  0.7617 -0.2986  0.0304
  190POPC  H13A21856   1.088   0.769  10.450  0.5695  0.7177  2.2660
  190POPC  H13B21857   1.218   0.652  10.472  0.3575 -1.6732 -0.7281
  190POPC  H13C21858   1.053   0.597  10.445  0.8293 -1.1661  1.2901
  190POPC   C1421859   0.955   0.623  10.673 -0.1632  0.2104 -0.3346
  190POPC  H14A21860   0.882   0.684  10.622 -1.7473 -1.8528 -0.6954
  190POPC  H14B21861   0.946   0.523  10.634 -0.8840 -1.0492  2.7505
  190POPC  H14C21862   0.935   0.612  10.779 -0.8760 -0.8855 -0.5594
  190POPC   C1521863   1.131   0.793  10.710  0.2469 -0.8479  0.3198
  190POPC  H15A21864   1.229   0.828  10.680 -0.1333 -1.1951 -1.4282
  190POPC  H15B21865   1.133   0.772  10.816 -1.4020  0.8896  0.7491
  190POPC  H15C21866   1.059   0.873  10.703  1.2315 -0.0351 -0.8164
  190POPC   C1121867   1.169   0.416  10.620  0.7568 -0.1845  0.3572
  190POPC  H11A21868   1.249   0.347  10.655  0.6535 -1.0997 -1.1190
  190POPC  H11B21869   1.178   0.423  10.509 -0.3896 -1.6218  0.1423
  190POPC     P21870   0.994   0.214  10.608 -0.0222  0.0966 -0.0031
  190POPC   O1321871   0.923   0.158  10.721  0.1487  0.6484 -0.0692
  190POPC   O1421872   1.108   0.138  10.553  0.2797 -0.5966 -1.1653
  190POPC   O1221873   1.043   0.362  10.653  0.1339  0.2491  0.3474
  190POPC   O1121874   0.887   0.251  10.498  0.3601  0.1660 -0.4152
  190POPC    C121875   0.921   0.342  10.391 -0.0019 -0.4726  0.4408
  190POPC    HA21876   0.997   0.303  10.321  0.3488  1.5618 -0.3769
  190POPC    HB21877   0.959   0.436  10.436 -0.1751  0.3422 -1.0400
  190POPC    C221878   0.795   0.378  10.317 -0.1695 -0.3009 -0.5274
  190POPC    HS21879   0.722   0.414  10.393  1.1520  2.4305 -0.4000
  190POPC   O2121880   0.747   0.263  10.243  0.0079  0.3081  0.0373
  190POPC   C2121881   0.616   0.264  10.228 -0.0635  0.5323 -0.1219
  190POPC   O2221882   0.533   0.344  10.259 -0.4644 -0.8927  0.1118
  190POPC   C2221883   0.587   0.143  10.134  0.1954 -0.3205 -0.1976
  190POPC   H2R21884   0.518   0.066  10.175  1.2823 -1.6345 -0.7454
  190POPC   H2S21885   0.687   0.095  10.130  1.0271  1.3682 -0.4594
  190POPC    C321886   0.810   0.493  10.214  0.2300  1.4058 -0.2625
  190POPC    HX21887   0.841   0.581  10.275  0.2535  1.6252 -0.5859
  190POPC    HY21888   0.708   0.512  10.174  1.1819  0.5797 -3.3768
  190POPC   O3121889   0.898   0.463  10.101  0.4730 -0.4107 -0.0803
  190POPC   C3121890   1.021   0.508  10.112  0.4246  0.6542  0.0513
  190POPC   O3221891   1.073   0.558  10.207  0.6510 -0.0167  0.2686
  190POPC   C3221892   1.086   0.487   9.972 -0.0203  0.5880 -0.2305
  190POPC   H2X21893   1.178   0.425   9.984 -1.0534 -0.7026  1.5210
  190POPC   H2Y21894   1.112   0.587   9.932 -0.6045  1.4541  1.4824
  190POPC   C2321895   0.546   0.189   9.993  0.4169 -0.1038 -0.0533
  190POPC   H3R21896   0.468   0.268   9.992 -0.3688 -0.8747 -0.3873
  190POPC   H3S21897   0.515   0.098   9.938  5.7346 -1.9223 -0.6026
  190POPC   C2421898   0.666   0.243   9.910  0.2937  0.6348  0.3564
  190POPC   H4R21899   0.734   0.162   9.878 -0.9674  0.1598 -1.2598
  190POPC   H4S21900   0.713   0.329   9.963 -0.3509  1.7414 -0.8116
  190POPC   C2521901   0.609   0.316   9.782 -0.1739 -1.2338 -0.4271
  190POPC   H5R21902   0.694   0.368   9.733 -0.7941 -0.3099 -0.5384
  190POPC   H5S21903   0.554   0.398   9.832 -0.4940 -0.9483 -1.2190
  190POPC   C2621904   0.514   0.245   9.692 -0.2465 -0.2033  0.3667
  190POPC   H6R21905   0.431   0.199   9.750 -2.4475 -0.2956 -2.6042
  190POPC   H6S21906   0.562   0.152   9.655  1.2081 -0.5846  2.9584
  190POPC   C2721907   0.447   0.341   9.589 -1.1143  0.7806 -0.2506
  190POPC   H7R21908   0.533   0.395   9.544 -0.8105 -0.7466 -1.5962
  190POPC   H7S21909   0.402   0.426   9.643  1.5025  1.5492  0.8960
  190POPC   C2821910   0.376   0.267   9.474  0.4719 -0.3656 -0.4855
  190POPC   H8R21911   0.304   0.321   9.410  0.3665  0.7884  0.5608
  190POPC   H8S21912   0.302   0.196   9.516 -1.0288  0.4369 -1.6991
  190POPC   C2921913   0.458   0.189   9.381 -0.0066  0.6517 -0.2445
  190POPC   H9121914   0.533   0.120   9.423 -0.1269 -0.5709 -1.9362
  190POPC  C21021915   0.476   0.203   9.248  0.1716  0.2443  0.3218
  190POPC  H10121916   0.544   0.136   9.193  1.0933  0.8518  0.6970
  190POPC  C21121917   0.417   0.309   9.161 -0.7350 -0.0045 -0.5533
  190POPC  H11R21918   0.491   0.393   9.163  0.1340 -0.7261 -1.6402
  190POPC  H11S21919   0.331   0.359   9.210 -0.8091  0.4464 -1.1309
  190POPC  C21221920   0.390   0.266   9.015  0.5211  0.5268 -0.1114
  190POPC  H12R21921   0.343   0.358   8.974 -0.3422  0.1340 -0.0220
  190POPC  H12S21922   0.316   0.184   9.018  0.0773  0.9467  0.7146
  190POPC  C21321923   0.512   0.234   8.932 -0.6724  0.4592 -0.2180
  190POPC  H13R21924   0.578   0.159   8.980  0.5456  2.0540  0.7348
  190POPC  H13S21925   0.569   0.327   8.953 -0.8184 -0.0551  2.8388
  190POPC  C21421926   0.480   0.214   8.785 -0.0816 -0.2393 -0.5891
  190POPC  H14R21927   0.576   0.188   8.735  0.2649 -1.7279  0.7441
  190POPC  H14S21928   0.436   0.306   8.742 -0.6235 -0.7278 -1.0889
  190POPC  C21521929   0.392   0.096   8.740 -0.2288  0.8381  0.4499
  190POPC  H15R21930   0.293   0.107   8.790  1.4779 -0.1128  4.3431
  190POPC  H15S21931   0.431   0.003   8.787 -2.2578  0.0151  0.6116
  190POPC  C21621932   0.377   0.072   8.588 -0.3009  0.3040  0.0350
  190POPC  H16R21933   0.483   0.051   8.562  0.2847  1.4913  1.3074
  190POPC  H16S21934   0.351   0.165   8.534 -0.6363 -0.0144 -0.3639
  190POPC  C21721935   0.281  -0.037   8.540 -0.6861  0.3799 -0.5321
  190POPC  H17R21936   0.302  -0.054   8.432 -0.8298  0.2536 -0.5420
  190POPC  H17S21937   0.175  -0.001   8.533 -1.4988 -2.1921 -3.2456
  190POPC  C21821938   0.285  -0.176   8.611 -1.0307  0.7549 -0.4898
  190POPC  H18R21939   0.380  -0.233   8.597  0.2437  2.0046  2.3308
  190POPC  H18S21940   0.202  -0.244   8.586 -0.8930  0.7437 -0.9457
  190POPC  H18T21941   0.274  -0.170   8.721  0.6085  0.9818 -0.3099
  190POPC   C3321942   0.994   0.422   9.861  0.1222 -0.3960  0.4083
  190POPC   H3X21943   0.901   0.481   9.850 -0.1980 -1.1445 -1.1334
  190POPC   H3Y21944   0.979   0.314   9.881  1.2118 -0.8169 -0.8631
  190POPC   C3421945   1.052   0.427   9.716 -0.0273 -0.1729 -0.2501
  190POPC   H4X21946   1.138   0.359   9.700  0.0852  0.0087 -0.4270
  190POPC   H4Y21947   1.099   0.526   9.700  0.1966  0.1521  2.1145
  190POPC   C3521948   0.950   0.381   9.617  0.0258  0.0143  0.0464
  190POPC   H5X21949   0.863   0.450   9.612  0.0337  0.0832  0.7846
  190POPC   H5Y21950   0.919   0.277   9.639 -0.7422 -0.0053 -1.0250
  190POPC   C3621951   0.999   0.369   9.472  0.7819  0.5390  0.8784
  190POPC   H6X21952   1.075   0.289   9.462 -0.7075 -0.6831 -2.7490
  190POPC   H6Y21953   1.040   0.470   9.452  0.0198  0.2746 -2.8039
  190POPC   C3721954   0.885   0.335   9.371  0.2654 -0.3009  0.0316
  190POPC   H7X21955   0.806   0.413   9.369 -0.9871 -1.5270 -0.6951
  190POPC   H7Y21956   0.829   0.245   9.405  0.5700 -0.2859  0.5713
  190POPC   C3821957   0.938   0.306   9.225  0.1254  0.3578 -0.1786
  190POPC   H8X21958   1.014   0.226   9.236  1.6016  1.7443  0.1228
  190POPC   H8Y21959   1.004   0.394   9.208 -0.0226  0.7662  1.2095
  190POPC   C3921960   0.827   0.282   9.121  0.1310  0.9242 -0.2142
  190POPC   H9X21961   0.750   0.361   9.132 -0.5348  0.4948 -1.5644
  190POPC   H9Y21962   0.778   0.190   9.160  1.3709  0.6440  0.7372
  190POPC  C31021963   0.875   0.259   8.976 -0.0729 -0.4178  0.0374
  190POPC  H10X21964   0.805   0.183   8.938 -1.7145  0.9653  0.1852
  190POPC  H10Y21965   0.981   0.228   8.994  0.6901  1.6902 -0.4521
  190POPC  C31121966   0.867   0.381   8.888  0.0126 -0.3049  0.4554
  190POPC  H11X21967   0.889   0.466   8.956  2.2952  0.1731 -0.7785
  190POPC  H11Y21968   0.771   0.406   8.836 -0.8031 -0.7179  1.7332
  190POPC  C31221969   0.973   0.388   8.778 -0.1868  0.2716 -1.2349
  190POPC  H12X21970   0.970   0.292   8.722 -1.0072 -0.8334  0.6096
  190POPC  H12Y21971   1.076   0.380   8.819 -0.8128 -1.6127  0.0918
  190POPC  C31321972   0.976   0.510   8.684 -0.1542 -0.0074  0.1208
  190POPC  H13X21973   1.082   0.532   8.657  0.0792  2.1664  2.4110
  190POPC  H13Y21974   0.948   0.601   8.742 -5.4103 -1.4307  0.3005
  190POPC  C31421975   0.870   0.506   8.573  0.7315 -0.2975 -0.1889
  190POPC  H14X21976   0.767   0.496   8.614  1.4026 -0.7175  1.4859
  190POPC  H14Y21977   0.893   0.415   8.513 -2.6507 -2.1111  0.9650
  190POPC  C31521978   0.876   0.647   8.506 -0.0605 -0.2500 -0.0769
  190POPC  H15X21979   0.980   0.677   8.480  0.0113  0.5134  1.0476
  190POPC  H15Y21980   0.825   0.723   8.569 -0.3608  1.5483 -2.3527
  190POPC  C31621981   0.810   0.642   8.371  0.4567 -0.6071  0.0241
  190POPC  H16X21982   0.700   0.659   8.378  0.2046 -1.6339 -1.0161
  190POPC  H16Y21983   0.833   0.549   8.315  1.5336 -0.4770  0.2286
  190POPC  H16Z21984   0.848   0.725   8.308  0.1856 -2.4565 -2.7565
  191POPC     N21985   1.707   0.388   5.606 -0.0369 -0.3548  1.3100
  191POPC   C1221986   1.777   0.313   5.714  0.6231  0.7016 -0.0003
  191POPC  H12A21987   1.719   0.242   5.771  1.7754 -1.0433 -0.8741
  191POPC  H12B21988   1.819   0.392   5.774  2.3489 -0.1660  0.0049
  191POPC   C1321989   1.801   0.488   5.544  0.0080  0.3386  0.3145
  191POPC  H13A21990   1.828   0.556   5.623  0.5592 -0.2468  0.6360
  191POPC  H13B21991   1.892   0.434   5.525 -0.2613 -1.0766  2.6590
  191POPC  H13C21992   1.754   0.555   5.474 -1.8752  0.2419  1.4029
  191POPC   C1421993   1.670   0.289   5.494  0.0863 -0.4010 -0.7427
  191POPC  H14A21994   1.736   0.204   5.506  1.3982  0.8844  1.9413
  191POPC  H14B21995   1.573   0.242   5.507  0.6704 -1.4287  0.1120
  191POPC  H14C21996   1.673   0.333   5.396 -1.0216 -0.1273 -0.6706
  191POPC   C1521997   1.588   0.460   5.654  0.3530 -0.5181 -0.5329
  191POPC  H15A21998   1.611   0.534   5.728  2.1936 -1.2384 -0.3499
  191POPC  H15B21999   1.523   0.389   5.703  0.3176  0.2580  0.5786
  191POPC  H15C22000   1.536   0.511   5.574  0.0456  1.0918  0.6520
  191POPC   C1122001   1.899   0.222   5.675 -0.7998  0.1258  0.6494
  191POPC  H11A22002   1.974   0.229   5.757 -0.8085  2.2710  0.5298
  191POPC  H11B22003   1.940   0.274   5.586 -0.9161 -0.1242  0.4488
  191POPC     P22004   1.791   0.003   5.753  0.3749 -0.0449 -0.4155
  191POPC   O1322005   1.731  -0.108   5.674 -0.2540 -0.4077  0.4812
  191POPC   O1422006   1.701   0.081   5.841  0.5668 -0.2756 -0.0787
  191POPC   O1222007   1.855   0.096   5.645 -0.5885  0.4980 -0.0375
  191POPC   O1122008   1.909  -0.064   5.838  0.2408 -0.1607  0.3745
  191POPC    C122009   1.884  -0.193   5.893  0.9235 -0.6238  0.2149
  191POPC    HA22010   1.984  -0.219   5.934  0.9982 -0.5851  0.0602
  191POPC    HB22011   1.861  -0.275   5.822 -2.6962  0.0969  0.3552
  191POPC    C222012   1.785  -0.194   6.008  0.6932 -0.9934 -0.3380
  191POPC    HS22013   1.685  -0.203   5.961  0.9894 -0.0551 -1.1903
  191POPC   O2122014   1.805  -0.077   6.082  0.0963 -0.8032 -0.8663
  191POPC   C2122015   1.705  -0.039   6.163 -0.0042 -0.4899 -0.0179
  191POPC   O2222016   1.599  -0.099   6.177  0.1034  0.6238 -0.7503
  191POPC   C2222017   1.739   0.092   6.236  0.2378  0.3490 -0.5864
  191POPC   H2R22018   1.738   0.163   6.150 -1.8851  2.1389  0.8134
  191POPC   H2S22019   1.847   0.083   6.260  0.3236 -1.6339 -1.4855
  191POPC    C322020   1.811  -0.317   6.102 -0.4154  0.3043  0.2937
  191POPC    HX22021   1.813  -0.405   6.035  0.6005 -0.6995  1.5829
  191POPC    HY22022   1.730  -0.335   6.175 -0.2860  0.9899  0.6176
  191POPC   O3122023   1.935  -0.315   6.173  0.0495 -0.5962  0.0777
  191POPC   C3122024   1.939  -0.280   6.300 -0.4444  1.1160  0.0352
  191POPC   O3222025   1.848  -0.226   6.361  0.5602  0.3786 -0.4325
  191POPC   C3222026   2.078  -0.317   6.353  0.2397  0.3514 -0.9719
  191POPC   H2X22027   2.152  -0.258   6.294  1.2317 -1.6610 -1.8275
  191POPC   H2Y22028   2.095  -0.424   6.332  0.7527 -0.0865  1.3900
  191POPC   C2322029   1.653   0.124   6.356 -0.4918 -0.2794  0.0921
  191POPC   H3R22030   1.543   0.111   6.352 -0.4859 -1.0037  1.6091
  191POPC   H3S22031   1.672   0.231   6.378 -0.7641 -0.0535 -0.7619
  191POPC   C2422032   1.690   0.038   6.486 -0.3805 -1.0146 -0.5235
  191POPC   H4R22033   1.796   0.005   6.485 -0.1674 -0.8477  2.9931
  191POPC   H4S22034   1.626  -0.053   6.487 -3.1282  0.8025 -0.8791
  191POPC   C2522035   1.664   0.115   6.614  0.5599 -0.3874 -0.6916
  191POPC   H5R22036   1.553   0.116   6.622  0.5753 -0.9572 -0.3447
  191POPC   H5S22037   1.691   0.223   6.604 -2.8920  0.7615  0.7272
  191POPC   C2622038   1.725   0.044   6.732  0.6546  0.0585 -0.3177
  191POPC   H6R22039   1.694   0.093   6.826  1.1349 -1.6085  0.7636
  191POPC   H6S22040   1.835   0.060   6.737  0.5998  0.5584 -0.6129
  191POPC   C2722041   1.701  -0.108   6.733 -0.4025 -0.5713 -0.1253
  191POPC   H7R22042   1.746  -0.150   6.640  1.5827  0.0481  0.5105
  191POPC   H7S22043   1.592  -0.128   6.724 -0.9128  2.5082 -2.9404
  191POPC   C2822044   1.761  -0.171   6.860  0.8321 -0.3212 -0.1867
  191POPC   H8R22045   1.698  -0.135   6.945 -0.6206 -2.2157 -0.4014
  191POPC   H8S22046   1.864  -0.132   6.874  1.9102 -3.2215  0.7299
  191POPC   C2922047   1.767  -0.320   6.846 -0.2927 -0.3504  0.7305
  191POPC   H9122048   1.820  -0.351   6.755 -1.5110 -2.0878  0.5785
  191POPC  C21022049   1.734  -0.415   6.929 -0.1992 -0.5819  0.5855
  191POPC  H10122050   1.765  -0.511   6.886 -0.8647 -0.9731  0.9694
  191POPC  C21122051   1.684  -0.400   7.067  0.1928  0.6808 -0.3638
  191POPC  H11R22052   1.573  -0.398   7.076  0.0567 -0.3368 -1.6438
  191POPC  H11S22053   1.712  -0.301   7.110 -1.9998  1.4948 -0.6550
  191POPC  C21222054   1.740  -0.518   7.147 -0.0217 -0.4749  0.0447
  191POPC  H12R22055   1.846  -0.513   7.113 -0.2874  0.1673 -0.7218
  191POPC  H12S22056   1.688  -0.614   7.126  0.1154 -0.9034  1.5718
  191POPC  C21322057   1.739  -0.496   7.297 -1.0508  0.1657 -0.3821
  191POPC  H13R22058   1.774  -0.392   7.317  2.8975 -1.0838 -0.0911
  191POPC  H13S22059   1.817  -0.560   7.342 -0.1505  0.6858 -1.1831
  191POPC  C21422060   1.603  -0.513   7.360  0.0603 -0.0077 -0.0460
  191POPC  H14R22061   1.547  -0.592   7.305  0.5399 -0.3841  0.0052
  191POPC  H14S22062   1.538  -0.424   7.342 -2.3887 -1.5750  0.5246
  191POPC  C21522063   1.606  -0.538   7.515  0.0484  0.1230 -1.1059
  191POPC  H15R22064   1.655  -0.638   7.519  1.2291  0.7203  0.0291
  191POPC  H15S22065   1.506  -0.552   7.560  0.2322 -1.5084 -1.1455
  191POPC  C21622066   1.676  -0.431   7.608 -0.3576  0.4503 -0.0676
  191POPC  H16R22067   1.612  -0.339   7.608  1.4400  1.8131 -2.3460
  191POPC  H16S22068   1.771  -0.399   7.561 -2.1587  4.6330 -1.3610
  191POPC  C21722069   1.693  -0.470   7.755 -0.0994  0.1888  0.1004
  191POPC  H17R22070   1.764  -0.396   7.798  0.4513  0.8134 -1.7763
  191POPC  H17S22071   1.742  -0.570   7.750 -2.2492 -1.1523  3.2280
  191POPC  C21822072   1.566  -0.474   7.834  0.7602  0.0675  0.9481
  191POPC  H18R22073   1.566  -0.505   7.941 -2.9345 -1.5378  0.6391
  191POPC  H18S22074   1.494  -0.541   7.782  1.5737  0.4489 -0.7575
  191POPC  H18T22075   1.534  -0.368   7.829  0.0583 -0.1977 -0.7401
  191POPC   C3322076   2.090  -0.295   6.511 -0.8516 -0.0200 -0.0210
  191POPC   H3X22077   2.042  -0.380   6.564 -1.2464  0.8223  1.0362
  191POPC   H3Y22078   2.035  -0.201   6.536 -1.2815  0.1435 -1.5051
  191POPC   C3422079   2.233  -0.271   6.556 -0.6647 -0.2508  0.3615
  191POPC   H4X22080   2.263  -0.165   6.536 -0.2056 -0.1746  1.4221
  191POPC   H4Y22081   2.305  -0.340   6.508 -0.2964 -0.6468  1.4731
  191POPC   C3522082   2.269  -0.275   6.701 -0.5838 -0.0759  0.0764
  191POPC   H5X22083   2.380  -0.273   6.706 -0.5532 -0.9220 -0.0700
  191POPC   H5Y22084   2.236  -0.372   6.746  0.0765 -1.2542 -1.8455
  191POPC   C3622085   2.213  -0.159   6.780 -0.5046 -0.5019  0.5330
  191POPC   H6X22086   2.102  -0.159   6.780 -0.5120  0.0664 -0.2713
  191POPC   H6Y22087   2.232  -0.056   6.743 -1.1328  0.6324  3.1475
  191POPC   C3722088   2.243  -0.148   6.932  0.2800 -0.4473 -0.4464
  191POPC   H7X22089   2.173  -0.080   6.984 -0.3984 -1.2573 -0.2766
  191POPC   H7Y22090   2.343  -0.101   6.942  0.2005 -0.6351  1.4595
  191POPC   C3822091   2.253  -0.286   6.999 -0.0477 -0.1505 -0.3503
  191POPC   H8X22092   2.347  -0.337   6.966  1.2619  1.2187  1.1266
  191POPC   H8Y22093   2.167  -0.351   6.973  0.1919 -0.0939 -1.3195
  191POPC   C3922094   2.281  -0.251   7.146  0.1815 -0.0942  0.0164
  191POPC   H9X22095   2.203  -0.181   7.183  0.1689  0.2952 -0.7217
  191POPC   H9Y22096   2.376  -0.195   7.157  1.0689 -1.3576 -0.9119
  191POPC  C31022097   2.280  -0.376   7.234 -0.3034 -0.2901 -0.0197
  191POPC  H10X22098   2.364  -0.440   7.199  0.4822  0.1387  1.0325
  191POPC  H10Y22099   2.184  -0.429   7.215 -0.5646 -0.2201  1.0242
  191POPC  C31122100   2.315  -0.346   7.380 -0.0049 -0.4270  0.4329
  191POPC  H11X22101   2.390  -0.264   7.387 -1.0873  0.5553  0.9036
  191POPC  H11Y22102   2.338  -0.439   7.435 -1.2942 -1.0068  0.0361
  191POPC  C31222103   2.193  -0.297   7.460  0.0798 -0.4157  0.4228
  191POPC  H12X22104   2.121  -0.382   7.468  0.3914 -0.6276  1.0456
  191POPC  H12Y22105   2.142  -0.215   7.406  0.5304 -1.2355 -1.3241
  191POPC  C31322106   2.223  -0.249   7.600 -0.0332 -0.5211  1.1548
  191POPC  H13X22107   2.310  -0.181   7.589 -0.4783 -0.2384 -1.2062
  191POPC  H13Y22108   2.269  -0.335   7.652  1.9367 -0.9692 -1.1650
  191POPC  C31422109   2.107  -0.190   7.677  0.0378 -0.2790  0.0485
  191POPC  H14X22110   2.062  -0.101   7.628  0.4139  0.3643  0.8472
  191POPC  H14Y22111   2.164  -0.147   7.762  2.2717 -0.6329 -1.1923
  191POPC  C31522112   2.004  -0.288   7.736 -0.0004 -0.5891 -0.0902
  191POPC  H15X22113   1.970  -0.329   7.639 -0.4761 -0.6111  0.0852
  191POPC  H15Y22114   1.925  -0.233   7.792 -1.0360 -2.0460 -0.0854
  191POPC  C31622115   2.060  -0.399   7.830  0.2529  0.0504  0.5290
  191POPC  H16X22116   2.140  -0.455   7.777  0.0178  1.9909 -2.0441
  191POPC  H16Y22117   1.969  -0.459   7.850 -0.1472 -0.4859 -2.4301
  191POPC  H16Z22118   2.098  -0.353   7.924  1.5778 -0.9303  0.5047
  192POPC     N22119   2.474   2.124   5.969  0.0329 -0.2603 -0.2871
  192POPC   C1222120   2.555   2.052   5.864 -0.0730  0.2971  0.9535
  192POPC  H12A22121   2.519   2.081   5.767 -1.4852  0.1317  1.4144
  192POPC  H12B22122   2.541   1.945   5.866 -1.4767  0.3357 -1.6558
  192POPC   C1322123   2.331   2.093   5.955  0.6682 -0.1736  0.1351
  192POPC  H13A22124   2.268   2.129   6.035 -2.0246  1.1308 -2.3715
  192POPC  H13B22125   2.293   2.129   5.860  2.0153 -1.6806 -1.0278
  192POPC  H13C22126   2.309   1.988   5.969 -0.9772  0.1233  0.0113
  192POPC   C1422127   2.522   2.085   6.111 -0.5015 -0.5181  0.4782
  192POPC  H14A22128   2.627   2.111   6.113 -0.5906 -0.1881  1.7871
  192POPC  H14B22129   2.467   2.141   6.185  0.1195 -3.1536  3.1209
  192POPC  H14C22130   2.512   1.982   6.143 -1.0774  0.1731  2.7351
  192POPC   C1522131   2.495   2.272   5.952 -0.9671 -0.5396  0.4093
  192POPC  H15A22132   2.483   2.302   5.849  2.5502 -1.1575 -0.3145
  192POPC  H15B22133   2.601   2.293   5.949 -1.4586  2.3755 -2.7589
  192POPC  H15C22134   2.427   2.321   6.020 -0.3536  2.2565 -0.8372
  192POPC   C1122135   2.710   2.074   5.865 -0.5645 -0.0986 -0.4357
  192POPC  H11A22136   2.724   2.184   5.868 -2.2386  0.1331  0.1578
  192POPC  H11B22137   2.748   2.036   5.768 -2.0371  0.5461 -1.3023
  192POPC     P22138   2.916   1.982   5.994 -0.1096 -0.5944  0.2339
  192POPC   O1322139   2.988   1.991   5.863  0.5464 -0.3537 -0.5697
  192POPC   O1422140   2.927   1.851   6.064  0.6115 -0.1308  0.4313
  192POPC   O1222141   2.766   2.018   5.982 -0.4636 -0.2726 -0.0394
  192POPC   O1122142   2.967   2.103   6.089  0.2482 -0.4227 -0.6975
  192POPC    C122143   2.884   2.164   6.184 -0.4893 -0.5036 -0.2597
  192POPC    HA22144   2.831   2.088   6.244  0.9899 -1.5699 -0.2612
  192POPC    HB22145   2.811   2.233   6.135  0.4680  1.9656  1.5957
  192POPC    C222146   2.963   2.234   6.297  0.7610  0.1862  0.2566
  192POPC    HS22147   3.023   2.313   6.247  1.5913 -1.0301 -0.6975
  192POPC   O2122148   3.044   2.140   6.364  0.0104  0.1005 -0.0433
  192POPC   C2122149   3.178   2.146   6.343 -0.3680 -0.1837  0.5877
  192POPC   O2222150   3.223   2.206   6.245  0.4946  0.1027 -0.1117
  192POPC   C2222151   3.246   2.058   6.443 -0.1674  0.5321 -0.0053
  192POPC   H2R22152   3.355   2.051   6.423  0.1059 -0.2488  1.6470
  192POPC   H2S22153   3.205   1.956   6.429 -0.9189  1.0627 -2.0977
  192POPC    C322154   2.864   2.305   6.390 -0.2621 -0.2359  0.3942
  192POPC    HX22155   2.789   2.226   6.412  1.1009 -1.1294  2.0126
  192POPC    HY22156   2.812   2.391   6.342  2.3222  1.6776  0.8349
  192POPC   O3122157   2.921   2.348   6.518  0.5408 -0.1420 -0.2147
  192POPC   C3122158   3.003   2.454   6.507 -0.6527  0.0027  0.4674
  192POPC   O3222159   3.023   2.522   6.408 -0.2322 -0.0119 -0.3875
  192POPC   C3222160   3.068   2.469   6.644 -0.5542  0.1247 -0.7549
  192POPC   H2X22161   3.051   2.572   6.682 -1.9967 -0.8090  1.3853
  192POPC   H2Y22162   3.178   2.452   6.642 -0.1549  2.2663 -0.0200
  192POPC   C2322163   3.228   2.106   6.584  0.0216  0.2726 -0.8684
  192POPC   H3R22164   3.121   2.126   6.608  0.4128  0.3914  0.8704
  192POPC   H3S22165   3.286   2.198   6.605 -0.9174  0.5613  0.6040
  192POPC   C2422166   3.277   1.998   6.683 -0.0687 -0.4050 -0.3006
  192POPC   H4R22167   3.371   1.949   6.652 -0.3899  0.2631 -2.4725
  192POPC   H4S22168   3.200   1.919   6.700  0.6559 -0.7100  1.9089
  192POPC   C2522169   3.303   2.057   6.822  0.5215 -0.1534  0.0331
  192POPC   H5R22170   3.220   2.126   6.848  0.1691 -0.7148  0.4237
  192POPC   H5S22171   3.395   2.119   6.820  0.4400  0.0149  1.0580
  192POPC   C2622172   3.335   1.965   6.945 -0.1978 -0.1966  0.0841
  192POPC   H6R22173   3.370   2.043   7.016 -0.5448  0.2848 -0.2694
  192POPC   H6S22174   3.413   1.886   6.936  1.0033  0.8528  0.9422
  192POPC   C2722175   3.208   1.901   7.014  0.0322 -0.2147  0.5288
  192POPC   H7R22176   3.209   1.793   6.990 -0.1881  0.0308 -0.6441
  192POPC   H7S22177   3.121   1.958   6.974  0.8521  0.0021 -1.0453
  192POPC   C2822178   3.219   1.918   7.172 -0.0361 -0.5625  0.4379
  192POPC   H8R22179   3.249   2.023   7.190 -0.7119 -0.5615  1.5891
  192POPC   H8S22180   3.301   1.850   7.204  1.1600 -0.9882 -3.0041
  192POPC   C2922181   3.081   1.882   7.228  0.4868 -0.1886 -0.0449
  192POPC   H9122182   3.006   1.936   7.169 -1.3173  0.3763  2.6014
  192POPC  C21022183   3.045   1.818   7.339 -0.2113  0.2712  0.5503
  192POPC  H10122184   2.937   1.801   7.352 -0.3287  0.6421  0.0699
  192POPC  C21122185   3.140   1.747   7.433  0.7776  0.0199 -0.1893
  192POPC  H11R22186   3.242   1.742   7.388  2.1235  2.6929  2.2754
  192POPC  H11S22187   3.122   1.639   7.455  2.2685  0.1660  2.0461
  192POPC  C21222188   3.143   1.814   7.567  0.2273 -0.0769  0.1592
  192POPC  H12R22189   3.164   1.921   7.546 -1.1695 -0.0541 -1.2201
  192POPC  H12S22190   3.227   1.761   7.617  2.9902  0.1655 -3.7430
  192POPC  C21322191   3.008   1.793   7.639 -0.3925  0.0262 -0.4885
  192POPC  H13R22192   2.999   1.682   7.647  1.4896 -0.2141 -1.0901
  192POPC  H13S22193   2.921   1.816   7.575 -1.4060 -1.2327  0.3812
  192POPC  C21422194   2.996   1.860   7.780 -0.2215 -0.3379 -0.1328
  192POPC  H14R22195   2.995   1.969   7.760  0.1462  0.0294  1.6355
  192POPC  H14S22196   3.077   1.832   7.850 -1.1736 -0.1142  1.0937
  192POPC  C21522197   2.854   1.834   7.844 -0.1794 -0.3165 -0.9212
  192POPC  H15R22198   2.836   1.725   7.845 -1.8445 -0.0867  0.7878
  192POPC  H15S22199   2.768   1.873   7.787 -0.5167 -0.0219 -0.2276
  192POPC  C21622200   2.846   1.895   7.988  0.7998 -0.7456  0.3688
  192POPC  H16R22201   2.740   1.906   8.019  1.5197  1.2803  2.4128
  192POPC  H16S22202   2.890   1.997   7.991 -0.2252 -0.0619 -3.3205
  192POPC  C21722203   2.920   1.818   8.095  0.2073 -0.8610  0.1996
  192POPC  H17R22204   2.916   1.872   8.192  2.0301  1.3728 -0.8566
  192POPC  H17S22205   3.027   1.812   8.064 -0.4278 -0.1175 -2.2611
  192POPC  C21822206   2.880   1.673   8.116  0.2101  0.4630  0.3728
  192POPC  H18R22207   2.875   1.608   8.025 -0.2447  1.8462 -0.6311
  192POPC  H18S22208   2.782   1.678   8.168  0.7086 -0.5712  1.4670
  192POPC  H18T22209   2.949   1.622   8.186 -0.5090 -0.7676  0.2289
  192POPC   C3322210   2.994   2.394   6.758 -0.2957  1.1910  0.2750
  192POPC   H3X22211   3.006   2.285   6.745 -0.1583  1.5121 -3.0255
  192POPC   H3Y22212   2.888   2.428   6.762 -0.7859 -0.1506 -0.7799
  192POPC   C3422213   3.046   2.424   6.895 -0.1964  0.4689  1.0390
  192POPC   H4X22214   3.003   2.519   6.935 -1.9482 -0.1811  0.7966
  192POPC   H4Y22215   3.156   2.434   6.894 -0.0332 -1.1174  0.5098
  192POPC   C3522216   3.001   2.308   6.989  0.0457 -0.4274  0.6531
  192POPC   H5X22217   3.034   2.332   7.092 -1.2632 -0.6782  1.1507
  192POPC   H5Y22218   3.036   2.207   6.956 -0.0152  0.2566 -1.6681
  192POPC   C3622219   2.848   2.313   7.010 -0.0307 -0.4719  0.3774
  192POPC   H6X22220   2.805   2.283   6.912  0.6726 -0.6388  0.1104
  192POPC   H6Y22221   2.813   2.417   7.029  0.4969 -0.2901  0.3801
  192POPC   C3722222   2.811   2.214   7.120 -0.2801 -0.7150 -0.4252
  192POPC   H7X22223   2.880   2.127   7.118  1.1868  0.3738  0.8754
  192POPC   H7Y22224   2.711   2.171   7.096 -0.3769  0.4881 -2.3993
  192POPC   C3822225   2.809   2.281   7.255  0.1156 -0.4440 -0.5915
  192POPC   H8X22226   2.739   2.366   7.265  1.6355  0.6275  2.0686
  192POPC   H8Y22227   2.910   2.319   7.281 -0.5292 -0.4237  2.2118
  192POPC   C3922228   2.794   2.177   7.369 -0.4049  0.2395  0.0552
  192POPC   H9X22229   2.867   2.094   7.360 -0.7465 -0.0876  0.2941
  192POPC   H9Y22230   2.700   2.122   7.346  0.3509 -1.1498  0.1973
  192POPC  C31022231   2.787   2.230   7.509  0.1401 -0.4156 -0.5199
  192POPC  H10X22232   2.712   2.312   7.518  0.9070  0.2104  0.2520
  192POPC  H10Y22233   2.885   2.280   7.524  1.4819 -3.3084  1.2533
  192POPC  C31122234   2.761   2.129   7.620  0.4023 -0.1963  0.6572
  192POPC  H11X22235   2.834   2.045   7.613 -2.3923 -2.8186  1.2170
  192POPC  H11Y22236   2.662   2.084   7.599  0.1279  0.2519  0.9747
  192POPC  C31222237   2.735   2.193   7.762 -1.1925 -0.7145 -0.2343
  192POPC  H12X22238   2.713   2.110   7.832  2.0670 -1.5481 -0.0874
  192POPC  H12Y22239   2.653   2.269   7.753  0.3462  1.0449  0.0071
  192POPC  C31322240   2.859   2.269   7.824  0.1570  0.0781  0.0012
  192POPC  H13X22241   2.877   2.353   7.754  2.8891 -0.0148  0.4773
  192POPC  H13Y22242   2.952   2.209   7.812  0.8033  0.6869  1.6091
  192POPC  C31422243   2.851   2.316   7.972 -0.3094  0.1929 -0.0689
  192POPC  H14X22244   2.834   2.229   8.039  0.7082 -2.0049 -2.4829
  192POPC  H14Y22245   2.763   2.382   7.985  0.7678  2.2280 -2.2658
  192POPC  C31522246   2.985   2.384   8.008  0.8333  0.1232 -1.0315
  192POPC  H15X22247   3.006   2.467   7.936 -0.3291 -0.4049 -2.0099
  192POPC  H15Y22248   3.057   2.299   8.003 -1.1490 -1.7455  0.6630
  192POPC  C31622249   2.998   2.428   8.155 -0.1597 -0.1890  0.5528
  192POPC  H16X22250   3.105   2.454   8.172  0.6802 -2.0238 -1.5264
  192POPC  H16Y22251   2.973   2.353   8.233 -2.3360 -1.2710 -1.0820
  192POPC  H16Z22252   2.929   2.515   8.163 -0.3715 -0.1942 -0.9738
  193SOD    SOD22253   4.683   0.087   3.738 -0.1433 -0.2380 -0.4204
  194SOD    SOD22254   2.903   4.031  12.399 -0.8129 -0.0854 -0.3115
  195SOD    SOD22255   1.760   1.946   5.204 -0.0181  0.0184 -0.1265
  196SOD    SOD22256   1.556   4.800  11.129 -0.5711  0.4109 -0.5390
  197SOD    SOD22257   3.473   1.791   4.833  0.1023  0.2853  0.5264
  198SOD    SOD22258   3.511   5.554  12.056 -0.4973  0.3944  0.1331
  199SOD    SOD22259   6.469   3.152  10.552  0.1562 -0.2634  0.0795
  200SOD    SOD22260   5.307   4.013  10.761 -0.1951 -0.2960 -0.3176
  201SOD    SOD22261   2.697   1.816  12.813  0.0438  0.0439  0.3897
  202SOD    SOD22262   5.941   4.508  14.265 -0.0340 -0.0694 -0.0837
  203SOD    SOD22263   4.815   4.529   3.672 -0.2545  0.6105 -0.0086
  204SOD    SOD22264   1.272   5.116  14.592  0.4436  0.1603 -0.1565
  205SOD    SOD22265   0.334   2.199  11.880  0.0829  0.3868  0.3810
  206SOD    SOD22266   4.202   3.829  13.975 -0.1965  0.0244 -0.1230
  207SOD    SOD22267   2.179   1.509   1.165  0.4308  0.1781 -0.0531
  208SOD    SOD22268   2.446   5.710  13.076  0.4974 -0.3806  0.2813
  209SOD    SOD22269   1.827   4.914   1.855  0.4227  0.1973 -0.7236
  210SOD    SOD22270   3.303   0.992  14.224  0.0465  0.3514  0.4585
  211SOD    SOD22271   4.652   6.585   4.627  0.2407 -0.3614  0.4925
  212SOD    SOD22272   6.683   0.242  13.891  0.8607  0.1940  0.1585
  213SOD    SOD22273   3.718   3.468   1.294  0.1594  0.5419 -0.5118
  214SOD    SOD22274   1.126   6.030  17.108  0.1081 -0.1358  0.1906
  215SOD    SOD22275   1.555   5.599   5.839  0.5214 -0.6857  0.0072
  216SOD    SOD22276   3.400   4.072   1.603 -0.1292 -0.4070  0.3895
  217SOD    SOD22277   5.766   0.704   6.029  0.8003  0.1826 -0.0481
  218SOD    SOD22278   0.555   2.752  10.619 -0.2259  0.2472  0.2393
  219SOD    SOD22279   4.813   1.343  17.139  0.0677  0.3851  0.5987
  220SOD    SOD22280   5.744   3.403  10.627  0.1419  0.0916  0.1470
  221SOD    SOD22281   5.540   5.706   4.385 -0.0212  0.8021 -0.3484
  222SOD    SOD22282   3.537   3.773  14.859  0.2281  0.4410 -0.3812
  223SOD    SOD22283   6.382   4.659   3.531  0.7107  0.2475  0.0833
  224SOD    SOD22284   4.878   3.900  14.423  0.3180  0.0517 -0.8502
  225SOD    SOD22285   2.337   1.845   3.568  0.2305 -0.2605  0.1075
  226SOD    SOD22286   0.107   1.729   4.218 -0.2917  0.3423 -0.2044
  227SOD    SOD22287   5.193   0.761   2.006  0.3973  0.2637 -0.5088
  228SOD    SOD22288   6.028   0.731  15.012  0.4876 -0.1790  0.1583
  229SOD    SOD22289   5.294   0.107   5.789  0.0269  0.3824  0.1043
  230SOD    SOD22290   1.594   3.918  11.475 -0.2391  0.2385  0.1071
  231SOD    SOD22291   4.327   4.320  11.615  0.1721  0.2269  0.0232
  232SOD    SOD22292   3.599   4.367  15.305  0.1527  0.0303  0.4716
  233SOD    SOD22293   1.995   2.578   3.409  0.2311  0.0480  0.2487
  234SOD    SOD22294   3.521   1.797  16.783  0.2457  0.3133 -0.2220
  235SOD    SOD22295   3.153   1.452  12.319  0.0626 -0.4867  0.1571
  236SOD    SOD22296   3.265   5.879   1.929 -0.3212  0.1407  0.6154
  237SOD    SOD22297   5.878   1.969   5.731 -0.0233 -0.4555 -0.4033
  238SOD    SOD22298   3.903   4.052   5.813  0.6731 -0.5457  0.1867
  239SOD    SOD22299   1.758   6.465  11.369 -0.2041 -0.2709  0.2727
  240SOD    SOD22300   4.647   1.627  13.010  0.0779  0.0509  0.1886
  241SOD    SOD22301   0.607   6.576   1.817 -0.0464  0.3226 -0.2236
  242SOD    SOD22302   4.287   3.678  15.860 -0.1379 -0.1039  0.3915
  243SOD    SOD22303   3.625   1.011   1.953 -0.0685 -0.3061 -0.1906
  244SOD    SOD22304   3.410   2.828  10.154  0.6180 -0.1465  0.1431
  245SOD    SOD22305   3.576   2.249  13.998  0.3027  0.3101  0.4403
  246SOD    SOD22306   4.785   5.073   2.316  0.0030 -0.0483 -0.0102
  247SOD    SOD22307   6.579   2.110  15.880 -0.0169  0.1109  0.2925
  248SOD    SOD22308   1.929   1.428  16.230  0.5703  0.1883 -0.4659
  249SOD    SOD22309   5.029   6.491   1.447  0.1461 -0.6588  0.3100
  250SOD    SOD22310   0.497   3.322   0.224  0.2995  0.0310  0.0696
  251SOD    SOD22311   0.628   3.666   1.261 -0.1615 -0.3012  0.1711
  252SOD    SOD22312   6.406   1.692   4.491  0.0958 -0.0138  0.6358
  253SOD    SOD22313   5.321   4.716   4.360 -0.5076 -0.2781  0.1568
  254SOD    SOD22314   5.625   5.652  14.032  0.0674  0.0295 -0.0852
  255SOD    SOD22315   0.891   0.189  15.645  0.2001  0.3964 -0.3028
  256SOD    SOD22316   1.012   3.114  12.522  0.4244  0.3147  0.1028
  257SOD    SOD22317   2.764   0.369  10.099 -0.1870 -0.3941  0.3020
  258SOD    SOD22318   6.506   0.061  12.177  0.0845  0.0129 -0.4113
  259SOD    SOD22319   0.039   3.042   0.914  0.5450  0.0121  0.0416
  260SOD    SOD22320   5.080   0.748   5.152  0.1648 -0.3404  0.3880
  261SOD    SOD22321   6.635   2.770   5.121 -0.4242  0.1252  0.0568
  262SOD    SOD22322   4.583   0.724   6.464  0.2200  0.4499 -0.3423
  263SOD    SOD22323   3.259   5.419   0.711 -0.3609 -0.1816  0.2123
  264SOD    SOD22324   1.542   4.856  16.297 -0.2481  0.0456 -0.4000
  265SOD    SOD22325   1.541   1.588   4.090  0.0899  0.0286  0.0661
  266SOD    SOD22326   6.518   0.935  14.239  0.2045  0.0148 -0.3211
  267SOD    SOD22327   0.955   0.165   5.897 -0.0274  0.0850 -0.2544
  268SOD    SOD22328   6.429   3.426   5.537 -0.1178  0.7287 -0.4977
  269SOD    SOD22329   4.267   4.183   6.362 -0.1126 -0.3076 -0.0809
  270CLA    CLA22330   4.791   2.421  15.312 -0.4053  0.1735 -0.0144
  271CLA    CLA22331   5.398   4.203   3.512 -0.4247  0.1534 -0.4827
  272CLA    CLA22332   4.660   6.325  13.745  0.1710  0.0950  0.1446
  273CLA    CLA22333   4.525   5.494   4.196 -0.2920  0.3060 -0.0326
  274CLA    CLA22334   6.260   1.326   4.029 -0.2758  0.2239 -0.3842
  275CLA    CLA22335   5.347   3.076  12.357  0.2042  0.0330 -0.2105
  276CLA    CLA22336   2.253   5.978   3.345 -0.3108 -0.3586  0.0140
  277CLA    CLA22337   4.022   1.475   3.852  0.2370  0.5193 -0.5050
  278CLA    CLA22338   3.444   0.134  14.733  0.6653  0.1051 -0.0707
  279CLA    CLA22339   3.192   1.376   4.807 -0.2142  0.3836  0.1276
  280CLA    CLA22340   1.779   1.374   0.580 -0.1215  0.2356 -0.1994
  281CLA    CLA22341   4.515   6.600  15.990  0.6301 -0.1756 -0.0148
  282CLA    CLA22342   0.542   1.237   4.543  0.0104  0.1215  0.2381
  283CLA    CLA22343   5.706   6.201  17.026 -0.5987 -0.2338  0.0319
  284CLA    CLA22344   6.282   3.385   0.305  0.1189  0.1637  0.4501
  285CLA    CLA22345   1.857   2.203   1.487  0.3676 -0.1801  0.3242
  286CLA    CLA22346   1.529   3.727   2.538 -0.0980  0.6202  0.1959
  287CLA    CLA22347   2.686   4.546  16.274  0.0554 -0.1941  0.2215
  288CLA    CLA22348   6.522   5.654  13.504  0.0105  0.1764  0.0907
  289CLA    CLA22349   2.100   2.573   2.240 -0.0983  0.3681  0.0923
  290CLA    CLA22350   0.982   3.589  12.191 -0.1627 -0.1137  0.0153
  291CLA    CLA22351   2.040   5.046  13.051  0.3199  0.3355  0.1866
  292CLA    CLA22352   5.049   3.535   0.405 -0.0707  0.2523 -0.0378
  293CLA    CLA22353   5.966   3.312  14.436 -0.3097 -0.4942  0.0531
  294CLA    CLA22354   3.246   2.560  12.678  0.0594 -0.1874  0.1832
  295CLA    CLA22355   3.084   4.024   2.300  0.3752  0.0700 -0.1449
  296CLA    CLA22356   2.574   1.799  13.389  0.1420  0.1748 -0.0069
  297CLA    CLA22357   5.452   1.107   2.306  0.0397 -0.5332 -0.1258
  298CLA    CLA22358   0.500   0.146  13.461  0.0145 -0.0899  0.2141
  299CLA    CLA22359   0.106   2.378  16.853  0.0960 -0.1298 -0.0960
  300CLA    CLA22360   0.982   2.803  11.694  0.4870 -0.1846  0.1021
  301CLA    CLA22361   5.459   3.128   1.587 -0.1592 -0.0758 -0.4442
  302CLA    CLA22362   5.246   2.083  13.954 -0.0290 -0.1216  0.2126
  303CLA    CLA22363   0.652   2.877  14.422  0.5676  0.2148  0.3691
  304CLA    CLA22364   3.573   0.457   1.628  0.1482 -0.1196 -0.0351
  305CLA    CLA22365   4.148   6.706   3.200  0.1283 -0.0024 -0.0669
  306CLA    CLA22366   3.654   6.146  16.064 -0.4170 -0.2196  0.4544
  307CLA    CLA22367   2.108   1.516  14.852  0.2625 -0.4316  0.0169
  308CLA    CLA22368   6.215   4.869   3.409  0.0101  0.4282 -0.4781
  309CLA    CLA22369   5.122   5.396   2.227  0.0560 -0.4005 -0.0388
  310CLA    CLA22370   5.882   0.604   5.584  0.2486 -0.1137 -0.1561
  311CLA    CLA22371   3.265   3.841   0.706 -0.0747  0.0964  0.2655
  312CLA    CLA22372   1.682   2.227   2.842 -0.1134 -0.1742  0.1095
  313CLA    CLA22373   3.157   0.157  13.905  0.2192  0.3211 -0.0888
  314CLA    CLA22374   6.636   0.027   4.111  0.1308  0.2832  0.3039
  315CLA    CLA22375   6.399   0.682   4.360 -0.3106  0.1332  0.3621
  316CLA    CLA22376   2.823   4.878   0.476  0.3726 -0.1610  0.3647
  317CLA    CLA22377   6.614   4.746  13.076 -0.0004  0.3898  0.1059
  318CLA    CLA22378   5.692   0.873  16.109 -0.0856 -0.7401  0.2433
  319CLA    CLA22379   5.948   3.786  16.132 -0.1955  0.0529 -0.2805
  320CLA    CLA22380   4.504   0.832  16.348  0.2002 -0.3472 -0.3674
  321CLA    CLA22381   2.962   2.581  15.104 -0.3081  0.0231 -0.1441
  322CLA    CLA22382   4.706   6.275   3.131  0.1151  0.2213  0.1833
  323TIP3   OH222383   2.265   5.332  11.726 -0.5580 -0.6437  0.2788
  323TIP3    H122384   2.289   5.420  11.752 -1.3838 -0.1108 -0.6918
  323TIP3    H222385   2.203   5.303  11.793 -0.5935 -0.3329  0.3794
  324TIP3   OH222386   6.037   0.320  12.952 -0.7428  0.4233  0.3607
  324TIP3    H122387   5.967   0.378  12.923 -0.4874 -0.3211 -2.0253
  324TIP3    H222388   5.992   0.245  12.990 -1.1857  0.6068  0.2082
  325TIP3   OH222389   3.858   1.455   4.133  0.1987  0.4785 -0.0119
  325TIP3    H122390   3.873   1.539   4.176  1.7396 -0.0808  0.6096
  325TIP3    H222391   3.895   1.466   4.045 -0.7221  0.8216 -0.3743
  326TIP3   OH222392   1.262   0.891   3.797  0.2507  0.2706 -0.6146
  326TIP3    H122393   1.325   0.819   3.793  1.7288  1.3373  1.3862
  326TIP3    H222394   1.177   0.850   3.782  1.1607 -1.6868 -0.6607
  327TIP3   OH222395   2.958   6.212   2.950 -0.1639  0.2211 -0.2304
  327TIP3    H122396   3.015   6.251   3.016  0.9804  0.7661 -1.4996
  327TIP3    H222397   2.892   6.164   3.001  0.3256  1.1010  1.3028
  328TIP3   OH222398   4.956   3.007  11.052 -0.1377  0.4547 -0.2654
  328TIP3    H122399   4.983   3.042  10.967  1.0438  1.7931  0.6316
  328TIP3    H222400   4.884   3.063  11.079  1.1430  1.6741  0.7424
  329TIP3   OH222401   5.556   6.213  14.957 -0.1563 -0.5527 -0.6658
  329TIP3    H122402   5.566   6.178  14.868 -0.3384 -0.2261 -0.8188
  329TIP3    H222403   5.519   6.301  14.943  0.4036 -0.2553 -0.3002
  330TIP3   OH222404   4.844   1.987  11.401 -0.2423 -0.3191 -0.2077
  330TIP3    H122405   4.768   1.938  11.433  2.1845 -2.7926  2.3931
  330TIP3    H222406   4.867   2.045  11.474 -1.7220  3.3184 -2.4109
  331TIP3   OH222407   2.415   0.850  15.396  0.1760 -0.2441 -0.2420
  331TIP3    H122408   2.458   0.826  15.314 -1.4067 -0.5208 -1.0333
  331TIP3    H222409   2.399   0.944  15.389  0.2695 -0.2207 -0.1404
  332TIP3   OH222410   4.546   5.009  15.676  0.0710  0.3322  0.1294
  332TIP3    H122411   4.641   5.006  15.666 -0.1078  0.1279 -1.9838
  332TIP3    H222412   4.526   5.101  15.693  0.6252  0.3993  0.4369
  333TIP3   OH222413   2.934   4.204   4.143  0.1458 -0.2658 -0.9838
  333TIP3    H122414   2.904   4.284   4.187 -0.4019 -0.1383 -1.5763
  333TIP3    H222415   3.015   4.181   4.188 -0.4704 -0.2285  0.2102
  334TIP3   OH222416   1.485   6.555  11.756 -0.4612  0.4087 -0.6065
  334TIP3    H122417   1.432   6.590  11.828  1.3432  0.2467  0.8999
  334TIP3    H222418   1.504   6.464  11.783 -0.1976  0.1760 -1.5586
  335TIP3   OH222419   3.325   5.835  14.573  0.1418  0.0060  0.2432
  335TIP3    H122420   3.335   5.758  14.516  1.7410  0.9033 -0.7704
  335TIP3    H222421   3.257   5.810  14.635 -0.4925 -1.6393 -1.0378
  336TIP3   OH222422   1.502   6.037  12.896  0.4259 -0.2344 -0.4253
  336TIP3    H122423   1.439   5.989  12.950  0.4577 -1.0249 -1.0506
  336TIP3    H222424   1.449   6.104  12.852  0.3440  0.1999  0.3358
  337TIP3   OH222425   5.455   3.364  15.107 -0.1211 -0.5615  0.1710
  337TIP3    H122426   5.449   3.458  15.121 -1.3168 -0.3602 -1.4289
  337TIP3    H222427   5.376   3.341  15.059  0.2914 -2.3395  0.2514
  338TIP3   OH222428   0.443   5.203  14.573  0.3968  0.0721  0.0175
  338TIP3    H122429   0.524   5.253  14.580 -1.2956  2.7252  2.5142
  338TIP3    H222430   0.400   5.237  14.495  0.2853  0.9027  0.4384
  339TIP3   OH222431   5.329   0.410   2.407  0.2990 -0.3201 -0.0691
  339TIP3    H122432   5.277   0.382   2.482  0.4668 -0.1537  0.1107
  339TIP3    H222433   5.269   0.407   2.333 -0.5496  1.8954  0.4733
  340TIP3   OH222434   6.207   0.089  12.946 -0.2833  0.1543 -0.8763
  340TIP3    H122435   6.285   0.130  12.984  0.3372 -0.4238 -1.4936
  340TIP3    H222436   6.139   0.099  13.013  0.2296  0.9525 -0.4613
  341TIP3   OH222437   0.435   3.531   0.293  0.3073 -0.4596  0.0891
  341TIP3    H122438   0.362   3.585   0.262 -1.1145 -1.4500  1.4769
  341TIP3    H222439   0.469   3.578   0.369  1.4027  0.1870 -0.7784
  342TIP3   OH222440   5.672   4.044  14.610 -0.0750  0.6395  0.0959
  342TIP3    H122441   5.605   3.980  14.586 -0.4538  1.2317 -0.4978
  342TIP3    H222442   5.712   4.069  14.527  1.3775 -0.2005  0.5021
  343TIP3   OH222443   5.052   1.146  12.216 -0.3500  1.0422  0.0732
  343TIP3    H122444   5.022   1.191  12.137  2.7193  2.0499 -0.6645
  343TIP3    H222445   5.034   1.208  12.287 -1.2346  1.0130 -0.1125
  344TIP3   OH222446   5.795   5.589   3.839 -0.1034 -0.1587  0.5210
  344TIP3    H122447   5.808   5.614   3.930  1.0788  0.6508  0.1633
  344TIP3    H222448   5.732   5.517   3.842 -2.5000  1.8440  1.7434
  345TIP3   OH222449   4.581   5.102   2.409  0.1953  0.1291 -0.0615
  345TIP3    H122450   4.496   5.064   2.385 -0.4925  0.9422  0.9703
  345TIP3    H222451   4.559   5.191   2.439  1.2942  0.0187  1.1327
  346TIP3   OH222452   0.798   1.124  14.025  0.2046  0.3383 -0.2679
  346TIP3    H122453   0.855   1.161  14.093  0.9514  2.1124 -1.7617
  346TIP3    H222454   0.725   1.187  14.019  0.1443  0.1902 -1.0938
  347TIP3   OH222455   2.883   4.719   2.463  0.4601  0.3223  0.0443
  347TIP3    H122456   2.922   4.642   2.503  0.4906  1.2336  1.8811
  347TIP3    H222457   2.832   4.685   2.389  1.6012 -1.2751 -0.0568
  348TIP3   OH222458   0.966   0.794  17.036 -0.1127  0.1393  1.0248
  348TIP3    H122459   0.875   0.817  17.056 -0.1205 -1.0870  2.6033
  348TIP3    H222460   0.959   0.721  16.974 -0.1003  2.5635 -2.0697
  349TIP3   OH222461   6.576   6.667   3.533 -0.0681 -0.1738 -0.1871
  349TIP3    H122462   6.483   6.657   3.554  0.1038  2.0254  2.1506
  349TIP3    H222463   6.576   6.709   3.447 -1.3167  0.5626  0.1431
  350TIP3   OH222464   4.333   1.660   4.630 -0.0233 -0.2920  0.2787
  350TIP3    H122465   4.305   1.723   4.696  1.0698  0.3176  0.1940
  350TIP3    H222466   4.326   1.575   4.673 -3.1301 -0.3489 -0.1542
  351TIP3   OH222467   5.700   0.249  16.977  0.6155 -0.0541  0.2285
  351TIP3    H122468   5.738   0.332  17.007  2.4965  0.1667 -2.4082
  351TIP3    H222469   5.775   0.189  16.972 -0.5639 -1.7035  1.2295
  352TIP3   OH222470   3.234   3.718  12.954 -0.3171 -0.6990 -0.1743
  352TIP3    H122471   3.231   3.625  12.931 -2.5188 -0.1421 -2.6004
  352TIP3    H222472   3.300   3.754  12.894  0.6490 -0.6583  0.8721
  353TIP3   OH222473   1.381   5.936  13.730  0.3765  0.2775  0.4178
  353TIP3    H122474   1.424   5.850  13.734  1.1308  0.4945 -1.7419
  353TIP3    H222475   1.294   5.917  13.694  0.4010  0.3878  0.3025
  354TIP3   OH222476   4.978   1.929   1.555 -0.0010 -0.3127 -0.1864
  354TIP3    H122477   4.971   1.931   1.460  0.6525 -1.0666 -0.2493
  354TIP3    H222478   5.069   1.950   1.574 -0.3871  1.0254  0.3331
  355TIP3   OH222479   1.802   3.868   2.504  0.2322 -0.0281  0.1034
  355TIP3    H122480   1.722   3.818   2.489  0.0994 -0.3617  1.7523
  355TIP3    H222481   1.773   3.959   2.508  0.2646  0.0738 -1.4061
  356TIP3   OH222482   1.442   4.060  16.288 -0.4297  0.0002  0.1097
  356TIP3    H122483   1.446   4.105  16.203 -1.9354 -0.4474 -0.2344
  356TIP3    H222484   1.406   4.126  16.348  0.1388  0.1514  0.2944
  357TIP3   OH222485   6.407   0.037  11.672  0.0198 -0.0890 -0.7007
  357TIP3    H122486   6.323   0.015  11.633 -0.3097 -1.9282  0.9107
  357TIP3    H222487   6.445  -0.047  11.698  0.7878  0.8909  1.6647
  358TIP3   OH222488   4.125   6.070  15.502  0.2138 -0.2086 -0.0523
  358TIP3    H122489   4.054   6.133  15.486  0.4446  0.3125  0.9184
  358TIP3    H222490   4.154   6.089  15.591  1.7103 -0.2933 -0.5002
  359TIP3   OH222491   2.335   6.151  12.538 -0.3441 -0.5263  0.7956
  359TIP3    H122492   2.271   6.116  12.477 -0.3214  0.1440  0.3852
  359TIP3    H222493   2.342   6.084  12.606  2.2220 -2.9817 -1.6655
  360TIP3   OH222494   5.214   1.287   2.711  0.1686  0.2757 -0.7218
  360TIP3    H122495   5.168   1.323   2.635 -0.9762  1.3196  0.4059
  360TIP3    H222496   5.180   1.198   2.719 -1.7523  1.0272  0.0912
  361TIP3   OH222497   5.685   1.244  17.029 -0.1230 -0.0453  0.6661
  361TIP3    H122498   5.707   1.187  16.955  1.1911  0.5900  0.5380
  361TIP3    H222499   5.678   1.332  16.990  0.0121  0.2075  1.2050
  362TIP3   OH222500   3.402   2.727  10.687 -0.4692  0.9347 -0.4252
  362TIP3    H122501   3.439   2.657  10.635  0.9328  1.3530 -0.0372
  362TIP3    H222502   3.465   2.740  10.759 -1.4707  1.5396  0.3795
  363TIP3   OH222503   1.667   4.818   0.664 -0.2517  0.4434 -0.8544
  363TIP3    H122504   1.691   4.863   0.583  1.4021  0.8153 -0.2123
  363TIP3    H222505   1.745   4.767   0.687 -0.6032  0.5038  0.5970
  364TIP3   OH222506   5.038   4.872   0.301 -0.5417 -0.5331 -0.1241
  364TIP3    H122507   5.028   4.963   0.275 -1.7755 -0.2977  1.0070
  364TIP3    H222508   4.991   4.822   0.234  0.4695 -0.3931 -0.9576
  365TIP3   OH222509   5.996   2.018  15.317 -0.2449  0.2467  0.3674
  365TIP3    H122510   5.948   2.043  15.238 -1.0410  2.2085  1.4009
  365TIP3    H222511   5.929   1.981  15.375  0.6399 -3.0964 -0.4894
  366TIP3   OH222512   2.884   1.359  14.616  0.2290  0.2054  0.1940
  366TIP3    H122513   2.789   1.364  14.632  0.0362  1.4643 -1.1737
  366TIP3    H222514   2.895   1.276  14.570 -0.1830 -0.0271  0.5009
  367TIP3   OH222515   3.555   4.649  14.815  0.2833  0.0093  0.1617
  367TIP3    H122516   3.634   4.694  14.785 -0.9929  3.5119  1.5884
  367TIP3    H222517   3.483   4.699  14.778 -1.2954 -1.5147  1.0248
  368TIP3   OH222518   2.284   2.785  15.147  0.4347 -0.3616  0.2625
  368TIP3    H122519   2.342   2.861  15.132  0.8016 -0.6612  0.1553
  368TIP3    H222520   2.219   2.817  15.209  1.0196 -0.1650  0.7913
  369TIP3   OH222521   1.660   5.564  11.628 -0.1265 -0.2050 -0.8770
  369TIP3    H122522   1.688   5.597  11.713  1.2817  0.5168 -1.5887
  369TIP3    H222523   1.729   5.503  11.601 -0.3120 -0.0689 -1.7080
  370TIP3   OH222524   0.527   1.572  16.840  0.5409  0.5369 -0.2986
  370TIP3    H122525   0.601   1.566  16.778  1.5207 -0.1056  0.8916
  370TIP3    H222526   0.565   1.548  16.924 -0.6533  1.9117  0.6657
  371TIP3   OH222527   1.961   2.346  13.019  0.1507  0.2366 -0.4848
  371TIP3    H122528   1.975   2.340  12.925 -2.2817 -1.9849 -0.8329
  371TIP3    H222529   1.912   2.266  13.041 -0.7565  1.4450  2.3720
  372TIP3   OH222530   4.906   4.675  16.448  0.3066 -0.3336 -0.3043
  372TIP3    H122531   4.931   4.756  16.494 -0.1985  0.1361 -0.8373
  372TIP3    H222532   4.989   4.635  16.422  0.5466  0.9907 -1.6988
  373TIP3   OH222533   6.738   1.200   0.884  0.2006  0.0197 -0.8432
  373TIP3    H122534   6.669   1.178   0.822 -0.3703 -0.5383 -0.0349
  373TIP3    H222535   6.717   1.149   0.962 -0.5553  2.5304  0.7326
  374TIP3   OH222536   3.851   3.793  12.235  0.3868  0.0431  0.2583
  374TIP3    H122537   3.813   3.878  12.256 -0.7041  0.2238 -2.1007
  374TIP3    H222538   3.780   3.731  12.251 -0.2859  0.1276 -2.0235
  375TIP3   OH222539   2.315   2.648  13.600  0.4313 -0.0801  0.6971
  375TIP3    H122540   2.249   2.704  13.641 -0.4847 -1.6113  1.3904
  375TIP3    H222541   2.335   2.691  13.517 -1.6163  0.3133  0.3596
  376TIP3   OH222542   5.124   3.291  13.310 -0.2139 -0.1127 -0.1987
  376TIP3    H122543   5.190   3.222  13.320 -0.2297 -0.1805 -0.5585
  376TIP3    H222544   5.056   3.269  13.373  1.3710  1.4587  2.2204
  377TIP3   OH222545   4.635   6.323   0.753  0.4889  0.3551 -0.2053
  377TIP3    H122546   4.646   6.335   0.848 -1.2951  0.6027 -0.0040
  377TIP3    H222547   4.698   6.255   0.730  0.5365 -0.1280  1.2656
  378TIP3   OH222548   0.125   0.366   4.550  0.3017  0.4840  0.5476
  378TIP3    H122549   0.175   0.442   4.581  0.1533  0.5750  0.5654
  378TIP3    H222550   0.156   0.294   4.605 -0.2709  0.7280  1.2153
  379TIP3   OH222551   0.519   1.725   1.211  0.1465 -0.5843  0.3473
  379TIP3    H122552   0.534   1.689   1.299 -2.1068 -2.2566  0.1176
  379TIP3    H222553   0.468   1.804   1.227 -2.1319 -2.0057  0.5433
  380TIP3   OH222554   5.445   1.966   3.381  0.2619 -0.2864 -0.0241
  380TIP3    H122555   5.422   2.058   3.392  1.5386  0.1525 -0.9044
  380TIP3    H222556   5.446   1.952   3.286 -0.6075 -1.4040  0.1019
  381TIP3   OH222557   3.752   3.271   4.215  0.6366 -0.0988 -0.1936
  381TIP3    H122558   3.761   3.340   4.281  1.1199  0.5391 -0.9007
  381TIP3    H222559   3.669   3.228   4.236  0.4483  0.5354  0.4116
  382TIP3   OH222560   3.018   4.039   4.940  0.5354  0.0236 -0.6505
  382TIP3    H122561   2.986   4.085   5.018  0.8084 -2.7896  1.3086
  382TIP3    H222562   2.948   4.050   4.875 -0.1993  1.5680  0.3392
  383TIP3   OH222563   4.432   4.849   3.944  0.1039 -0.1407  0.2606
  383TIP3    H122564   4.443   4.854   3.849 -0.2944  0.3771  0.2409
  383TIP3    H222565   4.498   4.785   3.972  1.2827  0.8440 -0.1855
  384TIP3   OH222566   0.493   1.384   4.246  0.6547 -0.0599 -0.1539
  384TIP3    H122567   0.480   1.336   4.328  0.2912 -2.0461 -1.3329
  384TIP3    H222568   0.448   1.332   4.180  0.6247  1.6907 -1.5961
  385TIP3   OH222569   2.493   6.218  11.467 -0.2490 -0.0274  0.0621
  385TIP3    H122570   2.494   6.307  11.502 -2.0707 -0.8059  2.3483
  385TIP3    H222571   2.538   6.165  11.533 -0.1048 -0.9851 -0.7718
  386TIP3   OH222572   6.354   0.684   4.876 -0.8199 -0.0379  0.0635
  386TIP3    H122573   6.449   0.690   4.868 -0.8457  0.6349  0.1516
  386TIP3    H222574   6.323   0.666   4.788 -0.5129 -1.9281  0.3113
  387TIP3   OH222575   4.604   1.739   1.174  0.2607 -0.0093  0.4313
  387TIP3    H122576   4.534   1.705   1.229 -0.6909 -0.0438 -0.7684
  387TIP3    H222577   4.631   1.820   1.217 -2.1139  1.2442 -0.2812
  388TIP3   OH222578   5.724   3.890   6.362 -0.1783 -0.2832  0.0430
  388TIP3    H122579   5.784   3.958   6.332  0.1199 -0.2552  0.7009
  388TIP3    H222580   5.643   3.937   6.381  0.5010  0.1652  2.0193
  389TIP3   OH222581   1.190   4.308  15.031 -0.2829  0.3828  0.1283
  389TIP3    H122582   1.264   4.283  14.976  0.4151 -0.2279  1.3043
  389TIP3    H222583   1.224   4.378  15.087 -0.1849 -0.7743  1.5613
  390TIP3   OH222584   5.715   0.084  15.946  0.5420  0.0789  0.0688
  390TIP3    H122585   5.672   0.003  15.921  0.0136 -0.4796  2.5352
  390TIP3    H222586   5.795   0.087  15.893 -0.4677 -0.9500 -1.5814
  391TIP3   OH222587   5.048   1.512  14.062 -0.0539 -0.0391  0.5879
  391TIP3    H122588   4.965   1.558  14.047  0.9726  1.3550 -1.1799
  391TIP3    H222589   5.101   1.574  14.113  1.0549  0.4865 -1.1370
  392TIP3   OH222590   1.918   4.320   0.293  0.0995 -0.0471  0.3133
  392TIP3    H122591   2.009   4.325   0.262  0.0525  3.0609  0.3933
  392TIP3    H222592   1.921   4.254   0.363  1.5388 -2.4144 -1.8057
  393TIP3   OH222593   4.644   0.607  16.558  0.8015  0.0196 -0.1668
  393TIP3    H122594   4.581   0.640  16.622  1.0757 -0.2601  0.2523
  393TIP3    H222595   4.609   0.635  16.473  0.3909  0.3189  0.0982
  394TIP3   OH222596   2.707   4.097   3.603 -0.1277 -0.1239  0.4897
  394TIP3    H122597   2.742   4.036   3.668  0.9181 -0.2130 -0.1235
  394TIP3    H222598   2.759   4.177   3.615 -0.9381  0.3708  0.7470
  395TIP3   OH222599   3.410   6.490  15.734  0.4147  0.3676 -0.2236
  395TIP3    H122600   3.407   6.510  15.640  0.9294 -0.8047 -0.5114
  395TIP3    H222601   3.481   6.426  15.742 -0.4422 -0.4874  0.7789
  396TIP3   OH222602   2.225   0.767  11.084 -0.8827 -0.5465 -0.1002
  396TIP3    H122603   2.241   0.840  11.024 -1.8802 -0.4406 -0.2572
  396TIP3    H222604   2.216   0.808  11.170 -0.3382 -0.6064 -0.0113
  397TIP3   OH222605   5.183   3.215   1.101  0.2745  0.5858  0.2851
  397TIP3    H122606   5.154   3.281   1.165  0.9208  0.3214  0.8638
  397TIP3    H222607   5.170   3.131   1.145 -0.8378  0.2771 -0.5649
  398TIP3   OH222608   2.952   5.618  16.820  0.5169 -0.3532  0.2935
  398TIP3    H122609   2.914   5.574  16.744 -1.9320 -1.2711  1.9173
  398TIP3    H222610   3.002   5.550  16.865  1.2212 -0.0334  0.0194
  399TIP3   OH222611   0.295   2.581  12.252  0.5165  0.1844 -0.1922
  399TIP3    H122612   0.254   2.666  12.236 -0.4635 -0.7153 -3.1210
  399TIP3    H222613   0.379   2.602  12.293  0.5863  2.6149 -1.4226
  400TIP3   OH222614   0.561   2.077   1.865 -0.0117 -0.2353  0.0500
  400TIP3    H122615   0.630   2.098   1.801  0.1504  1.7633  0.8254
  400TIP3    H222616   0.541   1.985   1.848  1.0680 -0.1725 -1.8864
  401TIP3   OH222617   1.139   3.137  14.321 -0.5077 -0.3406 -0.1694
  401TIP3    H122618   1.052   3.102  14.339 -0.8102  0.6663  0.3964
  401TIP3    H222619   1.123   3.223  14.283  0.2207  0.8860  2.1038
  402TIP3   OH222620   3.740   0.661   4.550 -0.5790 -0.5873 -0.1738
  402TIP3    H122621   3.773   0.653   4.460  0.2396  2.2360 -0.2367
  402TIP3    H222622   3.694   0.579   4.566  0.0687 -1.5849 -2.8224
  403TIP3   OH222623   4.492   1.512   5.387 -0.5222 -0.1275  0.6752
  403TIP3    H122624   4.444   1.446   5.438 -2.0235  0.7002  0.3955
  403TIP3    H222625   4.525   1.464   5.312 -0.1699 -0.9062  1.3062
  404TIP3   OH222626   0.943   4.161   2.342  0.1783  0.1947  0.8380
  404TIP3    H122627   0.852   4.133   2.348  0.3075 -0.1725  1.1330
  404TIP3    H222628   0.983   4.100   2.279  0.0877  0.7095  0.2750
  405TIP3   OH222629   5.053   0.083   6.201 -0.2274 -0.4083  0.1914
  405TIP3    H122630   5.054   0.042   6.288 -4.4374 -1.7887 -0.2182
  405TIP3    H222631   5.114   0.029   6.149 -0.0602 -1.5445  1.4948
  406TIP3   OH222632   4.010   1.654  16.440 -0.2559 -0.0361  0.1648
  406TIP3    H122633   4.059   1.573  16.430 -0.1027  0.1503 -0.6864
  406TIP3    H222634   4.032   1.706  16.362 -1.1573  0.3927  0.1751
  407TIP3   OH222635   1.506   1.752  11.272  0.0710  0.5123  0.4295
  407TIP3    H122636   1.547   1.704  11.344  0.2853 -0.0404 -0.0545
  407TIP3    H222637   1.518   1.696  11.196 -0.7456  0.7828  0.0884
  408TIP3   OH222638   5.902   5.203   5.503  0.3027 -0.0385  0.1318
  408TIP3    H122639   5.958   5.226   5.576  0.2558  0.3418  0.0504
  408TIP3    H222640   5.836   5.144   5.541 -1.7254  2.6702  1.1796
  409TIP3   OH222641   1.930   1.236  10.691  0.1932  0.6701  0.1086
  409TIP3    H122642   1.888   1.272  10.769 -0.1232 -1.1761  0.8323
  409TIP3    H222643   1.866   1.252  10.621 -1.1192 -0.8050  0.9193
  410TIP3   OH222644   5.203   6.006  17.053  0.2546 -0.3431  0.5882
  410TIP3    H122645   5.256   6.063  17.110 -0.4876  1.0876 -0.0881
  410TIP3    H222646   5.240   6.020  16.966  0.5699 -1.5466  0.5155
  411TIP3   OH222647   3.545   3.465  12.905 -0.5354  0.1151 -0.1560
  411TIP3    H122648   3.490   3.543  12.892  0.4915  0.6599 -1.5152
  411TIP3    H222649   3.634   3.495  12.884 -0.0737 -1.3475 -0.4137
  412TIP3   OH222650   1.397   3.248   5.794  0.0547  0.5304  0.1840
  412TIP3    H122651   1.424   3.159   5.815 -0.0824  0.3330 -0.4877
  412TIP3    H222652   1.334   3.271   5.863 -1.3583 -0.5806 -0.6894
  413TIP3   OH222653   0.388   5.289  15.223  0.8537 -0.2441 -0.3902
  413TIP3    H122654   0.359   5.234  15.295 -0.3082  2.0209  1.0093
  413TIP3    H222655   0.480   5.305  15.240  1.2594 -1.8060 -0.9244
  414TIP3   OH222656   0.708   4.175  14.165 -0.2559 -0.5373  0.3368
  414TIP3    H122657   0.694   4.248  14.104 -0.7951  0.1520  1.2503
  414TIP3    H222658   0.803   4.163  14.166 -0.1831 -0.0292 -0.0346
  415TIP3   OH222659   5.208   5.546  16.696  0.2669  0.5459 -0.2085
  415TIP3    H122660   5.198   5.618  16.759  0.7182  0.2227  0.2382
  415TIP3    H222661   5.230   5.470  16.749  1.9009  0.5318 -0.8564
  416TIP3   OH222662   1.148   0.407  13.994 -0.3805 -0.2190 -0.2175
  416TIP3    H122663   1.123   0.458  13.917  0.0816 -1.4977 -1.2347
  416TIP3    H222664   1.240   0.385  13.980 -0.1420 -0.0323  0.9568
  417TIP3   OH222665   4.235   6.006   3.921  0.1949 -0.3841  0.3335
  417TIP3    H122666   4.190   6.086   3.947 -1.4980 -1.3687  0.6674
  417TIP3    H222667   4.246   5.957   4.003  2.8853  0.2326  0.4312
  418TIP3   OH222668   0.469   3.380  13.654  0.2776  0.1650  0.6170
  418TIP3    H122669   0.510   3.460  13.687  2.7196  0.2097 -2.0759
  418TIP3    H222670   0.543   3.322  13.636 -1.0190 -0.8525 -1.9099
  419TIP3   OH222671   4.363   0.048  15.011 -0.1715 -0.6028  0.1446
  419TIP3    H122672   4.458   0.041  15.023 -0.3516  0.2903  2.9596
  419TIP3    H222673   4.330  -0.041  15.024  0.1978 -0.7046  0.3938
  420TIP3   OH222674   5.042   5.448  13.728  0.0884  0.1714 -0.1638
  420TIP3    H122675   5.081   5.361  13.740  0.5938  0.2865 -0.9020
  420TIP3    H222676   5.020   5.476  13.817  1.7777  0.1316  0.3116
  421TIP3   OH222677   1.974   3.211  16.960  0.1528  0.2038  0.1137
  421TIP3    H122678   1.888   3.242  16.932 -1.0813 -3.0069 -0.0178
  421TIP3    H222679   1.996   3.266  17.035 -2.0461  1.0404  0.2168
  422TIP3   OH222680   4.027   2.083   4.891  0.3912  0.2853 -0.1544
  422TIP3    H122681   3.993   1.993   4.886 -0.8121  0.7207 -0.1873
  422TIP3    H222682   4.050   2.104   4.801  1.5907 -0.3154 -0.0027
  423TIP3   OH222683   2.457   5.071   5.776  0.1555  0.4166 -0.2302
  423TIP3    H122684   2.481   5.142   5.836 -1.6073  0.2894  0.6890
  423TIP3    H222685   2.491   4.992   5.818  1.7131  0.6206 -1.0262
  424TIP3   OH222686   0.328   6.662   2.659  0.7454  0.0133  0.2827
  424TIP3    H122687   0.415   6.688   2.689  0.6827 -0.1244  0.5914
  424TIP3    H222688   0.345   6.587   2.602  0.6998 -1.3410  1.9589
  425TIP3   OH222689   0.007   4.951  14.855 -0.8351  0.6178  0.1959
  425TIP3    H122690   0.024   5.044  14.872 -1.1851  0.5164  1.1398
  425TIP3    H222691  -0.068   4.951  14.796  0.4380  0.9755 -1.5084
  426TIP3   OH222692   5.796   1.017   3.032 -0.1535  0.0978  0.4959
  426TIP3    H122693   5.771   1.046   3.119 -1.0227 -1.4487  0.8133
  426TIP3    H222694   5.723   1.045   2.976  0.8446  1.9372  0.0442
  427TIP3   OH222695   0.398   3.726  11.046 -0.3122 -0.1637 -0.2125
  427TIP3    H122696   0.311   3.756  11.018 -0.5485  0.2512  0.9109
  427TIP3    H222697   0.419   3.780  11.122  0.6996 -0.6383 -0.1335
  428TIP3   OH222698   5.738   4.016   4.952  0.4405 -0.1733  0.0928
  428TIP3    H122699   5.668   4.023   5.016  1.6489  0.8123  1.3899
  428TIP3    H222700   5.762   4.107   4.932  1.6409 -0.4759  0.0391
  429TIP3   OH222701   5.343   2.666  16.361 -0.4615  0.1494  0.2414
  429TIP3    H122702   5.316   2.710  16.442 -0.7506  0.4321 -0.0001
  429TIP3    H222703   5.266   2.616  16.334  0.0514 -0.9913  0.8193
  430TIP3   OH222704   0.983   3.648  13.349 -0.4966 -0.3346 -0.0125
  430TIP3    H122705   0.920   3.592  13.395  0.8233 -0.1275  2.1823
  430TIP3    H222706   1.068   3.619  13.381  0.5413 -0.1518 -2.4081
  431TIP3   OH222707   5.629   6.368  11.968 -0.1552 -0.1350  0.8464
  431TIP3    H122708   5.701   6.382  12.029  2.0755 -1.0900 -1.4357
  431TIP3    H222709   5.657   6.295  11.913 -1.7006  1.1159 -1.8218
  432TIP3   OH222710   5.472   4.644  12.157  0.6337 -0.3759 -0.4521
  432TIP3    H122711   5.383   4.612  12.175  0.1905  0.7662 -0.5466
  432TIP3    H222712   5.510   4.577  12.099  0.2293 -1.4166  0.4548
  433TIP3   OH222713   4.003   2.017  12.969 -0.0910 -0.1170  0.8679
  433TIP3    H122714   3.984   1.963  13.046 -2.3265 -1.8709 -0.7634
  433TIP3    H222715   4.000   2.107  13.002  0.2990 -0.8302  3.0461
  434TIP3   OH222716   3.898   3.726  15.769 -0.2930 -0.1890  0.1081
  434TIP3    H122717   3.877   3.725  15.862  1.2059 -0.0332  0.4659
  434TIP3    H222718   3.944   3.809  15.755 -2.1159  0.6791 -1.1683
  435TIP3   OH222719   3.149   5.976  15.261  0.2564  0.4472  0.2135
  435TIP3    H122720   3.203   5.961  15.338  1.4120  3.8303  0.2180
  435TIP3    H222721   3.091   6.047  15.285 -1.7336 -0.6502 -1.0206
  436TIP3   OH222722   0.190   0.162  16.904  0.5334 -0.0564 -0.1545
  436TIP3    H122723   0.256   0.120  16.849  1.0159 -0.5079  0.7394
  436TIP3    H222724   0.218   0.254  16.910 -0.3663  0.3772 -1.8752
  437TIP3   OH222725   3.277   6.293  14.116  0.3166 -0.0492 -0.3393
  437TIP3    H122726   3.368   6.307  14.142  0.7336  1.5069 -2.3651
  437TIP3    H222727   3.283   6.238  14.038 -0.6054 -1.1516  0.3349
  438TIP3   OH222728   1.719   3.273  14.464  0.4026 -0.4697  0.2985
  438TIP3    H122729   1.676   3.269  14.379  1.4315 -0.4345 -0.2364
  438TIP3    H222730   1.649   3.255  14.527 -0.0907 -1.9559 -0.6172
  439TIP3   OH222731   5.878   3.160   0.172  0.1612  0.2166  0.0845
  439TIP3    H122732   5.852   3.232   0.115 -0.4305  0.3805  0.5433
  439TIP3    H222733   5.904   3.203   0.254  1.5032  0.0227 -0.2199
  440TIP3   OH222734   3.585   0.008  11.484 -0.5869  0.3269  0.3952
  440TIP3    H122735   3.593  -0.076  11.440  0.2066  0.4977  0.1911
  440TIP3    H222736   3.497   0.008  11.521 -0.0014 -1.3559  1.9465
  441TIP3   OH222737   2.969   3.441  12.161 -1.0670 -0.5923  0.0016
  441TIP3    H122738   2.977   3.502  12.234 -3.2231 -1.2702  0.9047
  441TIP3    H222739   3.037   3.468  12.100 -1.2847  2.1101  0.7800
  442TIP3   OH222740   3.212   1.656  13.444  0.1699 -0.2596  0.0570
  442TIP3    H122741   3.303   1.641  13.470  0.6116  1.0690 -0.6426
  442TIP3    H222742   3.171   1.693  13.523  1.1390  2.3662 -0.5643
  443TIP3   OH222743   4.447   0.048  16.643 -0.4433 -0.1037  0.1355
  443TIP3    H122744   4.465   0.118  16.580 -1.7513  0.3128  0.1795
  443TIP3    H222745   4.369   0.004  16.608  0.2364 -1.4147  0.2240
  444TIP3   OH222746   5.980   5.399   0.248  0.9969  0.0804 -0.3331
  444TIP3    H122747   6.038   5.389   0.173  0.5504  0.0984 -0.6856
  444TIP3    H222748   5.924   5.473   0.226  1.6333  0.8395  0.5285
  445TIP3   OH222749   5.045   2.273   0.677  0.1749  0.1506 -0.4811
  445TIP3    H122750   5.015   2.195   0.723 -0.0974 -0.2908 -1.3712
  445TIP3    H222751   5.024   2.345   0.735  0.8217 -0.4624  0.5540
  446TIP3   OH222752   6.709   3.322   1.497  0.3493  0.0706  0.1591
  446TIP3    H122753   6.658   3.397   1.527  0.8715  0.3976  0.2387
  446TIP3    H222754   6.721   3.268   1.575 -1.0657 -0.7290 -0.1376
  447TIP3   OH222755   1.789   2.586  16.625 -0.5435  0.3719 -0.1165
  447TIP3    H122756   1.710   2.544  16.659 -0.8178  1.2728  0.4049
  447TIP3    H222757   1.782   2.677  16.654 -0.4865  1.0629 -2.0819
  448TIP3   OH222758   5.903   1.479  16.853 -0.2017  0.3921 -0.1824
  448TIP3    H122759   5.873   1.450  16.767 -0.3891 -0.4162  0.1435
  448TIP3    H222760   5.822   1.498  16.901 -0.2674 -1.8356  0.7108
  449TIP3   OH222761   4.148   1.822  11.128  0.0785  0.2276 -0.0246
  449TIP3    H122762   4.071   1.832  11.184  1.7299  0.2686  2.3931
  449TIP3    H222763   4.122   1.859  11.044 -2.4699  0.3526  0.7465
  450TIP3   OH222764   1.958   6.009   0.319  0.0625  0.1688 -0.0061
  450TIP3    H122765   1.937   6.087   0.268 -0.0575  0.3455  0.3139
  450TIP3    H222766   1.883   5.997   0.378 -0.1039 -0.4142 -0.3206
  451TIP3   OH222767   2.704   6.776  11.716 -0.1330  0.0502 -0.1102
  451TIP3    H122768   2.749   6.801  11.798 -0.5320  0.0996  0.0966
  451TIP3    H222769   2.639   6.845  11.703 -0.0454  0.0619 -0.4930
  452TIP3   OH222770   0.333   2.162   2.890  0.1609  0.0962  0.1177
  452TIP3    H122771   0.350   2.252   2.861  0.9447  0.6191  1.9961
  452TIP3    H222772   0.411   2.113   2.864 -0.1384  0.0118 -0.6458
  453TIP3   OH222773   0.778   6.242  13.875  0.8001  0.2857  0.3151
  453TIP3    H122774   0.716   6.170  13.884  0.0424  0.7912 -0.6831
  453TIP3    H222775   0.848   6.221  13.936  0.5923 -1.2976  0.0508
  454TIP3   OH222776   3.633   2.695  12.516  0.4775  0.1816  1.2321
  454TIP3    H122777   3.599   2.615  12.555  0.1409  0.7099  2.0462
  454TIP3    H222778   3.562   2.758  12.526  0.9652  0.7532  1.1382
  455TIP3   OH222779   3.583   5.115  17.007  0.4699  0.8200  0.6373
  455TIP3    H122780   3.496   5.118  16.966  0.0315  1.4833  1.5666
  455TIP3    H222781   3.635   5.179  16.959  0.6030  0.0753 -0.2371
  456TIP3   OH222782   0.556   4.350   5.890 -0.2689 -0.2124 -0.4368
  456TIP3    H122783   0.606   4.344   5.972 -0.7466  0.8259 -0.0519
  456TIP3    H222784   0.505   4.431   5.899 -1.5465 -0.9121 -1.0790
  457TIP3   OH222785   2.962   2.898  11.245  0.4630 -0.1033  0.8264
  457TIP3    H122786   2.904   2.950  11.301  1.4780 -0.3577  2.1808
  457TIP3    H222787   3.029   2.960  11.216  0.1518 -0.0601  0.1860
  458TIP3   OH222788   1.229   5.878   5.305 -0.3333 -0.5220 -0.6547
  458TIP3    H122789   1.206   5.794   5.344 -0.5257 -0.0519  0.2776
  458TIP3    H222790   1.145   5.922   5.294 -0.0763  0.7021  1.5962
  459TIP3   OH222791   1.892   4.105  13.710  0.5195  0.4743  0.2880
  459TIP3    H122792   1.909   4.095  13.616 -0.4369 -1.2017  0.2621
  459TIP3    H222793   1.933   4.189  13.733  1.6600  0.4171 -1.3947
  460TIP3   OH222794   2.318   0.466  14.015 -0.4230 -0.1917  0.0186
  460TIP3    H122795   2.227   0.462  13.985 -0.0460 -1.2553 -1.0726
  460TIP3    H222796   2.370   0.464  13.934  0.5826 -0.3891  0.6512
  461TIP3   OH222797   4.398   5.329   2.733 -0.5745 -0.3078  0.0685
  461TIP3    H122798   4.364   5.412   2.766 -0.9005 -0.7293  0.8143
  461TIP3    H222799   4.322   5.271   2.731 -0.3757 -0.5528 -0.5758
  462TIP3   OH222800   3.768   0.292   2.312  0.0305 -0.3506  0.1116
  462TIP3    H122801   3.803   0.342   2.386 -0.0876 -0.5921  0.3314
  462TIP3    H222802   3.675   0.282   2.331 -0.0123 -0.3652 -0.0997
  463TIP3   OH222803   2.322   2.911  10.733  0.2068 -0.1421  0.3095
  463TIP3    H122804   2.401   2.873  10.772  1.0684  0.3338 -0.9114
  463TIP3    H222805   2.282   2.838  10.685  0.4635 -0.1420  0.0924
  464TIP3   OH222806   2.496   4.654   0.679 -0.1792 -0.7696 -0.0571
  464TIP3    H122807   2.536   4.708   0.747 -3.1569  1.6922 -0.0441
  464TIP3    H222808   2.435   4.597   0.727  0.0534 -1.3336 -0.4231
  465TIP3   OH222809   6.586   0.433  15.296 -0.4755 -0.8127  0.3233
  465TIP3    H122810   6.605   0.526  15.292  0.4085 -0.8826  1.8904
  465TIP3    H222811   6.665   0.390  15.264 -0.7879 -1.0281 -0.1665
  466TIP3   OH222812   5.706   1.633   2.863  0.6432 -0.0050 -0.6861
  466TIP3    H122813   5.772   1.581   2.816 -0.5068 -1.2440 -0.9782
  466TIP3    H222814   5.652   1.671   2.794  0.9180  0.8672 -0.4398
  467TIP3   OH222815   5.978   4.455  17.003 -0.0372  0.3398 -0.0730
  467TIP3    H122816   5.960   4.514  16.930  1.0439 -2.0731 -2.4717
  467TIP3    H222817   5.894   4.447  17.049 -1.2090  0.7097 -2.0489
  468TIP3   OH222818   3.072   5.363  16.067  0.1917 -0.3142 -0.2598
  468TIP3    H122819   3.028   5.388  16.148 -0.4999  0.5778 -0.8772
  468TIP3    H222820   3.002   5.327  16.012  0.6236 -0.7758 -0.5072
  469TIP3   OH222821   5.050   0.394  16.089  0.0035 -0.0218 -0.1196
  469TIP3    H122822   5.127   0.377  16.143 -0.3225 -1.1064  0.0164
  469TIP3    H222823   5.010   0.309  16.076 -2.1054  0.6687  1.1891
  470TIP3   OH222824   1.413   5.390  13.569 -0.2757 -0.9037  0.4543
  470TIP3    H122825   1.474   5.336  13.619  0.8404  1.5492  1.8906
  470TIP3    H222826   1.452   5.398  13.482 -0.1679 -1.8851  0.4029
  471TIP3   OH222827   4.207   6.590  11.335  0.3949  0.7488 -0.0471
  471TIP3    H122828   4.129   6.537  11.316  1.4609 -0.9184  0.0733
  471TIP3    H222829   4.173   6.679  11.348 -1.3135  0.3560 -1.4628
  472TIP3   OH222830   0.548   6.473   1.371 -0.3502 -0.2594  0.0861
  472TIP3    H122831   0.471   6.467   1.313 -1.2122  1.3316  0.9962
  472TIP3    H222832   0.619   6.436   1.319 -1.0661  1.1212 -2.0394
  473TIP3   OH222833   0.857   1.953  15.393  0.2723  0.4302 -0.1579
  473TIP3    H122834   0.930   1.958  15.455 -0.2813  0.0866  0.5450
  473TIP3    H222835   0.779   1.957  15.448 -0.2528 -1.7965 -0.6276
  474TIP3   OH222836   4.276   4.967  12.709 -0.4654 -0.5529 -0.4673
  474TIP3    H122837   4.305   5.031  12.774  2.8304 -3.8253  1.7104
  474TIP3    H222838   4.335   4.980  12.635  0.9685 -1.6257  0.4260
  475TIP3   OH222839   1.932   4.719  14.690 -0.1018  0.0386  0.4289
  475TIP3    H122840   1.966   4.808  14.695 -0.6464  0.3494 -1.0690
  475TIP3    H222841   1.946   4.692  14.600  0.0300 -1.3986  0.8505
  476TIP3   OH222842   5.675   4.263  16.014  0.5383  0.3243 -0.1303
  476TIP3    H122843   5.676   4.181  16.062 -1.4456  1.2105  1.5746
  476TIP3    H222844   5.764   4.298  16.024  1.2249 -1.2698 -0.3541
  477TIP3   OH222845   5.404   1.723  15.345  0.0918  0.0137  0.2396
  477TIP3    H122846   5.330   1.727  15.406 -0.1694 -0.3035 -0.0500
  477TIP3    H222847   5.481   1.738  15.400 -0.2101  0.6889  0.4918
  478TIP3   OH222848   0.556   2.072  10.267  0.2390  0.1432  0.4396
  478TIP3    H122849   0.515   1.995  10.227 -1.0902  0.7728  0.5467
  478TIP3    H222850   0.649   2.063  10.245 -0.2665 -0.1236 -1.8451
  479TIP3   OH222851   2.409   2.988   3.250  0.8540  0.1657 -0.0479
  479TIP3    H122852   2.500   2.959   3.247  0.3562 -1.4231 -1.3150
  479TIP3    H222853   2.366   2.939   3.180 -1.4110 -0.7128  1.8195
  480TIP3   OH222854   6.421   2.662   1.469 -0.4376 -0.4768 -0.1077
  480TIP3    H122855   6.359   2.735   1.473 -0.2982 -0.3605 -0.0969
  480TIP3    H222856   6.500   2.698   1.430 -0.2636 -0.5485  0.1740
  481TIP3   OH222857   2.136   3.963   2.483 -0.2132 -0.0454  0.0060
  481TIP3    H122858   2.144   3.869   2.468 -0.2771 -0.3820  1.8218
  481TIP3    H222859   2.225   3.993   2.500 -0.3269  0.0070  0.5209
  482TIP3   OH222860   5.053   1.495  14.403 -0.0488  0.0922 -0.3927
  482TIP3    H122861   5.075   1.419  14.349 -0.4745 -0.7654  0.6049
  482TIP3    H222862   4.958   1.490  14.414  0.1218 -0.3066  1.1912
  483TIP3   OH222863   4.768   2.030   3.252  0.0074  0.1423  0.0390
  483TIP3    H122864   4.720   2.110   3.271 -0.4043  0.5590 -2.3759
  483TIP3    H222865   4.859   2.058   3.242 -0.0429  0.2134 -0.2267
  484TIP3   OH222866   1.809   3.578  15.103 -0.5317  0.5632  0.1828
  484TIP3    H122867   1.752   3.613  15.172 -0.3155  0.8672  0.2070
  484TIP3    H222868   1.788   3.484  15.100 -0.6690  0.5812  0.5421
  485TIP3   OH222869   1.533   1.025  10.961  0.2608  0.1267 -0.0329
  485TIP3    H122870   1.531   0.976  10.879  0.6122  1.4287 -0.8462
  485TIP3    H222871   1.496   1.110  10.940  1.0002  0.7314  0.9830
  486TIP3   OH222872   6.163   1.088  10.780 -0.1182  0.6416 -0.0201
  486TIP3    H122873   6.257   1.083  10.759 -0.5076  2.1153 -2.4705
  486TIP3    H222874   6.156   1.160  10.843  0.2770  1.5413 -0.9713
  487TIP3   OH222875   6.253   2.587  12.044  0.1948 -0.2266  0.5843
  487TIP3    H122876   6.252   2.639  12.125  0.6895 -0.8527  1.0006
  487TIP3    H222877   6.232   2.498  12.072 -1.7090 -0.0820 -0.2787
  488TIP3   OH222878   1.331   3.066  15.200  0.3063  0.4093  0.2527
  488TIP3    H122879   1.271   3.140  15.186 -2.2916 -1.7576 -1.1286
  488TIP3    H222880   1.341   3.027  15.113  0.1413 -1.8755  1.1893
  489TIP3   OH222881   1.693   1.455   3.227  0.1677 -0.2648  0.2330
  489TIP3    H122882   1.741   1.528   3.265 -0.2339  0.5918 -0.8704
  489TIP3    H222883   1.759   1.402   3.183  0.4068 -0.3865  0.7305
  490TIP3   OH222884   5.019   3.206  11.383  0.5668  0.6370 -0.0303
  490TIP3    H122885   5.066   3.142  11.329 -0.4361 -1.6456  1.6218
  490TIP3    H222886   5.071   3.213  11.463 -0.7796 -0.3501  0.9742
  491TIP3   OH222887   0.258   0.488   3.072 -0.5927  0.2382 -0.2996
  491TIP3    H122888   0.246   0.400   3.036  0.6583 -0.1304  0.1306
  491TIP3    H222889   0.212   0.487   3.156  0.0145 -0.2385  0.0317
  492TIP3   OH222890   4.902   2.942   1.566  0.6985 -0.0664 -0.1640
  492TIP3    H122891   4.963   2.897   1.625 -0.3321 -1.4979 -0.1489
  492TIP3    H222892   4.908   2.893   1.484 -0.2459 -0.0636 -0.2349
  493TIP3   OH222893   5.448   6.384  13.276  0.0752  0.1499 -0.1977
  493TIP3    H122894   5.489   6.461  13.236  1.4849 -1.7014 -2.6033
  493TIP3    H222895   5.403   6.341  13.203 -0.0074 -1.7151  0.9013
  494TIP3   OH222896   0.718   0.463  16.439  0.3955 -0.0444 -0.6695
  494TIP3    H122897   0.729   0.500  16.352 -1.1553 -1.0190 -1.3223
  494TIP3    H222898   0.695   0.372  16.424  3.5524 -1.2681  0.8615
  495TIP3   OH222899   1.572   6.690   5.465  0.0671  0.2570  0.1936
  495TIP3    H122900   1.610   6.687   5.553  0.7881  0.5516 -0.1007
  495TIP3    H222901   1.566   6.783   5.445  1.0257  0.1795 -0.5311
  496TIP3   OH222902   6.049   2.122  16.813 -0.2090  0.0896  0.6841
  496TIP3    H122903   6.099   2.057  16.863  0.1735  0.7421  1.1559
  496TIP3    H222904   5.973   2.141  16.867 -0.8880 -0.7524  0.0585
  497TIP3   OH222905   2.996   2.575  15.725  0.4371  0.2471 -0.1840
  497TIP3    H122906   2.907   2.562  15.692 -0.1356 -1.5636  1.8468
  497TIP3    H222907   3.052   2.544  15.654 -0.4703  1.7532 -1.6478
  498TIP3   OH222908   0.071   2.320  13.534 -0.1029 -0.3429 -0.3611
  498TIP3    H122909   0.092   2.410  13.558  0.7615 -0.6188 -0.0503
  498TIP3    H222910  -0.025   2.317  13.533 -0.1669  0.8889 -1.5631
  499TIP3   OH222911   2.370   3.666  17.144  0.1544  0.3319  0.1763
  499TIP3    H122912   2.413   3.714  17.214  1.0986 -0.5575  0.2215
  499TIP3    H222913   2.413   3.697  17.064  0.4520 -0.0970  0.1681
  500TIP3   OH222914   3.932   6.632   2.146 -0.1846  0.0310 -0.6936
  500TIP3    H122915   3.994   6.569   2.183 -0.6718  0.2850  0.6175
  500TIP3    H222916   3.976   6.716   2.153 -0.0909  0.0190 -1.1364
  501TIP3   OH222917   4.792   1.439  16.407  0.0316 -0.4963 -0.0601
  501TIP3    H122918   4.745   1.368  16.452  1.0978 -1.0956  0.1383
  501TIP3    H222919   4.779   1.515  16.463  0.4391 -0.9820  0.7121
  502TIP3   OH222920   4.756   3.706  14.811  0.1198  0.0820  0.3275
  502TIP3    H122921   4.757   3.801  14.799  0.1971  0.4650  2.7174
  502TIP3    H222922   4.688   3.675  14.752  0.7759  1.4760 -1.2337
  503TIP3   OH222923   5.797   2.434  16.140  0.1073 -0.0492  0.1789
  503TIP3    H122924   5.716   2.456  16.186  0.3418  0.3944  0.3887
  503TIP3    H222925   5.770   2.373  16.071 -0.4377  0.2895  0.0899
  504TIP3   OH222926   2.513   0.009  11.462 -0.4013  0.7090  0.2387
  504TIP3    H122927   2.600  -0.028  11.477  0.8533  2.6107 -1.6722
  504TIP3    H222928   2.466  -0.059  11.413 -0.2509 -0.5739  1.8021
  505TIP3   OH222929   3.578   6.700   5.514  0.0871  0.4975  0.0392
  505TIP3    H122930   3.651   6.749   5.552 -0.0582 -0.0949  1.1194
  505TIP3    H222931   3.512   6.697   5.583 -0.8052  0.6836 -0.7873
  506TIP3   OH222932   3.854   3.100   0.044 -0.5037 -0.1754  0.3504
  506TIP3    H122933   3.827   3.141  -0.037 -0.8594  0.5044  0.8047
  506TIP3    H222934   3.937   3.056   0.023 -0.9210 -0.5470 -0.5262
  507TIP3   OH222935   1.400   6.494   4.752 -0.4914 -0.2911  0.6131
  507TIP3    H122936   1.346   6.497   4.831  0.0388 -0.7803  1.0012
  507TIP3    H222937   1.337   6.483   4.681 -0.9164 -0.6564  1.0412
  508TIP3   OH222938   3.747   0.221  11.554  0.4787  0.0239 -0.1404
  508TIP3    H122939   3.823   0.168  11.577 -0.0761 -0.7076  0.0475
  508TIP3    H222940   3.680   0.158  11.528 -0.5626  0.5281  1.1647
  509TIP3   OH222941   6.330   0.247   5.946 -0.2758  0.4355  1.0010
  509TIP3    H122942   6.268   0.248   5.873 -0.5240  2.1566  1.1868
  509TIP3    H222943   6.366   0.336   5.948  1.3964 -0.2189  1.5957
  510TIP3   OH222944   3.018   1.207  11.896 -0.8245  0.6938 -0.5287
  510TIP3    H122945   3.081   1.276  11.918 -1.6385  1.1124  0.6093
  510TIP3    H222946   3.068   1.143  11.846  1.1730 -0.1134  2.2257
  511TIP3   OH222947   6.011   1.323   5.597 -0.2291  0.0040  0.1960
  511TIP3    H122948   5.989   1.234   5.568  0.8750 -0.4587  0.7492
  511TIP3    H222949   6.050   1.364   5.520 -0.7654  0.0372 -0.0686
  512TIP3   OH222950   5.680   0.906  15.757  0.0341 -0.7542  0.4482
  512TIP3    H122951   5.626   0.895  15.836 -0.1233 -0.4443  0.3840
  512TIP3    H222952   5.709   0.997  15.759 -1.5207 -0.1643 -0.8111
  513TIP3   OH222953   3.147   6.595   4.049  0.3095  1.2629  1.1620
  513TIP3    H122954   3.205   6.531   4.089 -0.9470 -0.7486 -0.0494
  513TIP3    H222955   3.099   6.632   4.123 -1.6274 -2.0229  1.7697
  514TIP3   OH222956   3.937   5.164  10.481 -0.8804 -0.5338 -0.3169
  514TIP3    H122957   3.898   5.108  10.415 -0.5695 -2.1552  0.8125
  514TIP3    H222958   3.995   5.106  10.531  1.6233  1.3850 -0.7889
  515TIP3   OH222959   1.541   4.457  12.913  0.3033  0.4911 -0.0731
  515TIP3    H122960   1.579   4.538  12.949  2.5190 -0.3013 -0.4550
  515TIP3    H222961   1.538   4.397  12.988 -1.9953  1.0709  0.3761
  516TIP3   OH222962   1.918   5.812  11.830 -0.1810  0.6122 -0.7748
  516TIP3    H122963   1.948   5.840  11.917 -2.8479  0.3524  0.3270
  516TIP3    H222964   1.937   5.887  11.773 -0.0605  1.5403  0.4343
  517TIP3   OH222965   4.335   1.257   3.302  0.2207 -0.3695  0.5060
  517TIP3    H122966   4.353   1.345   3.334  1.2660 -0.3083 -0.1907
  517TIP3    H222967   4.414   1.232   3.254 -0.2051 -1.5422  0.3727
  518TIP3   OH222968   5.178   6.712   1.134  0.0421 -0.5552 -0.4716
  518TIP3    H122969   5.217   6.691   1.049 -1.9484  0.8141 -1.7971
  518TIP3    H222970   5.253   6.733   1.189  1.3781 -1.0544 -2.0004
  519TIP3   OH222971   2.915   1.872   0.778  0.1278 -0.0898 -0.1273
  519TIP3    H122972   2.831   1.916   0.788  1.0347  1.9870 -1.1092
  519TIP3    H222973   2.947   1.900   0.693  2.0283 -0.4618  0.4207
  520TIP3   OH222974   4.681   1.987   2.800  0.1520  0.0320  0.1515
  520TIP3    H122975   4.732   1.963   2.722  0.4933  0.8942  0.0944
  520TIP3    H222976   4.747   2.015   2.864 -0.2600  2.3927 -0.3512
  521TIP3   OH222977   5.210   0.300  16.394 -0.7096 -0.2340 -0.0943
  521TIP3    H122978   5.232   0.327  16.484 -1.7119  1.4749 -0.3082
  521TIP3    H222979   5.136   0.240  16.405 -0.1173 -0.9124  0.2648
  522TIP3   OH222980   5.026   0.679  16.692 -0.5211  0.1369  0.2604
  522TIP3    H122981   5.108   0.725  16.677 -0.1239 -0.6410  0.0139
  522TIP3    H222982   5.011   0.629  16.612 -0.6506 -0.6022  0.7366
  523TIP3   OH222983   3.253   5.888   4.865 -0.5439 -0.4947  0.2703
  523TIP3    H122984   3.285   5.809   4.821  0.9796  1.7656 -3.1890
  523TIP3    H222985   3.320   5.908   4.930  2.1929  0.7672 -2.6483
  524TIP3   OH222986   1.440   4.730   4.523 -0.1943 -0.0481 -0.3410
  524TIP3    H122987   1.432   4.825   4.520 -0.7344 -0.1151 -1.9413
  524TIP3    H222988   1.460   4.710   4.615  0.1858  1.6115 -0.0397
  525TIP3   OH222989   3.361   3.372  15.419 -0.1012 -0.4775  0.5131
  525TIP3    H122990   3.373   3.344  15.328  1.6326 -0.7414  0.7994
  525TIP3    H222991   3.277   3.333  15.445 -2.9340  3.0068 -2.2216
  526TIP3   OH222992   0.802   3.162  12.457 -0.9929  0.2429  0.0321
  526TIP3    H122993   0.804   3.239  12.400 -1.5173 -0.9187 -1.6372
  526TIP3    H222994   0.740   3.103  12.415 -0.8167 -0.9948  1.4213
  527TIP3   OH222995   2.255   3.328   4.223  0.4825  0.4588  0.7274
  527TIP3    H122996   2.346   3.336   4.252  0.7587  2.2021 -0.4287
  527TIP3    H222997   2.235   3.413   4.184 -1.7314  0.1937  1.1418
  528TIP3   OH222998   5.661   6.686  16.469  0.0164  0.1448 -0.8046
  528TIP3    H122999   5.617   6.602  16.482  0.8028 -0.5404 -2.3486
  528TIP3    H223000   5.593   6.751  16.487 -0.2691 -0.7389  1.6822
  529TIP3   OH223001   1.049   2.189   0.841  0.2105 -0.7133 -0.5340
  529TIP3    H123002   1.136   2.217   0.869  0.3476  1.8077 -3.0571
  529TIP3    H223003   1.065   2.121   0.776  0.1661 -1.5728  0.3281
  530TIP3   OH223004   0.478   1.567  13.392  0.1082  0.4076 -0.1894
  530TIP3    H123005   0.525   1.650  13.393 -0.8736  0.9676  0.5640
  530TIP3    H223006   0.451   1.553  13.483  0.4224 -0.8333 -0.2680
  531TIP3   OH223007   6.602   2.608   5.810 -0.1291 -0.1613  0.5043
  531TIP3    H123008   6.648   2.527   5.833 -2.4107 -2.0218 -1.0358
  531TIP3    H223009   6.509   2.587   5.821 -0.9765  1.1726 -2.7724
  532TIP3   OH223010   1.661   0.397  13.123 -0.4171 -0.1086  0.3435
  532TIP3    H123011   1.593   0.389  13.189  1.8498 -0.2868  2.7913
  532TIP3    H223012   1.709   0.314  13.128 -0.1644 -0.1354 -1.5860
  533TIP3   OH223013   3.057   5.936  10.938 -0.6585 -0.2178 -0.0620
  533TIP3    H123014   3.018   5.906  11.020  0.7489 -0.1686  0.6577
  533TIP3    H223015   3.072   5.857  10.888  2.7400 -0.8765  1.6919
  534TIP3   OH223016   4.724   2.272  14.528 -0.2063  0.5520  0.3263
  534TIP3    H123017   4.732   2.363  14.498  0.6112  0.1037 -0.9094
  534TIP3    H223018   4.804   2.256  14.579 -0.5229  0.6321  0.8516
  535TIP3   OH223019   4.794   5.963  14.595  0.1555 -0.1025  0.5374
  535TIP3    H123020   4.839   5.993  14.516  0.1273 -1.7005 -0.1195
  535TIP3    H223021   4.771   6.043  14.641  0.7526  0.8449 -0.7531
  536TIP3   OH223022   2.335   0.453   1.507  0.1365 -0.7101  0.0275
  536TIP3    H123023   2.334   0.399   1.428 -1.5946 -1.3970  0.4791
  536TIP3    H223024   2.363   0.394   1.577  1.7047 -0.0931 -0.0336
  537TIP3   OH223025   5.029   6.275   5.282 -0.7636  0.9189 -0.1386
  537TIP3    H123026   5.026   6.304   5.374 -0.2023  2.2273 -0.5098
  537TIP3    H223027   4.978   6.341   5.235 -0.6234  0.5322 -0.8471
  538TIP3   OH223028   5.505   0.129  12.844  0.0374  0.2199  0.0419
  538TIP3    H123029   5.471   0.147  12.756 -1.6619  0.5887  0.7199
  538TIP3    H223030   5.450   0.182  12.902  1.5949  0.5553  1.2917
  539TIP3   OH223031   1.893   0.204   2.325 -0.4097 -0.2872 -0.4323
  539TIP3    H123032   1.964   0.164   2.374 -0.1582  0.1977 -0.3955
  539TIP3    H223033   1.815   0.191   2.379 -0.7647 -2.5820 -1.3516
  540TIP3   OH223034   0.225   0.857  14.489 -0.1186 -0.5001  0.9665
  540TIP3    H123035   0.199   0.809  14.410  2.0028 -0.7252  0.3253
  540TIP3    H223036   0.148   0.856  14.545 -1.1703 -1.7655 -0.4286
  541TIP3   OH223037   2.690   2.594   1.586 -0.0323  0.2676  0.4310
  541TIP3    H123038   2.699   2.672   1.531 -1.1406  0.3782  0.3894
  541TIP3    H223039   2.760   2.536   1.556 -1.8226 -0.5603 -2.6390
  542TIP3   OH223040   2.297   0.683   5.614 -0.1024  0.6580  0.3182
  542TIP3    H123041   2.338   0.624   5.677  1.1771  1.0193 -0.1389
  542TIP3    H223042   2.297   0.633   5.532  0.0299  0.9047  0.1673
  543TIP3   OH223043   1.532   3.310  16.695  0.2451  0.6637  0.0132
  543TIP3    H123044   1.521   3.354  16.780 -0.2609  0.5957 -0.0139
  543TIP3    H223045   1.590   3.368  16.646  0.5573  0.6928  0.4137
  544TIP3   OH223046   6.006   6.538   4.702  0.6518  0.1835 -0.7862
  544TIP3    H123047   6.014   6.533   4.797  0.0639  0.3269 -0.7258
  544TIP3    H223048   5.985   6.449   4.675 -0.0251  0.3166 -0.6972
  545TIP3   OH223049   6.290   3.889  14.881  0.7501  0.9706 -0.0385
  545TIP3    H123050   6.250   3.882  14.967 -1.4036  1.0786 -0.9670
  545TIP3    H223051   6.312   3.982  14.871 -1.5503  1.5218 -0.6060
  546TIP3   OH223052   6.397   5.870  12.861 -0.1597  0.0335 -0.4082
  546TIP3    H123053   6.488   5.881  12.836 -0.6680  1.6494 -1.7075
  546TIP3    H223054   6.347   5.892  12.783 -1.7160  1.1613  0.8166
  547TIP3   OH223055   1.767   0.163  10.678 -0.4331  0.5066 -0.2988
  547TIP3    H123056   1.745   0.141  10.587 -2.2487  0.6956  0.0575
  547TIP3    H223057   1.684   0.157  10.725  0.4863  0.3193  1.3886
  548TIP3   OH223058   0.106   0.838   1.224 -0.1987 -0.6237  0.2168
  548TIP3    H123059   0.170   0.908   1.220 -0.6191 -0.1991  0.7627
  548TIP3    H223060   0.029   0.878   1.264 -1.9025 -0.2879 -3.0665
  549TIP3   OH223061   0.839   6.168  15.832  0.6149 -0.2498 -0.3048
  549TIP3    H123062   0.840   6.193  15.925 -0.0246 -0.0093 -0.3619
  549TIP3    H223063   0.904   6.098  15.826 -1.5909 -2.5530  0.9617
  550TIP3   OH223064   6.121   2.827  12.809  0.5774  0.3119  1.1470
  550TIP3    H123065   6.177   2.896  12.772 -0.5521  0.3234 -0.6973
  550TIP3    H223066   6.067   2.872  12.874  1.5517  0.6257  1.7620
  551TIP3   OH223067   4.689   0.833  14.157 -0.0958 -0.0550 -0.2244
  551TIP3    H123068   4.677   0.824  14.251  2.1288  0.0567  0.1436
  551TIP3    H223069   4.727   0.749  14.130 -0.3416  0.0625 -0.9486
  552TIP3   OH223070   4.962   4.401  16.578 -0.5746  0.2011  0.2672
  552TIP3    H123071   4.988   4.348  16.503  0.0519  2.5477 -1.2594
  552TIP3    H223072   5.041   4.406  16.632  0.2665  1.8917 -1.0460
  553TIP3   OH223073   5.817   2.689   0.131  0.1816 -0.2707  0.7356
  553TIP3    H123074   5.758   2.757   0.164 -1.8708 -1.4062 -0.3728
  553TIP3    H223075   5.855   2.726   0.052  1.2540  0.5974  1.6370
  554TIP3   OH223076   4.860   0.697  12.643 -0.1704  0.4998 -0.1244
  554TIP3    H123077   4.805   0.732  12.573  0.0463  0.8284 -0.1327
  554TIP3    H223078   4.945   0.680  12.601  0.4609  2.1897  0.3915
  555TIP3   OH223079   1.196   6.450   1.807  0.7396  0.1361 -0.4021
  555TIP3    H123080   1.160   6.380   1.861  0.5347 -0.5134 -1.3725
  555TIP3    H223081   1.284   6.420   1.784  1.4445  1.1154  0.8386
  556TIP3   OH223082   1.740   3.632   5.244 -0.2153 -1.0656 -0.0871
  556TIP3    H123083   1.703   3.705   5.293  0.8232  0.5918 -1.6593
  556TIP3    H223084   1.739   3.558   5.306  0.5215  0.7396  2.1971
  557TIP3   OH223085   2.967   6.193  14.113 -0.1441 -0.7393 -0.6322
  557TIP3    H123086   2.880   6.219  14.145  0.3306  1.1879 -0.7485
  557TIP3    H223087   3.026   6.212  14.186  0.4034 -0.2948 -1.1770
  558TIP3   OH223088   0.076   6.391  13.743 -0.1457 -0.1476 -0.2865
  558TIP3    H123089  -0.010   6.428  13.726 -0.7826 -1.0977  0.7382
  558TIP3    H223090   0.083   6.317  13.682 -1.2970 -1.8518  1.5046
  559TIP3   OH223091   0.362   1.077  11.381  0.2010 -0.6961  0.0326
  559TIP3    H123092   0.449   1.047  11.356 -0.1218 -1.7464  0.0780
  559TIP3    H223093   0.312   0.996  11.394 -0.4161 -0.1553  1.3049
  560TIP3   OH223094   5.990   0.451   2.795  0.1308  0.1098  0.3053
  560TIP3    H123095   5.983   0.494   2.880  1.4217 -0.9091  0.9751
  560TIP3    H223096   5.967   0.360   2.813 -2.8754  0.4773 -1.1422
  561TIP3   OH223097   5.668   0.982   0.599 -0.0754  0.6261 -0.8667
  561TIP3    H123098   5.588   1.031   0.615 -0.7857 -0.2523 -1.6370
  561TIP3    H223099   5.737   1.034   0.641 -1.2025  0.7287  0.9701
  562TIP3   OH223100   1.194   3.569  13.826 -0.5323  0.3353  0.3134
  562TIP3    H123101   1.267   3.630  13.814 -0.2650 -0.0161  0.1167
  562TIP3    H223102   1.236   3.486  13.849 -0.8319 -0.0116 -0.3524
  563TIP3   OH223103   1.969   1.379   3.887 -0.4174 -0.0654  0.4000
  563TIP3    H123104   1.962   1.356   3.794 -0.3751  2.4479 -0.2864
  563TIP3    H223105   2.020   1.308   3.925 -0.3470 -1.1090 -1.5049
  564TIP3   OH223106   6.676   4.949  15.861 -0.4471 -0.0171  0.7779
  564TIP3    H123107   6.696   4.909  15.946 -0.4085  0.3944  0.9634
  564TIP3    H223108   6.723   5.032  15.862 -0.6874  0.1233  0.4717
  565TIP3   OH223109   1.968   0.989  15.871  0.4585 -0.3202  0.2947
  565TIP3    H123110   1.963   1.077  15.908 -0.8808 -0.1701 -0.1953
  565TIP3    H223111   1.978   1.003  15.777 -0.6082 -0.6868  0.1215
  566TIP3   OH223112   2.963   2.209   0.641 -0.2672  0.7020 -0.4685
  566TIP3    H123113   2.915   2.230   0.560 -0.1745 -0.3231 -0.8041
  566TIP3    H223114   2.896   2.178   0.701 -0.0152 -1.1170 -1.0715
  567TIP3   OH223115   0.606   5.222   0.723  0.1549  0.3185  0.4754
  567TIP3    H123116   0.619   5.315   0.702 -0.2785 -0.0900 -1.7955
  567TIP3    H223117   0.645   5.212   0.810  1.1644  2.3972  0.3218
  568TIP3   OH223118   2.214   5.849   1.895 -0.6777 -0.0708 -0.9541
  568TIP3    H123119   2.289   5.849   1.954 -1.4693 -1.0195  0.0835
  568TIP3    H223120   2.211   5.938   1.859  0.5297  0.1642 -0.5018
  569TIP3   OH223121   3.463   3.130  12.710 -0.0545 -0.6105 -0.2758
  569TIP3    H123122   3.435   3.191  12.641  0.0080  0.3083  0.4914
  569TIP3    H223123   3.430   3.169  12.791  1.5140 -0.6589  0.4158
  570TIP3   OH223124   5.701   1.748   3.128 -0.2140 -0.8499  0.0977
  570TIP3    H123125   5.635   1.704   3.181 -0.7037  0.4559  0.6219
  570TIP3    H223126   5.692   1.709   3.041 -1.0869 -1.3069  0.3821
  571TIP3   OH223127   3.885   6.717  11.013  0.3579 -0.2906  0.2301
  571TIP3    H123128   3.953   6.653  10.992  0.6435  0.4311 -1.1884
  571TIP3    H223129   3.846   6.739  10.928  0.9599  2.1712  0.5141
  572TIP3   OH223130   5.297   1.664   5.518  0.3084  0.0404 -0.0386
  572TIP3    H123131   5.245   1.648   5.597  0.9461 -1.5409  0.0922
  572TIP3    H223132   5.384   1.631   5.540  1.1645  1.8574 -0.5641
  573TIP3   OH223133   1.611   1.197   3.664 -0.5008  0.6633  0.1832
  573TIP3    H123134   1.584   1.113   3.626 -0.6493  0.5777  0.4759
  573TIP3    H223135   1.644   1.247   3.590 -0.2503  0.2820  0.0348
  574TIP3   OH223136   3.109   2.316  14.056 -0.1460 -0.2621  0.0205
  574TIP3    H123137   3.049   2.390  14.058  1.5284  1.1555  1.8878
  574TIP3    H223138   3.083   2.261  14.130  0.8090  0.3759  0.8605
  575TIP3   OH223139   3.174   4.979   2.997 -0.0286  0.3692 -0.2477
  575TIP3    H123140   3.079   4.967   2.985 -0.0780  1.5389 -1.2385
  575TIP3    H223141   3.198   4.916   3.064 -1.4237 -0.3172 -0.3635
  576TIP3   OH223142   6.496   0.557   3.369  0.1732  0.2922  0.3643
  576TIP3    H123143   6.412   0.578   3.329 -0.7443  0.5014  2.2950
  576TIP3    H223144   6.561   0.597   3.311 -0.9430 -0.9615 -1.8632
  577TIP3   OH223145   6.239   2.544  14.791  0.2718 -0.7719  0.9288
  577TIP3    H123146   6.266   2.629  14.826 -1.4077 -0.0886  0.6737
  577TIP3    H223147   6.295   2.531  14.714 -1.1119  1.3678 -0.5556
  578TIP3   OH223148   2.192   5.097  11.223 -0.2467 -0.1152  0.1372
  578TIP3    H123149   2.206   5.101  11.128 -0.5111  0.1246  0.1078
  578TIP3    H223150   2.235   5.175  11.257 -1.6016  0.7247  0.0280
  579TIP3   OH223151   0.887   0.822  11.450 -0.5769 -0.4923  0.4497
  579TIP3    H123152   0.902   0.739  11.403  0.4212 -0.0100 -0.1323
  579TIP3    H223153   0.912   0.889  11.386 -2.1044  0.2976  0.6454
  580TIP3   OH223154   0.601   1.771  11.858  0.0111 -0.0687  0.6392
  580TIP3    H123155   0.520   1.733  11.894  0.5637 -1.2409  0.7045
  580TIP3    H223156   0.599   1.748  11.765 -1.9219  3.8458 -0.4749
  581TIP3   OH223157   5.883   5.378  17.068 -0.0223 -0.4376 -0.4369
  581TIP3    H123158   5.806   5.389  17.125 -0.8937  0.1672 -1.6954
  581TIP3    H223159   5.847   5.369  16.980  1.2225 -2.5852 -0.8097
  582TIP3   OH223160   0.311   6.680   2.943 -0.2645 -0.3157  0.1466
  582TIP3    H123161   0.240   6.673   3.007 -0.7737  1.7376 -0.1104
  582TIP3    H223162   0.268   6.666   2.859 -0.1598 -0.0729  0.0545
  583TIP3   OH223163   4.744   4.457   0.761  0.7511  0.7565  0.2338
  583TIP3    H123164   4.710   4.468   0.850  1.4780 -1.3152  0.8347
  583TIP3    H223165   4.685   4.395   0.720  0.0329  2.2024 -1.0194
  584TIP3   OH223166   5.218   0.174  11.236  0.4314  0.1566  0.3025
  584TIP3    H123167   5.179   0.253  11.198  0.8295 -0.2006 -0.8912
  584TIP3    H223168   5.253   0.127  11.161  1.1123 -0.6562  1.1199
  585TIP3   OH223169   1.952   5.619  15.781 -0.4555 -0.2874  0.0605
  585TIP3    H123170   1.909   5.643  15.700  1.0131 -0.9082 -0.9446
  585TIP3    H223171   1.944   5.524  15.786  0.4310 -0.3802  0.0316
  586TIP3   OH223172   5.430   6.113   3.301 -0.9237 -0.1214 -0.0259
  586TIP3    H123173   5.399   6.145   3.386  1.7124  1.5305  0.4161
  586TIP3    H223174   5.349   6.099   3.250 -2.6693 -2.1271  2.9623
  587TIP3   OH223175   3.190   3.497  14.770 -0.2302  0.0600 -0.0930
  587TIP3    H123176   3.166   3.447  14.692 -0.3106  0.7637 -0.5371
  587TIP3    H223177   3.108   3.539  14.797  0.3009  1.9748 -1.2421
  588TIP3   OH223178   0.918   1.384  16.525 -0.0541 -0.0185 -0.5623
  588TIP3    H123179   0.987   1.352  16.466 -1.7632 -0.4346 -2.4134
  588TIP3    H223180   0.964   1.445  16.584  1.4723  1.7731 -3.3880
  589TIP3   OH223181   2.958   0.717   2.785  0.4517 -0.5669  0.2512
  589TIP3    H123182   3.047   0.695   2.813  0.5087  0.0021  0.5355
  589TIP3    H223183   2.908   0.720   2.867  0.9862  2.8756  0.6019
  590TIP3   OH223184   4.876   6.370   0.135 -0.3974  0.3851 -0.3920
  590TIP3    H123185   4.926   6.433   0.188 -0.3489 -0.0878  0.1337
  590TIP3    H223186   4.785   6.381   0.163  0.0341 -2.8499  3.0760
  591TIP3   OH223187   2.942   5.034  16.084  0.4124 -0.1756 -0.0258
  591TIP3    H123188   3.031   5.057  16.056  0.0530  0.2348 -0.8575
  591TIP3    H223189   2.949   4.944  16.114  0.8668 -0.5683 -1.2523
  592TIP3   OH223190   0.648   5.556  13.212 -0.3709  0.0862  1.2298
  592TIP3    H123191   0.736   5.569  13.176 -0.1369  0.9417  2.0437
  592TIP3    H223192   0.612   5.645  13.219 -1.1300 -0.2219  1.3185
  593TIP3   OH223193   5.160   6.212   6.054 -0.1168 -0.1910  0.2317
  593TIP3    H123194   5.157   6.120   6.081 -1.4676  0.5947  3.1628
  593TIP3    H223195   5.081   6.251   6.091  0.3657  2.1555 -1.0023
  594TIP3   OH223196   4.728   0.191   2.182 -0.1329 -0.1456  0.6332
  594TIP3    H123197   4.651   0.140   2.206  0.6858 -0.7941  1.9853
  594TIP3    H223198   4.750   0.240   2.260  0.7304  0.1667  0.2071
  595TIP3   OH223199   2.700   6.135   0.020  0.2397  0.1577  0.1589
  595TIP3    H123200   2.729   6.145  -0.071 -0.8579 -1.2051 -0.3761
  595TIP3    H223201   2.750   6.060   0.052 -0.7603 -0.5698  0.0500
  596TIP3   OH223202   4.386   3.681  14.042 -0.7876  0.2231 -0.6797
  596TIP3    H123203   4.376   3.680  14.137  0.1252  0.8300 -0.5628
  596TIP3    H223204   4.393   3.588  14.018 -0.1262  0.0949 -0.0399
  597TIP3   OH223205   6.388   2.214  14.689 -0.0950 -0.2377 -0.5670
  597TIP3    H123206   6.409   2.172  14.606 -0.0116 -2.4174  0.4960
  597TIP3    H223207   6.463   2.272  14.705  1.0673 -1.5811 -0.8956
  598TIP3   OH223208   6.593   5.052  16.494 -0.7788 -0.2830  0.1777
  598TIP3    H123209   6.572   5.037  16.587 -0.2464 -2.1962  0.0248
  598TIP3    H223210   6.539   4.989  16.447 -0.2927 -0.0025 -0.7668
  599TIP3   OH223211   1.471   4.113  11.440 -0.7001 -0.0065  0.3155
  599TIP3    H123212   1.376   4.114  11.440 -0.7702 -2.1185  0.2556
  599TIP3    H223213   1.496   4.186  11.497 -2.2773  1.5368 -0.8745
  600TIP3   OH223214   4.536   4.209  10.210  0.3330 -0.0113 -0.3561
  600TIP3    H123215   4.591   4.206  10.289  0.4707  0.5540 -0.4185
  600TIP3    H223216   4.448   4.226  10.243  0.4089  0.3382 -0.3234
  601TIP3   OH223217   6.490   5.208   0.975 -0.0348  0.1943 -0.3008
  601TIP3    H123218   6.439   5.285   0.949 -0.5046  0.1159  0.3586
  601TIP3    H223219   6.581   5.238   0.971 -0.2083  0.7653 -0.1397
  602TIP3   OH223220   2.717   2.991  16.389 -0.2591  0.3184  0.4234
  602TIP3    H123221   2.811   2.996  16.372 -0.5491  0.9940 -1.0666
  602TIP3    H223222   2.709   3.017  16.481  1.1096 -0.9023  0.9261
  603TIP3   OH223223   0.383   6.140  15.457  0.1856 -0.5247  0.4595
  603TIP3    H123224   0.321   6.091  15.511 -0.3015 -0.0411  0.3527
  603TIP3    H223225   0.469   6.118  15.493 -0.1159 -0.4018  1.2688
  604TIP3   OH223226   5.400   1.084   4.114  0.6704  0.6474  0.5789
  604TIP3    H123227   5.432   1.165   4.154  1.3111 -0.2071  1.8571
  604TIP3    H223228   5.469   1.060   4.051 -0.2202  1.8554 -0.9422
  605TIP3   OH223229   2.445   1.713  16.082 -0.0753  0.5997  0.0142
  605TIP3    H123230   2.486   1.671  16.157  0.1280  0.1148 -0.3572
  605TIP3    H223231   2.458   1.650  16.010  0.4076  1.3910 -0.6010
  606TIP3   OH223232   3.964   3.463  11.267 -0.1116  0.0955 -0.1979
  606TIP3    H123233   3.972   3.489  11.175 -0.9884 -0.4171 -0.4186
  606TIP3    H223234   3.925   3.539  11.310 -2.1043 -0.5795 -0.7341
  607TIP3   OH223235   0.511   0.834   1.713 -0.7269 -0.0281 -0.2262
  607TIP3    H123236   0.569   0.905   1.685 -0.7935  0.0650 -0.1326
  607TIP3    H223237   0.553   0.799   1.792 -1.0023  0.2997  0.0664
  608TIP3   OH223238   5.072   2.733  10.612  0.2628 -0.0682  0.2649
  608TIP3    H123239   5.078   2.744  10.517  0.6160  2.8811  0.5228
  608TIP3    H223240   5.007   2.798  10.639 -0.1327 -1.1429  2.0317
  609TIP3   OH223241   6.684   0.658   3.196 -0.0200  0.1043  0.2632
  609TIP3    H123242   6.691   0.713   3.118 -1.6515  0.1919  0.1312
  609TIP3    H223243   6.722   0.711   3.266 -0.4326  0.8932 -0.0927
  610TIP3   OH223244   6.320   1.545  15.292 -0.4541 -0.1118 -0.1805
  610TIP3    H123245   6.258   1.595  15.346  1.6973 -1.0350  3.5271
  610TIP3    H223246   6.388   1.608  15.270  1.2292 -0.7055  2.7679
  611TIP3   OH223247   4.981   4.767  15.017  0.4413 -0.3084  0.2146
  611TIP3    H123248   4.998   4.822  14.941  0.3581  0.1387  0.5144
  611TIP3    H223249   5.028   4.685  14.999  0.2565 -0.2830 -0.4040
  612TIP3   OH223250   6.212   2.801  13.624 -0.5711  0.1723 -0.0196
  612TIP3    H123251   6.293   2.751  13.610 -0.4104  0.6980 -1.0624
  612TIP3    H223252   6.188   2.832  13.537 -1.5877  0.5096  0.3684
  613TIP3   OH223253   4.645   1.715  14.470 -0.5159  0.1181 -0.6268
  613TIP3    H123254   4.680   1.774  14.537  0.0243  1.4885 -2.0502
  613TIP3    H223255   4.569   1.674  14.511  0.7183 -0.3053  1.3536
  614TIP3   OH223256   5.772   1.662  12.359 -0.3053  0.4163  0.5701
  614TIP3    H123257   5.756   1.590  12.298 -2.1619  0.3536  1.0739
  614TIP3    H223258   5.828   1.625  12.427 -2.4306 -1.0649  1.6287
  615TIP3   OH223259   2.164   1.829   2.440 -0.5148  0.5470 -0.1810
  615TIP3    H123260   2.083   1.880   2.439 -0.3880  0.8356  1.6345
  615TIP3    H223261   2.214   1.865   2.513  0.2150 -1.2050  0.2375
  616TIP3   OH223262   1.613   0.178  12.760 -0.5926  0.1164  0.0205
  616TIP3    H123263   1.622   0.199  12.667 -0.7007 -1.4186 -0.3625
  616TIP3    H223264   1.525   0.210  12.784 -0.5071  0.6404 -0.3598
  617TIP3   OH223265   3.508   6.553  12.711  0.7798  0.4506  0.3668
  617TIP3    H123266   3.492   6.625  12.650  1.3576 -0.6406 -1.1481
  617TIP3    H223267   3.589   6.513  12.680 -0.1169 -1.5553  0.4534
  618TIP3   OH223268   1.187   2.939   4.722  0.4567 -0.6878 -0.4821
  618TIP3    H123269   1.277   2.956   4.694  0.4565  0.5157  0.1920
  618TIP3    H223270   1.197   2.890   4.804  0.4721 -1.5463 -0.9808
  619TIP3   OH223271   0.585   5.876   3.300  0.3746  0.1105 -0.6984
  619TIP3    H123272   0.558   5.950   3.246 -1.4048  1.1532  1.4332
  619TIP3    H223273   0.611   5.808   3.238 -0.7834  1.4730 -2.7903
  620TIP3   OH223274   1.741   2.382   2.597 -0.2482  0.4926  0.0392
  620TIP3    H123275   1.710   2.312   2.654 -0.4460  0.6512  0.1318
  620TIP3    H223276   1.735   2.461   2.652  1.2605  0.3923  0.3900
  621TIP3   OH223277   6.192   1.316   0.087  0.2120 -0.2881 -0.0824
  621TIP3    H123278   6.131   1.314   0.013 -0.3196 -1.0997  0.3632
  621TIP3    H223279   6.226   1.227   0.092 -0.3650 -0.4559  1.1336
  622TIP3   OH223280   3.919   3.803  16.485 -0.0367 -0.3211 -0.0968
  622TIP3    H123281   3.920   3.799  16.580  1.4868  1.5891  0.0397
  622TIP3    H223282   3.831   3.774  16.460 -0.8364  0.2040  1.9530
  623TIP3   OH223283   0.503   6.204   4.770 -0.3949  0.2785  0.4645
  623TIP3    H123284   0.484   6.179   4.860 -1.1769 -1.0269 -0.0383
  623TIP3    H223285   0.588   6.248   4.775 -0.9668  1.2712  1.9858
  624TIP3   OH223286   4.626   6.258   5.860 -0.7257 -0.2208  0.2676
  624TIP3    H123287   4.556   6.282   5.920 -0.8331 -0.9576  0.4475
  624TIP3    H223288   4.604   6.168   5.833 -0.0007 -0.3525  0.1128
  625TIP3   OH223289   1.831   3.480   5.036  0.3932  0.2660 -0.2458
  625TIP3    H123290   1.927   3.485   5.036  0.5637 -1.8126  0.8948
  625TIP3    H223291   1.807   3.502   5.126 -0.1254 -0.2349 -0.2631
  626TIP3   OH223292   4.202   0.859  13.346  0.2013  0.0438 -0.2242
  626TIP3    H123293   4.238   0.809  13.419  1.4060 -0.4628 -1.1386
  626TIP3    H223294   4.163   0.937  13.386 -0.7988 -1.1067  1.1204
  627TIP3   OH223295   0.856   4.758   1.464  0.5747 -0.7095 -0.3014
  627TIP3    H123296   0.850   4.824   1.534  0.3814 -1.3214  0.2681
  627TIP3    H223297   0.946   4.726   1.469 -0.0538 -2.3693  1.1830
  628TIP3   OH223298   5.601   3.716  15.953 -0.7025 -0.0035  0.5011
  628TIP3    H123299   5.566   3.693  15.867 -0.2342  2.1635 -0.3345
  628TIP3    H223300   5.696   3.715  15.942 -0.6390  2.2253  0.3570
  629TIP3   OH223301   2.594   2.155  15.489 -0.1556  0.1897  0.9180
  629TIP3    H123302   2.539   2.107  15.551  0.3765  0.8355  1.9105
  629TIP3    H223303   2.556   2.243  15.486 -0.0182  0.2386  0.5087
  630TIP3   OH223304   5.480   5.132  14.755 -0.3867  0.1028  0.0100
  630TIP3    H123305   5.493   5.140  14.660 -1.2051 -0.4001 -0.1521
  630TIP3    H223306   5.501   5.041  14.774  0.0990  0.2876  0.3743
  631TIP3   OH223307   3.210   6.572   1.899 -0.2902  0.5325 -0.1188
  631TIP3    H123308   3.301   6.567   1.929 -0.2003  1.0256 -0.3000
  631TIP3    H223309   3.161   6.517   1.961 -0.1051  1.5199  0.9462
  632TIP3   OH223310   5.887   2.581   2.935 -0.5342 -0.5837 -0.5416
  632TIP3    H123311   5.917   2.633   2.860  0.5423 -2.4400 -1.4515
  632TIP3    H223312   5.868   2.495   2.898 -0.9039 -1.2584  1.1693
  633TIP3   OH223313   2.759   4.673   1.241 -0.6526  1.0138  0.1467
  633TIP3    H123314   2.710   4.694   1.320  0.5267  0.8712  0.9505
  633TIP3    H223315   2.833   4.735   1.242 -1.5962  2.2916 -1.8508
  634TIP3   OH223316   4.680   2.838  11.142  0.3464  0.6983 -0.0876
  634TIP3    H123317   4.724   2.842  11.227 -0.3456 -0.9059  0.3771
  634TIP3    H223318   4.654   2.929  11.125 -0.1627  0.9434  1.7780
  635TIP3   OH223319   4.679   3.143   3.768 -0.1082 -0.2998 -0.4348
  635TIP3    H123320   4.625   3.076   3.810 -0.1963  1.0948  1.8276
  635TIP3    H223321   4.640   3.154   3.681 -1.8121 -1.1988  0.1682
  636TIP3   OH223322   5.991   4.638   3.337 -0.0699 -0.4055 -0.2327
  636TIP3    H123323   5.949   4.670   3.257 -2.2789 -1.2805  0.5033
  636TIP3    H223324   6.053   4.708   3.361  0.2171  0.1254 -2.3563
  637TIP3   OH223325   3.699   0.237  14.960  0.1078 -0.4416  0.0119
  637TIP3    H123326   3.635   0.190  14.906  1.4240  0.2307 -2.2960
  637TIP3    H223327   3.667   0.328  14.962 -0.7532 -0.7484  1.7606
  638TIP3   OH223328   2.416   1.222   0.222 -0.0700  0.0910  1.1250
  638TIP3    H123329   2.357   1.243   0.296  1.9719  0.1215  2.8431
  638TIP3    H223330   2.449   1.308   0.195 -0.5339  0.0418  0.3873
  639TIP3   OH223331   4.045   0.768   5.890 -0.3814  0.3604  0.1552
  639TIP3    H123332   4.120   0.801   5.939  0.5314 -1.0135 -0.2632
  639TIP3    H223333   4.006   0.702   5.947  0.4457 -0.9591 -0.7583
  640TIP3   OH223334   0.305   0.057   0.654 -0.1180 -1.0714  0.1073
  640TIP3    H123335   0.231   0.117   0.662  0.0028 -0.7111 -1.2174
  640TIP3    H223336   0.287  -0.013   0.717 -1.6816 -1.1100 -0.3510
  641TIP3   OH223337   3.791   5.586   2.563  0.5744 -0.3299 -0.3080
  641TIP3    H123338   3.874   5.634   2.560 -0.0787  0.7772 -1.4595
  641TIP3    H223339   3.736   5.628   2.497  0.1014 -2.9594 -1.7464
  642TIP3   OH223340   3.646   4.206  14.795 -0.7709  0.0395  0.4897
  642TIP3    H123341   3.573   4.266  14.775 -0.2542  0.4341 -0.2620
  642TIP3    H223342   3.708   4.219  14.723 -0.5409 -1.2427  0.4402
  643TIP3   OH223343   4.910   1.628  14.765  0.4676  0.0051  0.1021
  643TIP3    H123344   4.919   1.553  14.706  1.0554 -0.4193  0.7153
  643TIP3    H223345   4.837   1.605  14.823  0.6305 -0.0849  0.2731
  644TIP3   OH223346   0.389   5.851  12.194 -0.6325 -0.1007  0.1839
  644TIP3    H123347   0.443   5.832  12.270  0.7707  2.6284 -0.0127
  644TIP3    H223348   0.439   5.815  12.120  0.3361  1.2180  0.1498
  645TIP3   OH223349   5.760   0.181  13.281 -0.2636 -0.1735 -0.2578
  645TIP3    H123350   5.793   0.262  13.320  0.2305 -0.1567 -0.7090
  645TIP3    H223351   5.683   0.208  13.232 -1.4177 -0.3176  1.3727
  646TIP3   OH223352   0.112   1.241   5.491  0.3682 -0.0448 -0.3715
  646TIP3    H123353   0.167   1.265   5.565  0.4714 -2.3385  0.3765
  646TIP3    H223354   0.163   1.269   5.414  0.9972  0.9037  0.3591
  647TIP3   OH223355   0.404   5.638  13.820  0.3622 -0.1416  0.2612
  647TIP3    H123356   0.328   5.687  13.852 -0.2003 -1.4025  0.9445
  647TIP3    H223357   0.385   5.547  13.845  2.1064 -0.4739  0.4672
  648TIP3   OH223358   5.617   0.747   4.480  0.4173  0.4869 -0.1505
  648TIP3    H123359   5.655   0.767   4.565 -0.5546 -1.4507  0.8005
  648TIP3    H223360   5.690   0.710   4.430  0.6781  0.3638  0.3149
  649TIP3   OH223361   4.161   1.039  11.579 -0.2297  0.4206 -0.0111
  649TIP3    H123362   4.195   1.046  11.489 -0.4275 -0.5551 -0.1801
  649TIP3    H223363   4.159   0.944  11.596  1.4935  0.6326  1.6871
  650TIP3   OH223364   5.936   1.276   3.294  0.0345 -0.1613 -0.3138
  650TIP3    H123365   5.972   1.347   3.241  0.4427  1.1450  1.6330
  650TIP3    H223366   6.012   1.229   3.326 -0.1148  0.1741  0.5653
  651TIP3   OH223367   1.920   0.421   5.936 -0.9866  0.2195 -0.1215
  651TIP3    H123368   1.845   0.424   5.995 -0.6152  0.6796  0.3430
  651TIP3    H223369   1.941   0.513   5.919 -0.8707  0.0925 -0.6971
  652TIP3   OH223370   0.975   0.241   5.426 -0.9494 -0.4920 -0.2928
  652TIP3    H123371   0.888   0.214   5.455 -1.4813 -0.1158 -1.4740
  652TIP3    H223372   1.030   0.164   5.439 -1.0688 -0.2877  1.8936
  653TIP3   OH223373   1.095   4.278  14.346 -0.0619 -0.0867  0.1386
  653TIP3    H123374   1.083   4.184  14.359  1.7664 -0.3842 -0.1015
  653TIP3    H223375   1.122   4.287  14.254 -0.9229  0.7567 -0.0514
  654TIP3   OH223376   3.308   2.959  15.573  0.2064  0.0092 -0.7068
  654TIP3    H123377   3.334   2.911  15.495  1.0250 -1.3431  0.3693
  654TIP3    H223378   3.390   2.975  15.620 -0.4708 -0.9495  0.8532
  655TIP3   OH223379   1.014   1.047  14.979 -0.1241  0.4048  0.0766
  655TIP3    H123380   0.942   1.061  14.918  0.3900  0.6063 -0.4971
  655TIP3    H223381   1.081   1.110  14.952  0.8203 -0.7191 -0.2910
  656TIP3   OH223382   4.803   6.230  14.093  0.6045 -0.1286 -0.4523
  656TIP3    H123383   4.715   6.212  14.058  0.8051 -2.5273  0.1124
  656TIP3    H223384   4.849   6.273  14.021 -0.5977 -0.1074 -1.2475
  657TIP3   OH223385   2.273   5.613   2.147  0.3456  0.7489  0.5624
  657TIP3    H123386   2.258   5.706   2.133  1.9267  0.8233 -1.0387
  657TIP3    H223387   2.289   5.578   2.059 -1.6280 -1.3475  0.9411
  658TIP3   OH223388   6.155   5.322   5.991 -0.3349 -0.1345  0.0534
  658TIP3    H123389   6.143   5.398   6.048  1.5186 -0.7448  1.3587
  658TIP3    H223390   6.192   5.255   6.048 -1.3871 -1.8697 -1.1842
  659TIP3   OH223391   0.811   4.608  16.365  0.4593 -0.6934 -0.5614
  659TIP3    H123392   0.828   4.545  16.435  0.2636 -0.3666 -0.2197
  659TIP3    H223393   0.869   4.580  16.294  2.9296  0.7366  0.7508
  660TIP3   OH223394   1.399   3.615   5.656 -0.2581 -0.5185  1.0438
  660TIP3    H123395   1.417   3.700   5.617 -1.0860 -1.0552 -0.6050
  660TIP3    H223396   1.347   3.634   5.734 -0.2791  0.4913  0.7920
  661TIP3   OH223397   3.411   0.506   3.813 -0.2469 -0.0647  0.0001
  661TIP3    H123398   3.494   0.549   3.789  0.2908 -0.2855  1.3661
  661TIP3    H223399   3.347   0.577   3.816 -0.3026  0.0077 -1.7815
  662TIP3   OH223400   1.207   3.013   5.588  0.0175  0.2672  0.0182
  662TIP3    H123401   1.232   2.992   5.678 -0.9614  0.5035  0.3624
  662TIP3    H223402   1.226   3.106   5.578  0.9774  0.0381 -0.3220
  663TIP3   OH223403   4.774   4.655  15.215 -0.2237  0.1456 -0.0781
  663TIP3    H123404   4.730   4.740  15.206  1.9203  1.3004 -0.4500
  663TIP3    H223405   4.850   4.662  15.156 -0.0363 -2.0819 -0.1630
  664TIP3   OH223406   4.026   1.027   5.831  0.1029 -0.3075  0.0258
  664TIP3    H123407   3.980   1.049   5.912  1.3190  1.7390  0.2103
  664TIP3    H223408   4.032   0.932   5.833 -1.3260 -0.4252  1.5133
  665TIP3   OH223409   1.427   1.553  16.491 -0.0794  0.2220 -0.3871
  665TIP3    H123410   1.358   1.514  16.438 -1.1984  0.2951  0.9685
  665TIP3    H223411   1.508   1.526  16.448 -0.8071 -2.8373 -0.0979
  666TIP3   OH223412   1.692   2.284  12.198  0.3243  0.3111 -0.3378
  666TIP3    H123413   1.782   2.263  12.221  0.6474  1.6135 -0.2915
  666TIP3    H223414   1.699   2.334  12.117 -0.4133 -0.1104 -0.6761
  667TIP3   OH223415   6.752   3.825  17.117  0.3928 -0.2293 -0.3399
  667TIP3    H123416   6.792   3.895  17.066  0.1317  0.0244 -0.2029
  667TIP3    H223417   6.749   3.750  17.059 -0.1794  0.1409 -0.8042
  668TIP3   OH223418   1.761   4.394  16.504 -0.3193 -0.1597 -0.1755
  668TIP3    H123419   1.841   4.441  16.526 -0.5669  0.5362 -0.7044
  668TIP3    H223420   1.787   4.333  16.435  0.0375 -0.9216  0.6269
  669TIP3   OH223421   2.484   1.958   4.823  0.4010 -0.0739  0.0897
  669TIP3    H123422   2.490   2.026   4.891 -2.6679  0.9420 -0.4930
  669TIP3    H223423   2.436   1.886   4.866  1.9676 -1.1443  0.1271
  670TIP3   OH223424   1.065   0.311   3.842 -0.4428  0.0698  0.0312
  670TIP3    H123425   1.007   0.284   3.913 -1.9329  0.3086 -1.0424
  670TIP3    H223426   1.017   0.289   3.762  0.5630  1.1196 -0.9014
  671TIP3   OH223427   3.471   1.333  15.586  0.4730  0.5125  0.3739
  671TIP3    H123428   3.555   1.288  15.590  0.4171  0.3644 -0.1315
  671TIP3    H223429   3.406   1.265  15.606  0.4016  0.3960 -0.2256
  672TIP3   OH223430   6.723   3.713  15.828  0.3123 -0.4299 -0.2389
  672TIP3    H123431   6.729   3.637  15.885  0.4312 -1.3759 -1.4547
  672TIP3    H223432   6.632   3.741  15.834  0.2883 -0.6085  0.2848
  673TIP3   OH223433   6.467   0.284   2.056  0.5556  0.2429  0.2569
  673TIP3    H123434   6.477   0.211   2.118 -0.0595  0.9060  1.1811
  673TIP3    H223435   6.553   0.293   2.015  0.2119 -2.0861 -1.1651
  674TIP3   OH223436   2.414   0.080  16.507 -0.0391  0.1715 -0.1855
  674TIP3    H123437   2.427   0.108  16.597 -1.1306  1.8846 -0.5281
  674TIP3    H223438   2.403  -0.015  16.513 -0.6192  0.3165  1.5451
  675TIP3   OH223439   3.186   5.991   1.723  0.3859  0.5312 -0.7878
  675TIP3    H123440   3.135   5.991   1.642  1.5771  0.2579 -1.5537
  675TIP3    H223441   3.179   6.080   1.756 -2.6134 -0.0360  0.4760
  676TIP3   OH223442   4.393   0.448  14.834 -0.4028 -1.0417  0.6778
  676TIP3    H123443   4.394   0.423  14.742 -1.3047 -1.0150  0.6527
  676TIP3    H223444   4.476   0.495  14.847 -0.0446 -1.4756  0.0108
  677TIP3   OH223445   6.085   5.972   2.005 -0.6076 -0.0039  0.5676
  677TIP3    H123446   6.037   5.921   2.070 -1.5822  0.3509  0.1523
  677TIP3    H223447   6.019   6.031   1.968  0.7358  2.5428  1.9725
  678TIP3   OH223448   5.113   6.116   0.464  0.3167  0.5290 -0.3883
  678TIP3    H123449   5.130   6.142   0.374 -3.2712  1.5664 -0.9440
  678TIP3    H223450   5.107   6.020   0.462  0.3532  0.5435 -1.2440
  679TIP3   OH223451   3.414   0.846  11.460 -0.0642  0.3233  1.0548
  679TIP3    H123452   3.368   0.928  11.476 -0.4098  0.5712 -0.8939
  679TIP3    H223453   3.408   0.834  11.365  1.9359 -0.8050  1.0207
  680TIP3   OH223454   5.937   5.568  11.230 -1.1687 -0.5078  0.2032
  680TIP3    H123455   6.024   5.601  11.208 -0.8713  0.0058  1.9869
  680TIP3    H223456   5.919   5.502  11.164  0.0182  0.2826 -0.9719
  681TIP3   OH223457   3.656   3.231   2.449 -0.3505  0.3041 -0.4521
  681TIP3    H123458   3.677   3.323   2.463 -2.3806  0.7063  0.3227
  681TIP3    H223459   3.739   3.191   2.424  0.4940  2.4108 -1.2401
  682TIP3   OH223460   4.376   3.687   0.552 -0.0758  0.2782 -0.2620
  682TIP3    H123461   4.374   3.600   0.591 -0.3193  0.2573 -0.3195
  682TIP3    H223462   4.317   3.681   0.477 -0.4578  0.6192  0.0051
  683TIP3   OH223463   2.026   3.869  13.137  0.1461 -0.6325  0.1159
  683TIP3    H123464   2.070   3.847  13.055  1.1919  1.1935  0.1238
  683TIP3    H223465   2.095   3.906  13.192 -1.1521  1.3147  0.5374
  684TIP3   OH223466   3.466   2.875   5.142  0.2487 -0.7501 -0.0776
  684TIP3    H123467   3.536   2.844   5.200 -0.3869  0.4510  1.4215
  684TIP3    H223468   3.386   2.863   5.194 -0.4780 -0.5949 -1.1288
  685TIP3   OH223469   3.208   0.856   4.838 -0.3385 -0.3701  0.1786
  685TIP3    H123470   3.137   0.906   4.878 -0.4278 -1.1627  1.0360
  685TIP3    H223471   3.282   0.916   4.837 -1.0514  0.5350 -0.9111
  686TIP3   OH223472   1.288   6.160  12.703 -0.1885 -0.1186 -0.3165
  686TIP3    H123473   1.212   6.206  12.740 -0.3715 -0.0228 -0.8134
  686TIP3    H223474   1.258   6.070  12.691 -0.3660  0.0193 -0.9271
  687TIP3   OH223475   5.777   0.122   0.224 -0.5261 -0.6490 -0.7175
  687TIP3    H123476   5.701   0.141   0.279  0.1015 -0.8870  0.2344
  687TIP3    H223477   5.793   0.028   0.237 -0.8955 -0.9075 -1.9753
  688TIP3   OH223478   5.814   5.086   2.678  0.0686 -0.1664  0.5359
  688TIP3    H123479   5.742   5.039   2.637 -0.9864  0.7038  1.3038
  688TIP3    H223480   5.869   5.115   2.606 -1.5788  1.0877 -0.2857
  689TIP3   OH223481   6.446   2.108  13.863  0.2901 -0.3394  0.1254
  689TIP3    H123482   6.514   2.044  13.883  0.1658 -0.1598  1.1758
  689TIP3    H223483   6.364   2.065  13.886  0.1307 -0.1548 -0.0910
  690TIP3   OH223484   3.525   5.733  14.899 -0.4056 -0.6751 -0.4655
  690TIP3    H123485   3.607   5.758  14.942 -1.8697  0.9270  1.5759
  690TIP3    H223486   3.501   5.809  14.847 -1.0135 -0.8058 -0.3806
  691TIP3   OH223487   2.601   6.701   4.706 -0.0101  0.1602  0.2213
  691TIP3    H123488   2.532   6.742   4.654  0.6704  2.6289  1.0782
  691TIP3    H223489   2.565   6.617   4.732 -1.8803  0.5057 -1.0043
  692TIP3   OH223490   3.692   0.752   1.535 -0.2323 -0.0032 -0.3361
  692TIP3    H123491   3.668   0.676   1.589  0.5087 -0.3663 -0.4981
  692TIP3    H223492   3.644   0.740   1.453 -2.2792  1.1485  0.6164
  693TIP3   OH223493   5.324   0.319   3.104 -0.1489  0.3869 -0.2318
  693TIP3    H123494   5.334   0.235   3.150 -1.5760  0.4897  0.3137
  693TIP3    H223495   5.408   0.364   3.117 -0.3146  0.1933  1.8195
  694TIP3   OH223496   0.369   3.723  10.723 -0.2351 -0.3564 -0.5148
  694TIP3    H123497   0.357   3.732  10.628 -1.0454  2.4015 -0.2408
  694TIP3    H223498   0.417   3.802  10.748 -0.1073 -1.0087  1.3975
  695TIP3   OH223499   1.124   2.143  15.341 -0.4438  0.0700 -0.4975
  695TIP3    H123500   1.130   2.048  15.339 -1.6825 -0.0027 -1.3747
  695TIP3    H223501   1.197   2.172  15.286  0.7747 -0.2847  0.8359
  696TIP3   OH223502   4.709   2.370   1.433  0.1589  0.3765  0.3390
  696TIP3    H123503   4.639   2.337   1.490 -0.4704  0.3995 -0.4162
  696TIP3    H223504   4.762   2.425   1.491  0.4492 -0.8748  1.2846
  697TIP3   OH223505   4.657   0.115  13.315 -0.3023 -0.5714 -0.1845
  697TIP3    H123506   4.615   0.071  13.241  0.9934 -1.9939 -0.1370
  697TIP3    H223507   4.748   0.126  13.287 -0.4639  1.7048  0.0151
  698TIP3   OH223508   6.686   5.694   1.332 -0.1516 -0.2716 -0.7834
  698TIP3    H123509   6.596   5.704   1.363  0.6061  0.4699  1.2996
  698TIP3    H223510   6.718   5.783   1.319  0.5567 -0.5106 -0.7226
  699TIP3   OH223511   1.123   3.145   3.770 -0.0761 -0.3337 -0.1058
  699TIP3    H123512   1.094   3.165   3.682  1.9595 -1.4797 -1.1170
  699TIP3    H223513   1.044   3.117   3.816 -1.0575 -0.4182 -1.7827
  700TIP3   OH223514   4.310   0.563   4.765  0.2638  0.4817  0.2050
  700TIP3    H123515   4.244   0.530   4.827 -0.1577  0.2729 -0.3448
  700TIP3    H223516   4.273   0.644   4.731  0.2842  0.3505 -0.1273
  701TIP3   OH223517   0.931   3.566   2.125  0.0360  0.6740  0.6482
  701TIP3    H123518   0.864   3.497   2.119  1.0819 -0.4487  1.3817
  701TIP3    H223519   0.993   3.545   2.056 -0.2859  1.6465  0.0478
  702TIP3   OH223520   0.959   5.946   4.610 -0.1475 -0.3702 -0.0869
  702TIP3    H123521   1.021   5.968   4.679 -0.1752  0.2614 -0.2549
  702TIP3    H223522   0.911   5.870   4.644 -0.3409  0.0906  0.6990
  703TIP3   OH223523   4.471   6.173  10.876  0.1330 -0.0005 -0.2867
  703TIP3    H123524   4.467   6.222  10.794 -0.2737 -0.1823 -0.3739
  703TIP3    H223525   4.565   6.161  10.892  0.2887  1.7169  0.2791
  704TIP3   OH223526   2.567   2.659  10.282 -0.2650 -0.0017  0.7033
  704TIP3    H123527   2.640   2.669  10.343  0.6187 -3.2999  0.4205
  704TIP3    H223528   2.514   2.589  10.320 -0.7422 -0.8125 -1.3206
  705TIP3   OH223529   2.374   6.209  17.173  0.2987  0.0904 -0.0981
  705TIP3    H123530   2.428   6.150  17.227 -0.3920 -1.2375 -0.8113
  705TIP3    H223531   2.433   6.239  17.104 -0.1379 -2.5429 -1.7697
  706TIP3   OH223532   1.334   0.263   3.994  0.0415  0.1060  0.2907
  706TIP3    H123533   1.261   0.278   3.933 -0.5495  0.9454  1.1727
  706TIP3    H223534   1.305   0.303   4.076  0.4313 -1.7928  1.4127
  707TIP3   OH223535   5.029   4.761  15.330 -0.0655 -0.6374  0.3131
  707TIP3    H123536   4.966   4.709  15.380 -1.5026 -0.2797 -1.0291
  707TIP3    H223537   4.979   4.837  15.301  1.2455  0.0965 -0.0903
  708TIP3   OH223538   5.840   1.420   2.762  0.0895 -0.4260 -0.0982
  708TIP3    H123539   5.824   1.352   2.828  0.2688 -1.2477 -0.8720
  708TIP3    H223540   5.887   1.374   2.692 -1.2716  0.0915 -1.4113
  709TIP3   OH223541   4.295   5.860  11.354  0.2392 -0.5049  0.3461
  709TIP3    H123542   4.335   5.806  11.422  0.5887 -1.9107 -0.9122
  709TIP3    H223543   4.212   5.889  11.392  0.2583 -1.5549  1.2427
  710TIP3   OH223544   2.978   5.919   4.959  0.0063 -0.1944  0.2736
  710TIP3    H123545   3.072   5.913   4.940  0.0449 -0.3292  0.5088
  710TIP3    H223546   2.938   5.857   4.898 -0.0577  0.8349 -0.7521
  711TIP3   OH223547   3.417   1.353   3.284  0.0751  0.2255 -0.8577
  711TIP3    H123548   3.405   1.448   3.288  1.5186  0.4019  0.5531
  711TIP3    H223549   3.502   1.342   3.242 -0.1713 -0.4494 -1.1808
  712TIP3   OH223550   0.058   3.942  14.526 -0.7254 -0.5984  0.2030
  712TIP3    H123551   0.059   3.967  14.434  0.1489  1.2298  0.6748
  712TIP3    H223552   0.149   3.916  14.545 -0.8292 -0.6554  0.6401
  713TIP3   OH223553   5.243   1.134  11.037 -0.1802  0.2582  0.7687
  713TIP3    H123554   5.273   1.092  11.118 -0.5614  0.7693  1.1778
  713TIP3    H223555   5.322   1.143  10.984  0.5564  2.1065  2.0643
  714TIP3   OH223556   5.474   0.929   1.770  0.4348 -0.1352  0.5964
  714TIP3    H123557   5.559   0.899   1.801 -1.1030 -3.4431  2.0727
  714TIP3    H223558   5.418   0.930   1.848 -1.3488  0.0933 -0.6172
  715TIP3   OH223559   3.667   1.886   4.052  0.1747 -0.3891  0.4720
  715TIP3    H123560   3.601   1.865   3.986  0.0659 -0.5640  0.6364
  715TIP3    H223561   3.746   1.905   4.000  0.0069 -0.2129  0.2788
  716TIP3   OH223562   0.472   0.421  10.540 -0.3352  0.1851  0.4144
  716TIP3    H123563   0.425   0.347  10.578 -0.9495 -1.1510 -2.5874
  716TIP3    H223564   0.476   0.400  10.446  1.8750  2.6964 -0.1569
  717TIP3   OH223565   3.245   3.560  10.780  0.3006 -0.2445  0.0278
  717TIP3    H123566   3.212   3.647  10.803 -1.7227 -0.7622 -0.7333
  717TIP3    H223567   3.230   3.507  10.859 -0.5489 -0.4173 -0.2347
  718TIP3   OH223568   3.224   2.095  12.725  0.0980  0.7852  0.0178
  718TIP3    H123569   3.314   2.099  12.692  0.5638  0.8771  1.2416
  718TIP3    H223570   3.234   2.089  12.820 -1.1621 -1.0936  0.0793
  719TIP3   OH223571   4.124   1.973   3.706 -0.3668  0.2877  0.4112
  719TIP3    H123572   4.206   2.018   3.723 -1.4107  2.3746  0.2743
  719TIP3    H223573   4.144   1.880   3.718  1.1731  0.9203  3.7277
  720TIP3   OH223574   5.636   1.309  13.217  0.1503 -0.1636  0.1987
  720TIP3    H123575   5.598   1.309  13.305 -0.0643 -1.0899  0.1234
  720TIP3    H223576   5.607   1.391  13.178 -1.0942 -0.4809  0.4270
  721TIP3   OH223577   4.345   2.718  14.447 -0.1149  0.1056  0.3969
  721TIP3    H123578   4.411   2.761  14.501 -0.5958  0.0286  1.0546
  721TIP3    H223579   4.264   2.725  14.498 -1.2167  2.4528 -1.4619
  722TIP3   OH223580   3.299   5.739   3.587  0.6438  0.0996  0.5230
  722TIP3    H123581   3.308   5.800   3.514  2.4317 -0.5951  0.1018
  722TIP3    H223582   3.206   5.717   3.590  0.5586 -0.0044 -1.6742
  723TIP3   OH223583   5.407   0.882   3.248 -0.0120 -0.5903 -0.2567
  723TIP3    H123584   5.446   0.876   3.161 -1.0049 -2.1543 -0.6369
  723TIP3    H223585   5.409   0.976   3.269  0.7977 -0.2613 -1.6960
  724TIP3   OH223586   2.429   0.069  14.594  0.0938 -0.4463 -0.2242
  724TIP3    H123587   2.390   0.144  14.550  0.1030 -0.3771 -0.1132
  724TIP3    H223588   2.462   0.014  14.522 -2.6396 -1.8942 -0.5191
  725TIP3   OH223589   1.188   6.029  14.223  0.2576  0.1765 -0.0632
  725TIP3    H123590   1.153   6.105  14.268  2.0448  1.1462 -0.1967
  725TIP3    H223591   1.283   6.034  14.237  0.3998 -2.3201  0.3469
  726TIP3   OH223592   4.357   1.674   0.732 -0.3119  0.2529  0.3123
  726TIP3    H123593   4.429   1.682   0.670  0.0913 -2.1770  0.3692
  726TIP3    H223594   4.399   1.649   0.814 -1.1982 -2.5137  0.0396
  727TIP3   OH223595   2.637   6.543  12.601  0.2466 -0.8207  0.6400
  727TIP3    H123596   2.616   6.492  12.680 -2.3015 -0.5568  0.2121
  727TIP3    H223597   2.644   6.477  12.532 -1.8333 -0.7857  0.3243
  728TIP3   OH223598   0.333   1.456  15.971  0.0865  0.4053  0.9053
  728TIP3    H123599   0.243   1.489  15.969  1.0492  3.3160  0.3995
  728TIP3    H223600   0.365   1.478  16.059  0.4558 -0.2010  0.9306
  729TIP3   OH223601   1.216   4.968  14.765  0.2530  0.2823  0.0929
  729TIP3    H123602   1.143   5.001  14.817  0.8059 -0.8927  1.7336
  729TIP3    H223603   1.293   4.988  14.818  1.1503  1.4135 -1.5538
  730TIP3   OH223604   0.168   0.070   5.088  0.0149  0.0522  0.1916
  730TIP3    H123605   0.179   0.121   5.168  0.6776 -0.3206  0.3417
  730TIP3    H223606   0.078   0.037   5.092 -0.6645  1.7244 -0.2207
  731TIP3   OH223607   4.045   6.727   3.539 -0.3791  0.0742  0.5868
  731TIP3    H123608   4.082   6.748   3.454  0.0060  0.0990  0.7570
  731TIP3    H223609   4.022   6.812   3.576 -1.1979  0.0159  0.2194
  732TIP3   OH223610   0.279   0.741   3.867  0.1146 -0.1960  0.2480
  732TIP3    H123611   0.196   0.697   3.850  0.3408 -1.5638  2.3752
  732TIP3    H223612   0.309   0.706   3.951  1.4843  2.3292  0.9319
  733TIP3   OH223613   1.472   3.317   0.598 -0.3293  0.0275 -0.1925
  733TIP3    H123614   1.376   3.314   0.608 -0.2295 -0.7783  0.6037
  733TIP3    H223615   1.485   3.371   0.520 -1.4604 -0.4311 -0.7320
  734TIP3   OH223616   0.276   0.330  16.543 -0.2653  0.5521  0.2169
  734TIP3    H123617   0.194   0.282  16.550  0.3294 -0.3820  1.1276
  734TIP3    H223618   0.288   0.343  16.449 -1.1931  0.2484  0.0458
  735TIP3   OH223619   3.485   6.518  17.026 -0.4560  0.3569  0.6263
  735TIP3    H123620   3.546   6.583  16.990  0.8851 -0.9989  0.3563
  735TIP3    H223621   3.398   6.558  17.016 -0.0228  0.7178 -2.7029
  736TIP3   OH223622   1.358   4.450  10.561  0.0260 -0.1045 -0.1286
  736TIP3    H123623   1.281   4.405  10.597  0.1218  0.6349  1.0620
  736TIP3    H223624   1.418   4.379  10.540  0.3899 -0.5975  2.2449
  737TIP3   OH223625   2.620   5.585  12.976 -0.0185 -0.2763  0.5708
  737TIP3    H123626   2.594   5.500  13.012 -1.3380  0.0763  0.4889
  737TIP3    H223627   2.715   5.580  12.970  0.0555 -1.2053  1.9539
  738TIP3   OH223628   1.031   5.741  14.756 -0.1429  0.4579 -0.4437
  738TIP3    H123629   0.979   5.680  14.704  2.1855 -0.2183 -2.1113
  738TIP3    H223630   1.113   5.695  14.773 -0.1650  1.3075  2.4964
  739TIP3   OH223631   5.631   3.466   5.562 -0.0345  0.4495 -0.2732
  739TIP3    H123632   5.669   3.535   5.508  2.3851 -2.4923 -2.6493
  739TIP3    H223633   5.661   3.385   5.523 -2.3257 -2.0524  2.6304
  740TIP3   OH223634   6.636   5.550  12.518 -0.5496  0.5190 -0.3418
  740TIP3    H123635   6.635   5.599  12.600  1.7531  0.4411 -0.2030
  740TIP3    H223636   6.664   5.613  12.452 -1.5582  0.3731 -0.9215
  741TIP3   OH223637   1.477   6.755   4.210 -0.0980 -0.0382  0.8258
  741TIP3    H123638   1.543   6.796   4.154  1.0588 -2.5306  0.2094
  741TIP3    H223639   1.395   6.799   4.188  0.8497  1.1095 -0.5751
  742TIP3   OH223640   1.246   0.429   4.819  0.0412 -0.1582 -0.0688
  742TIP3    H123641   1.254   0.453   4.727 -0.0481  0.7063  0.1436
  742TIP3    H223642   1.333   0.398   4.844  0.5533  1.3104  0.0227
  743TIP3   OH223643   3.232   5.138   5.197 -0.0677 -0.7685 -0.1257
  743TIP3    H123644   3.174   5.069   5.228  0.3629 -0.6577  0.9884
  743TIP3    H223645   3.182   5.219   5.208  0.8445 -0.4516  2.5730
  744TIP3   OH223646   1.219   5.536   6.211 -0.0735  0.0007  0.0518
  744TIP3    H123647   1.159   5.600   6.249 -2.5891 -0.6381 -2.4582
  744TIP3    H223648   1.196   5.453   6.253  0.4486  0.0708  0.4860
  745TIP3   OH223649   3.357   6.140   5.361  0.1074  0.4117  0.3643
  745TIP3    H123650   3.286   6.076   5.369 -0.8088  1.4114  0.4597
  745TIP3    H223651   3.435   6.087   5.343 -0.7424 -0.6735 -0.2424
  746TIP3   OH223652   5.409   6.572   4.089 -0.4289  0.3605 -0.5912
  746TIP3    H123653   5.421   6.485   4.051 -0.9791  0.4036 -0.8834
  746TIP3    H223654   5.351   6.558   4.164  0.5930  0.2874  0.1964
  747TIP3   OH223655   6.579   6.715   0.665  0.2208  0.2404 -0.1803
  747TIP3    H123656   6.643   6.721   0.594 -0.5535 -0.5722 -0.9791
  747TIP3    H223657   6.603   6.785   0.725  1.0898  0.7440 -1.0851
  748TIP3   OH223658   3.542   4.068  10.503  0.0452  0.4789 -0.1112
  748TIP3    H123659   3.636   4.068  10.519  0.1201  0.8848 -0.5535
  748TIP3    H223660   3.510   4.149  10.542  0.1396  1.1838 -1.4346
  749TIP3   OH223661   2.819   3.725  16.887  0.7578 -0.1454  0.3162
  749TIP3    H123662   2.846   3.783  16.815 -0.8645  0.7131  0.3695
  749TIP3    H223663   2.779   3.783  16.952 -1.6218 -1.3650  0.0486
  750TIP3   OH223664   3.037   1.124   1.561  0.0802  0.0314 -0.2822
  750TIP3    H123665   3.007   1.065   1.630 -0.3616 -1.3090 -1.5900
  750TIP3    H223666   2.963   1.183   1.547  0.0095  0.0298  0.0668
  751TIP3   OH223667   6.631   1.680  16.521 -0.1712  0.1403  0.6531
  751TIP3    H123668   6.715   1.704  16.481 -0.3668  0.9419  0.6927
  751TIP3    H223669   6.654   1.616  16.588  0.1914 -0.9794 -0.5159
  752TIP3   OH223670   3.368   5.230  13.927  0.5732  0.2856  0.0681
  752TIP3    H123671   3.286   5.205  13.885 -0.9948  1.9889  1.9459
  752TIP3    H223672   3.401   5.302  13.872  0.4447  0.0876 -0.2758
  753TIP3   OH223673   3.607   3.308   3.960  0.8503  0.4024 -0.5400
  753TIP3    H123674   3.589   3.224   3.918 -0.3523  0.5811 -0.4156
  753TIP3    H223675   3.638   3.286   4.047 -2.6376  0.0324  0.7753
  754TIP3   OH223676   0.690   3.103   2.336 -0.5247  0.4027 -0.6645
  754TIP3    H123677   0.702   3.178   2.394  2.4760  1.3692 -2.3121
  754TIP3    H223678   0.742   3.124   2.259 -1.4685 -2.3952 -2.2003
  755TIP3   OH223679   4.998   3.060  10.793 -0.0250 -0.0366 -0.1112
  755TIP3    H123680   4.947   3.019  10.723 -1.1950  2.0757 -0.5777
  755TIP3    H223681   5.088   3.036  10.774 -0.3135  0.3890 -2.3410
  756TIP3   OH223682   5.645   3.046  16.785 -0.0945 -0.6010 -0.5180
  756TIP3    H123683   5.645   3.087  16.872 -1.9632  0.4382 -0.9496
  756TIP3    H223684   5.567   2.991  16.784  0.3936 -1.3103 -1.2536
  757TIP3   OH223685   2.021   3.864  15.059  0.1156 -0.1978  0.2657
  757TIP3    H123686   2.107   3.899  15.035  0.5615  0.0642  2.1133
  757TIP3    H223687   2.031   3.769  15.048  1.0096 -0.2680  1.4587
  758TIP3   OH223688   4.193   0.572  12.533 -0.0163  0.2018  0.1047
  758TIP3    H123689   4.261   0.638  12.550  1.8961 -1.9899  1.6078
  758TIP3    H223690   4.116   0.623  12.508  1.1590  3.0329  1.7383
  759TIP3   OH223691   4.075   1.870  15.342  0.1545 -0.3627  0.3207
  759TIP3    H123692   4.155   1.922  15.350 -0.6636  0.8202  1.3426
  759TIP3    H223693   4.094   1.807  15.273  1.2444  1.2315 -0.9374
  760TIP3   OH223694   1.782   5.003   0.953 -0.8423 -0.4374  0.1335
  760TIP3    H123695   1.756   4.926   0.901 -0.4982 -0.8098  0.5052
  760TIP3    H223696   1.869   4.982   0.985 -1.8652 -1.1862  2.6895
  761TIP3   OH223697   1.916   3.388   4.003  0.5340  0.1369  0.0160
  761TIP3    H123698   1.983   3.456   4.016 -1.1034  2.4095 -2.5256
  761TIP3    H223699   1.966   3.306   4.004  2.7964  1.3844  1.8250
  762TIP3   OH223700   6.613   1.531  11.174  0.2044  0.4649  0.4804
  762TIP3    H123701   6.567   1.450  11.150  0.1017  0.2600  1.3402
  762TIP3    H223702   6.605   1.536  11.269  4.5370 -1.1699  1.1399
  763TIP3   OH223703   1.282   4.775  10.346  0.4052  0.0252  0.2411
  763TIP3    H123704   1.337   4.776  10.424 -0.1564  1.0932  0.6350
  763TIP3    H223705   1.336   4.731  10.280  1.6898  0.9209  0.6443
  764TIP3   OH223706   6.785   5.978   5.457  0.0104 -0.4057 -0.4852
  764TIP3    H123707   6.830   5.989   5.540  0.1660  0.6842 -0.7036
  764TIP3    H223708   6.699   6.017   5.470 -0.1012 -0.5655 -0.7218
  765TIP3   OH223709   6.201   0.475  15.622 -0.0249  0.2284 -0.6650
  765TIP3    H123710   6.122   0.523  15.648 -0.4264 -0.9509  0.4220
  765TIP3    H223711   6.170   0.414  15.554  0.3127  0.8999 -1.4399
  766TIP3   OH223712   5.812   2.568  15.369 -0.5401 -0.2450 -0.2396
  766TIP3    H123713   5.751   2.579  15.296 -0.8678  0.3881  0.1146
  766TIP3    H223714   5.809   2.652  15.416 -2.0191 -1.3242  1.7808
  767TIP3   OH223715   4.499   4.166  12.550  0.3563 -0.1903 -0.9571
  767TIP3    H123716   4.572   4.221  12.579  1.6128 -0.3647 -3.4616
  767TIP3    H223717   4.524   4.077  12.576  1.1877 -0.2775 -1.9794
  768TIP3   OH223718   4.999   4.465   0.914 -0.3107 -0.1203 -0.1304
  768TIP3    H123719   4.909   4.490   0.890 -0.7156 -1.1565  0.2739
  768TIP3    H223720   5.014   4.383   0.868  0.4736  0.0949 -0.2658
  769TIP3   OH223721   2.671   2.447  13.520 -0.0511  0.5340 -0.1390
  769TIP3    H123722   2.624   2.508  13.577 -2.2895 -0.4135 -0.8133
  769TIP3    H223723   2.734   2.404  13.577  0.6252  2.4705  0.6445
  770TIP3   OH223724   2.571   1.304  14.053 -0.1584  0.0998  0.1760
  770TIP3    H123725   2.625   1.330  13.979 -0.0433  1.7369  0.7895
  770TIP3    H223726   2.579   1.377  14.115 -2.2065 -0.1046  0.7364
  771TIP3   OH223727   0.691   2.337  13.046 -0.1573  0.3935  0.1360
  771TIP3    H123728   0.721   2.344  12.956 -1.3979  1.3524 -0.2221
  771TIP3    H223729   0.736   2.260  13.080  0.2907 -0.0100 -1.3014
  772TIP3   OH223730   4.198   1.988  16.798  0.1401  0.4416  0.7780
  772TIP3    H123731   4.255   1.911  16.794 -0.6798 -0.2162  1.2780
  772TIP3    H223732   4.237   2.050  16.737  0.4180 -0.6477 -0.1925
  773TIP3   OH223733   3.723   4.509  13.546 -0.0998 -0.2018 -0.5309
  773TIP3    H123734   3.724   4.582  13.485  1.0040  0.4147  0.1923
  773TIP3    H223735   3.655   4.450  13.512 -1.4799  1.4457 -0.7806
  774TIP3   OH223736   6.032   1.291  17.060 -0.1907 -0.9489  0.1922
  774TIP3    H123737   5.991   1.358  17.005 -0.5168 -0.3180  1.1746
  774TIP3    H223738   6.075   1.232  16.998 -2.3334 -1.4833 -0.8619
  775TIP3   OH223739   0.966   2.068   0.327  0.8469 -0.4740  1.1340
  775TIP3    H123740   0.887   2.053   0.275  2.1376  0.3574 -1.2041
  775TIP3    H223741   0.936   2.123   0.399 -0.7691 -0.4651  0.5063
  776TIP3   OH223742   1.480   5.707  13.980 -0.0537  0.3913  0.4384
  776TIP3    H123743   1.511   5.677  13.895 -0.7361 -0.8731  0.6089
  776TIP3    H223744   1.393   5.743  13.962 -0.9404 -1.4198  0.7974
  777TIP3   OH223745   6.203   1.243   6.467 -0.6860  0.0950 -0.1395
  777TIP3    H123746   6.115   1.261   6.500 -1.3268  0.5704 -1.9791
  777TIP3    H223747   6.203   1.277   6.377  1.8513  1.5314  0.2877
  778TIP3   OH223748   1.809   6.290  12.696  0.0050 -0.1521 -0.4463
  778TIP3    H123749   1.715   6.301  12.678 -0.2481  0.5700  1.1942
  778TIP3    H223750   1.814   6.210  12.748  0.0629  0.7507  0.9914
  779TIP3   OH223751   1.781   5.816   5.269 -0.0741 -0.2392 -0.1579
  779TIP3    H123752   1.780   5.782   5.179  1.5556  1.5887 -0.9412
  779TIP3    H223753   1.704   5.872   5.274 -0.8816 -1.3271  0.0456
  780TIP3   OH223754   2.954   0.746  12.969  0.3098 -0.0084 -0.5024
  780TIP3    H123755   2.989   0.658  12.952  0.8279 -0.1166  0.9632
  780TIP3    H223756   3.017   0.805  12.928  1.4372 -0.2602  0.7748
  781TIP3   OH223757   2.346   6.244   1.088  0.0711  0.0670  0.0039
  781TIP3    H123758   2.381   6.317   1.139 -1.4502  0.2228  0.8924
  781TIP3    H223759   2.318   6.283   1.005 -2.7225  1.0120  1.2721
  782TIP3   OH223760   2.350   0.026  16.157  0.2810 -0.0925 -0.2529
  782TIP3    H123761   2.280   0.056  16.099 -1.1559  1.1586  1.9629
  782TIP3    H223762   2.371   0.102  16.211  1.9585 -1.0285  0.4870
  783TIP3   OH223763   2.352   2.135  12.155  0.1243  0.2828  0.1568
  783TIP3    H123764   2.348   2.075  12.230 -0.4676 -0.8665 -0.7578
  783TIP3    H223765   2.270   2.121  12.109  0.0934  1.6296 -0.2275
  784TIP3   OH223766   4.139   5.545   5.264 -0.3165  0.0516 -0.3955
  784TIP3    H123767   4.161   5.483   5.195  1.5518  0.4326 -0.2001
  784TIP3    H223768   4.178   5.627   5.236  0.1900  0.2917  0.9247
  785TIP3   OH223769   1.736   2.632   2.730 -0.1652  0.3627 -0.5704
  785TIP3    H123770   1.743   2.721   2.765 -0.2878 -0.0273  0.4769
  785TIP3    H223771   1.766   2.576   2.801  1.0714 -0.3855 -1.6408
  786TIP3   OH223772   5.297   3.588  12.122 -0.3122 -0.2311 -1.0119
  786TIP3    H123773   5.296   3.584  12.218  1.7317  0.3654 -0.9145
  786TIP3    H223774   5.319   3.679  12.102 -0.1816 -0.4794 -2.0311
  787TIP3   OH223775   6.338   4.136   1.112  0.1034 -0.0873 -0.0541
  787TIP3    H123776   6.341   4.203   1.043 -1.5370 -1.2935 -1.3905
  787TIP3    H223777   6.406   4.074   1.088 -1.1973 -1.0979 -1.3180
  788TIP3   OH223778   1.940   3.071  15.477  0.2307 -0.0704  0.7319
  788TIP3    H123779   1.964   3.160  15.451 -0.3974  0.1545  0.8867
  788TIP3    H223780   1.844   3.072  15.480  0.1542 -1.1522 -0.6200
  789TIP3   OH223781   5.005   2.645  11.380  0.3499 -0.4138  0.2487
  789TIP3    H123782   4.971   2.624  11.293  1.2339 -0.5527 -0.0650
  789TIP3    H223783   5.097   2.621  11.377  0.4484 -0.1920  1.1518
  790TIP3   OH223784   4.461   3.642  15.695  0.6947  0.1256  0.5863
  790TIP3    H123785   4.447   3.648  15.601  0.2566 -1.2205  0.5495
  790TIP3    H223786   4.555   3.632  15.705  1.1555  3.2836  0.5041
  791TIP3   OH223787   5.583   6.130  13.028 -0.1713 -0.2262  0.2467
  791TIP3    H123788   5.523   6.136  12.954 -1.6260 -1.2205  1.2814
  791TIP3    H223789   5.641   6.205  13.018 -0.9941  0.2444 -1.3183
  792TIP3   OH223790   6.459   0.289  13.966 -0.4179 -0.1954  0.0502
  792TIP3    H123791   6.448   0.373  14.011 -1.5258 -0.2344 -0.1161
  792TIP3    H223792   6.419   0.225  14.025  1.1010 -0.7379  0.5368
  793TIP3   OH223793   6.342   4.315   2.088  0.1394  0.1303  0.3873
  793TIP3    H123794   6.267   4.281   2.137 -1.2308  0.2979 -1.5031
  793TIP3    H223795   6.416   4.263   2.120 -0.7948 -0.2703  2.0656
  794TIP3   OH223796   4.475   6.104   3.035 -0.6383  0.0341 -0.0456
  794TIP3    H123797   4.549   6.155   3.067 -1.5685  0.1018  2.2014
  794TIP3    H223798   4.492   6.015   3.065 -0.9204 -0.1911 -0.5313
  795TIP3   OH223799   3.235   3.674   4.681  0.0946  0.1258 -0.4075
  795TIP3    H123800   3.219   3.764   4.707 -1.9689 -1.0179  2.8929
  795TIP3    H223801   3.157   3.650   4.631 -0.3729 -0.3844  0.5383
  796TIP3   OH223802   4.618   2.742   4.714 -0.1758 -0.4455 -0.1523
  796TIP3    H123803   4.673   2.712   4.786  1.4410 -0.7285 -1.4274
  796TIP3    H223804   4.642   2.686   4.640  0.2386  1.5402 -1.6319
  797TIP3   OH223805   0.226   3.818   5.594 -0.2424 -0.3558 -0.3814
  797TIP3    H123806   0.167   3.888   5.621 -0.1292 -0.4354  0.0663
  797TIP3    H223807   0.303   3.863   5.558  0.3387 -0.2321  0.9717
  798TIP3   OH223808   4.841   1.618   2.217 -0.2407 -0.0778 -0.0077
  798TIP3    H123809   4.840   1.564   2.296 -0.6022 -0.0063  0.0372
  798TIP3    H223810   4.867   1.558   2.147  4.6475  0.6575  0.7503
  799TIP3   OH223811   3.912   3.181   1.479  0.5412  0.5301 -0.2189
  799TIP3    H123812   3.927   3.258   1.424  2.6319 -0.5138 -1.2199
  799TIP3    H223813   3.857   3.123   1.426 -0.1555  0.8659  0.1201
  800TIP3   OH223814   0.222   0.220  14.498  0.2906  0.3923 -0.3671
  800TIP3    H123815   0.302   0.169  14.497 -0.4830 -0.8972  0.5127
  800TIP3    H223816   0.214   0.252  14.588  1.2197  2.8993 -1.0901
  801TIP3   OH223817   3.130   3.223   2.935 -0.1808  0.1138  0.7204
  801TIP3    H123818   3.147   3.192   2.846  1.7362 -0.5171  1.2389
  801TIP3    H223819   3.041   3.257   2.933 -0.1265  0.2514 -1.4643
  802TIP3   OH223820   2.641   2.787   0.454  0.0375 -0.8757 -0.0769
  802TIP3    H123821   2.703   2.769   0.383 -0.3718 -1.2755 -0.3363
  802TIP3    H223822   2.669   2.730   0.525  1.0972  0.2770  0.4852
  803TIP3   OH223823   0.911   5.422   0.044 -0.4239  0.2061  0.3788
  803TIP3    H123824   0.963   5.348   0.076 -1.2297 -0.8211 -0.6269
  803TIP3    H223825   0.829   5.384   0.015 -0.5805  1.3899 -0.8651
  804TIP3   OH223826   1.715   4.152   2.529  0.8714 -0.1362  0.1685
  804TIP3    H123827   1.703   4.196   2.613 -0.3875  1.7906 -0.9613
  804TIP3    H223828   1.773   4.210   2.480 -0.4767  0.1172 -1.1963
  805TIP3   OH223829   3.210   0.340   1.462  0.2570  0.1152 -0.0157
  805TIP3    H123830   3.299   0.327   1.428 -0.3553  2.4681 -2.9694
  805TIP3    H223831   3.219   0.409   1.527  0.5509  0.9688 -0.9309
  806TIP3   OH223832   6.786   5.526  11.096 -0.4757  0.1497 -0.5044
  806TIP3    H123833   6.822   5.437  11.093  1.7212  0.9825 -3.8074
  806TIP3    H223834   6.705   5.521  11.046 -2.4278 -0.6139  2.4685
  807TIP3   OH223835   1.963   5.324  14.240  0.0710  0.1189  0.1141
  807TIP3    H123836   1.888   5.361  14.193  0.0698  0.4462  0.3755
  807TIP3    H223837   1.987   5.247  14.188  0.2722  0.6544 -0.6112
  808TIP3   OH223838   3.555   4.110  16.906  0.2136  0.7842 -0.4855
  808TIP3    H123839   3.566   4.091  17.000  3.2741 -1.9591 -1.2370
  808TIP3    H223840   3.508   4.034  16.872  1.7776  0.3076 -1.6430
  809TIP3   OH223841   0.756   2.827  14.808 -0.7060  0.2857  0.3479
  809TIP3    H123842   0.751   2.886  14.733 -2.1570 -0.6039 -0.2959
  809TIP3    H223843   0.670   2.786  14.813 -0.1365 -0.8720  1.5243
  810TIP3   OH223844   6.110   4.747   0.245 -0.0087  0.1392  0.3754
  810TIP3    H123845   6.172   4.691   0.198 -0.9312 -1.0129  0.4726
  810TIP3    H223846   6.056   4.785   0.176  1.1617  1.6304  0.2447
  811TIP3   OH223847   0.355   1.965  12.009 -0.1096  0.4000 -0.0125
  811TIP3    H123848   0.271   1.948  11.966  0.2421 -1.8568  0.0639
  811TIP3    H223849   0.406   1.884  11.995  1.0403  0.6619  2.2413
  812TIP3   OH223850   3.227   3.948  16.491 -0.4865  0.4825  0.1747
  812TIP3    H123851   3.140   3.959  16.452  0.8703  0.1287 -3.3010
  812TIP3    H223852   3.271   4.031  16.474  1.3211 -0.8967 -2.5466
  813TIP3   OH223853   5.201   6.695  13.450  0.2596 -0.1810  0.0211
  813TIP3    H123854   5.219   6.627  13.515 -0.0098 -0.4230 -0.1571
  813TIP3    H223855   5.282   6.702  13.399  0.3092 -0.3190  0.0817
  814TIP3   OH223856   0.509   3.859   2.618 -0.2717  0.0160  0.0837
  814TIP3    H123857   0.587   3.907   2.644 -0.3610  0.4982 -0.5007
  814TIP3    H223858   0.506   3.783   2.676 -0.5276  1.0997  1.5138
  815TIP3   OH223859   4.913   0.085  12.252  0.3548 -0.7877  0.0940
  815TIP3    H123860   4.940   0.168  12.211  3.0095 -1.5611  0.1071
  815TIP3    H223861   4.824   0.102  12.283  0.6695  1.9314 -0.2234
  816TIP3   OH223862   4.175   3.644  16.842  0.0747 -0.3002  0.0211
  816TIP3    H123863   4.129   3.580  16.787 -0.6467 -0.1642  0.4497
  816TIP3    H223864   4.129   3.726  16.826 -1.3836 -0.6075  2.2081
  817TIP3   OH223865   5.524   6.448   2.741 -0.0205  0.0331  0.3196
  817TIP3    H123866   5.499   6.418   2.828  0.7077 -0.8855  0.2295
  817TIP3    H223867   5.620   6.448   2.743 -0.0023  0.4173 -0.3501
  818TIP3   OH223868   5.962   3.555   1.448  0.5208 -0.1060 -0.4047
  818TIP3    H123869   5.969   3.511   1.532  1.2369 -1.7111 -1.2599
  818TIP3    H223870   5.960   3.649   1.469  0.0204 -0.4947  1.4060
  819TIP3   OH223871   5.204   3.171   0.847  0.1191  0.2903  0.1104
  819TIP3    H123872   5.113   3.189   0.823 -0.4777 -1.6961  0.7128
  819TIP3    H223873   5.205   3.174   0.942  0.3751 -0.9227  0.1645
  820TIP3   OH223874   6.134   1.392   4.796 -0.1554  0.6511 -0.2138
  820TIP3    H123875   6.057   1.436   4.831  0.4194  0.4873  1.3465
  820TIP3    H223876   6.116   1.382   4.703 -0.6988  3.3747 -0.4895
  821TIP3   OH223877   6.119   0.882  11.481 -0.1299 -0.2325 -0.2093
  821TIP3    H123878   6.153   0.972  11.475  0.3590 -0.2177  2.0404
  821TIP3    H223879   6.191   0.828  11.448  0.2478  0.0991  0.0549
  822TIP3   OH223880   5.019   5.645   0.755 -0.1781 -0.2198  0.4201
  822TIP3    H123881   5.062   5.726   0.783 -0.6887 -0.4085  1.8000
  822TIP3    H223882   4.957   5.674   0.688 -1.1697  0.7236  1.6873
  823TIP3   OH223883   5.790   0.457   3.854 -0.2522  0.0165  0.3609
  823TIP3    H123884   5.699   0.479   3.835 -0.2107  0.0893  0.2440
  823TIP3    H223885   5.788   0.421   3.943 -0.1794  1.4755  0.9945
  824TIP3   OH223886   3.849   5.935   3.992  0.0052  0.0481  0.2181
  824TIP3    H123887   3.871   5.872   3.924  1.1964 -0.7224  1.2536
  824TIP3    H223888   3.819   6.013   3.945 -2.7245 -1.6508 -1.0747
  825TIP3   OH223889   4.638   2.454  11.739  0.5491 -0.0858  0.2582
  825TIP3    H123890   4.678   2.368  11.749 -0.5111 -0.5636  0.4976
  825TIP3    H223891   4.555   2.437  11.693 -1.1016  0.3919  2.8427
  826TIP3   OH223892   5.312   1.067   1.600  0.0108  0.3222 -0.2173
  826TIP3    H123893   5.384   1.112   1.555  0.4748 -0.1495  0.0487
  826TIP3    H223894   5.355   1.006   1.660 -0.5883 -1.1740 -1.2450
  827TIP3   OH223895   3.358   1.104   5.165 -0.4576 -0.7483  0.6084
  827TIP3    H123896   3.341   1.102   5.070 -0.8485 -2.6309  0.6839
  827TIP3    H223897   3.272   1.087   5.204 -0.5253  1.0928  1.3867
  828TIP3   OH223898   2.783   0.145  10.975  0.4637 -0.2699 -0.4973
  828TIP3    H123899   2.763   0.172  10.885 -1.3048 -0.2519 -0.1359
  828TIP3    H223900   2.793   0.050  10.970  0.5917 -0.2439 -0.7520
  829TIP3   OH223901   6.093   1.476  15.481  0.1055 -0.3630  0.1784
  829TIP3    H123902   6.145   1.553  15.503 -0.9770  0.1553  0.9826
  829TIP3    H223903   6.138   1.403  15.525  1.0077 -0.1837 -0.4062
  830TIP3   OH223904   3.610   4.785  16.057  0.0295 -0.1796 -0.0804
  830TIP3    H123905   3.672   4.853  16.030 -2.0230  0.7948 -2.8857
  830TIP3    H223906   3.633   4.709  16.005  2.3744 -1.8766  3.1144
  831TIP3   OH223907   0.501   0.429   5.144 -0.6683 -0.3152  0.0693
  831TIP3    H123908   0.423   0.433   5.089  1.1038  1.0521 -2.5404
  831TIP3    H223909   0.569   0.471   5.092  1.4019  0.2571  2.9876
  832TIP3   OH223910   2.827   3.616  11.160  0.2053  0.2860 -0.1534
  832TIP3    H123911   2.878   3.541  11.192  1.1179 -0.3223 -2.7681
  832TIP3    H223912   2.810   3.595  11.068  1.5045  3.7981 -1.3545
  833TIP3   OH223913   2.216   5.782  13.136 -0.3668 -0.3075 -0.2980
  833TIP3    H123914   2.131   5.738  13.147 -0.2031 -0.3303  1.0511
  833TIP3    H223915   2.218   5.848  13.205  0.3107  0.3698 -0.9476
  834TIP3   OH223916   0.422   4.709  16.453 -0.4327  0.2997 -0.1265
  834TIP3    H123917   0.331   4.693  16.480  0.3137 -0.2130  2.3586
  834TIP3    H223918   0.474   4.654  16.511  1.5700  1.9434 -0.2621
  835TIP3   OH223919   3.643   3.226   0.241  0.0419 -0.6362  0.1079
  835TIP3    H123920   3.659   3.214   0.335  2.5786 -0.0382 -0.1734
  835TIP3    H223921   3.720   3.188   0.199 -0.7797 -0.3814 -1.7280
  836TIP3   OH223922   0.753   3.584  16.472 -0.6260  0.6501 -0.3571
  836TIP3    H123923   0.670   3.540  16.486 -0.5648  0.8144  0.6529
  836TIP3    H223924   0.818   3.527  16.514 -0.2022  0.4479 -1.2634
  837TIP3   OH223925   5.967   5.982   2.571 -0.4390 -0.6812 -0.4079
  837TIP3    H123926   5.883   5.999   2.614 -0.6636  0.3952 -1.2287
  837TIP3    H223927   5.958   6.021   2.484  0.8619 -0.6617 -0.5589
  838TIP3   OH223928   2.288   4.749   2.119  0.1804  0.1878 -0.0729
  838TIP3    H123929   2.341   4.754   2.039 -0.0921  0.1076 -0.2622
  838TIP3    H223930   2.290   4.838   2.154 -0.0044  0.3140 -0.3733
  839TIP3   OH223931   1.909   0.879  11.021 -0.0104 -0.1572 -0.5774
  839TIP3    H123932   1.845   0.809  11.012  0.7623 -1.5349  2.9591
  839TIP3    H223933   1.958   0.857  11.100  2.4914  2.6981 -1.1312
  840TIP3   OH223934   2.785   0.792  11.015  0.2500  0.1376 -0.2959
  840TIP3    H123935   2.812   0.761  10.929  2.8092 -1.7971  1.0898
  840TIP3    H223936   2.747   0.715  11.058  2.4407 -0.0346  1.5557
  841TIP3   OH223937   3.392   4.651   5.149  0.0684  0.0674  0.4693
  841TIP3    H123938   3.470   4.611   5.189  0.0897 -1.1496 -0.7326
  841TIP3    H223939   3.425   4.730   5.108  0.7610 -0.6101 -0.3226
  842TIP3   OH223940   0.470   3.713  13.438  0.5744  0.0334  0.7446
  842TIP3    H123941   0.416   3.716  13.518 -0.1568  0.4607  0.2397
  842TIP3    H223942   0.416   3.754  13.371  0.4007 -1.9965 -0.4305
  843TIP3   OH223943   4.466   6.051  13.391  0.4876  0.4393  0.1042
  843TIP3    H123944   4.525   6.028  13.463  0.7135  1.0786  0.1302
  843TIP3    H223945   4.381   6.014  13.417  1.3801 -2.8270 -1.1651
  844TIP3   OH223946   4.901   0.609   5.287  0.7826  0.3357  0.2745
  844TIP3    H123947   4.808   0.629   5.287  0.7052  0.0015 -0.3790
  844TIP3    H223948   4.905   0.513   5.286  1.1441  0.2670  2.6371
  845TIP3   OH223949   2.196   0.719   2.132  0.3391 -0.2437 -0.0302
  845TIP3    H123950   2.163   0.807   2.144 -0.0816 -0.2397 -1.0742
  845TIP3    H223951   2.215   0.687   2.220 -1.1916  0.2353  0.5003
  846TIP3   OH223952   5.491   2.783   3.425  0.1224 -0.4668 -0.2082
  846TIP3    H123953   5.586   2.773   3.419  0.1922  0.2383 -0.4079
  846TIP3    H223954   5.456   2.710   3.374  0.5267 -1.3105  0.6924
  847TIP3   OH223955   5.833   1.332  15.910  0.2621  0.1384  0.5754
  847TIP3    H123956   5.882   1.309  15.989 -1.8473 -2.1105  1.3362
  847TIP3    H223957   5.742   1.312  15.931 -0.3515 -0.8170 -2.4753
  848TIP3   OH223958   2.376   2.942  14.113  0.0170  0.4594 -0.1846
  848TIP3    H123959   2.299   2.999  14.123 -0.7978 -0.7353  0.5559
  848TIP3    H223960   2.386   2.931  14.018 -1.5725 -0.4748 -0.2672
  849TIP3   OH223961   2.214   4.187  14.245 -0.0916 -0.0106  0.1458
  849TIP3    H123962   2.205   4.280  14.224 -0.1836  0.2007  1.1042
  849TIP3    H223963   2.166   4.143  14.175  0.7541  0.6049 -0.8570
  850TIP3   OH223964   3.489   3.076   4.945  0.5107 -0.1850 -0.0764
  850TIP3    H123965   3.507   3.012   5.014 -0.6884 -0.4145  0.0394
  850TIP3    H223966   3.398   3.060   4.921  0.7048  0.3759 -1.2147
  851TIP3   OH223967   4.445   1.098   1.126 -0.3271 -0.6964  0.3565
  851TIP3    H123968   4.473   1.185   1.156 -2.1560  0.0838 -0.0571
  851TIP3    H223969   4.476   1.038   1.194  1.4733  0.1865  0.3600
  852TIP3   OH223970   0.269   6.667  12.864 -0.4078  0.1814 -0.4436
  852TIP3    H123971   0.187   6.714  12.849 -1.3650 -1.1223  0.5826
  852TIP3    H223972   0.294   6.690  12.954 -0.3066 -0.4126 -0.3201
  853TIP3   OH223973   0.754   3.213  12.720 -0.4738 -0.6213 -0.2801
  853TIP3    H123974   0.771   3.190  12.629  2.3274 -0.1059  0.0245
  853TIP3    H223975   0.802   3.295  12.734 -0.9789 -0.6003  1.6118
  854TIP3   OH223976   3.081   1.793  13.014 -0.1929  0.6096  0.3268
  854TIP3    H123977   3.072   1.701  12.989 -1.4090  0.7904  0.0204
  854TIP3    H223978   3.001   1.834  12.982  1.4920  2.3437 -1.9597
  855TIP3   OH223979   5.759   5.427   3.506  0.1064  0.4127  1.0422
  855TIP3    H123980   5.781   5.388   3.591 -0.4066  0.4495  1.1923
  855TIP3    H223981   5.844   5.452   3.469  0.2789  1.3867  2.0208
  856TIP3   OH223982   3.394   3.839  14.678 -0.4846 -0.1508  0.0933
  856TIP3    H123983   3.314   3.799  14.713  0.9166 -1.4396  2.0312
  856TIP3    H223984   3.419   3.781  14.606 -0.6918 -0.3869  0.2077
  857TIP3   OH223985   5.407   2.990  16.525 -0.6754 -0.2787 -0.3893
  857TIP3    H123986   5.319   2.952  16.530 -0.7374 -0.0947 -0.0128
  857TIP3    H223987   5.465   2.920  16.552 -0.8058 -0.0656  0.5004
  858TIP3   OH223988   2.490   2.992   0.162  0.3212 -0.5611  0.1629
  858TIP3    H123989   2.450   2.917   0.118 -2.7305  2.2929 -2.5038
  858TIP3    H223990   2.556   3.024   0.100  1.2009 -0.6346  1.0278
  859TIP3   OH223991   1.399   1.143  15.880 -0.7119  0.1478  0.2307
  859TIP3    H123992   1.451   1.154  15.801 -2.5606 -0.3917 -1.1421
  859TIP3    H223993   1.422   1.056  15.913  1.4268  1.0931  1.4055
  860TIP3   OH223994   4.740   1.453   4.452  0.7921  0.8395 -0.3761
  860TIP3    H123995   4.718   1.404   4.531  0.7732  1.3621 -0.0482
  860TIP3    H223996   4.678   1.423   4.386  0.6630  0.5614 -0.1289
  861TIP3   OH223997   1.297   6.520   0.947  0.1811 -0.3315  0.0826
  861TIP3    H123998   1.287   6.490   1.037 -0.0186  1.5980  0.7532
  861TIP3    H223999   1.234   6.591   0.938  1.3150  0.5924 -1.0496
  862TIP3   OH224000   0.274   0.368   0.823  0.0497 -0.2331 -0.6647
  862TIP3    H124001   0.221   0.288   0.824  1.4666 -1.1913  0.3601
  862TIP3    H224002   0.315   0.368   0.737 -0.6104 -0.1328 -0.9923
  863TIP3   OH224003   0.925   1.209  13.755 -0.2951 -0.2975 -0.5043
  863TIP3    H124004   0.986   1.217  13.682  1.0948 -1.7111  0.4355
  863TIP3    H224005   0.976   1.167  13.824 -2.2078 -1.1274  0.4849
  864TIP3   OH224006   6.659   2.205  16.991 -0.2434  0.0567 -0.1282
  864TIP3    H124007   6.586   2.187  16.932 -0.1597  1.1695 -0.5879
  864TIP3    H224008   6.710   2.272  16.946  0.1584  0.4807  0.9418
  865TIP3   OH224009   0.995   3.656  17.008  0.4613 -0.1128 -0.0379
  865TIP3    H124010   0.933   3.637  16.937 -0.0969  2.2217 -0.2702
  865TIP3    H224011   1.059   3.715  16.969  0.9420  0.1207  1.0551
  866TIP3   OH224012   5.800   2.031   1.040  0.5212  0.0799 -0.6822
  866TIP3    H124013   5.828   2.120   1.017 -2.6459  1.3653 -0.1114
  866TIP3    H224014   5.877   1.976   1.023  2.6770  2.9271 -0.8456
  867TIP3   OH224015   1.417   3.164  11.917 -0.1495 -0.3494 -0.0434
  867TIP3    H124016   1.455   3.197  11.998  1.3053 -1.4222 -0.2368
  867TIP3    H224017   1.329   3.202  11.913  1.9215  5.1547 -1.2929
  868TIP3   OH224018   4.806   1.285  15.655 -0.5680  0.5188 -0.4413
  868TIP3    H124019   4.883   1.233  15.674  0.9407  1.7954 -2.6400
  868TIP3    H224020   4.732   1.227  15.675  0.8814 -0.6540  1.9734
  869TIP3   OH224021   0.408   1.691  12.314 -0.5895  0.3040 -0.3483
  869TIP3    H124022   0.441   1.602  12.302  0.3462  0.8068 -1.7551
  869TIP3    H224023   0.323   1.679  12.358  1.1717 -1.0614  3.0610
  870TIP3   OH224024   1.833   6.134  10.611  0.1112  0.2897 -0.1577
  870TIP3    H124025   1.838   6.071  10.539 -0.0076  0.4104 -0.2738
  870TIP3    H224026   1.739   6.150  10.623  0.1528  0.7470 -0.4027
  871TIP3   OH224027   5.532   1.339  14.807  0.0523  0.1746  0.1785
  871TIP3    H124028   5.586   1.320  14.884 -1.5099  0.3624  1.3757
  871TIP3    H224029   5.594   1.342  14.734  1.3284 -2.3558  1.0165
  872TIP3   OH224030   3.315   5.437   4.208  0.9282  0.0408 -0.3783
  872TIP3    H124031   3.261   5.360   4.227 -1.2811  0.9571 -2.4797
  872TIP3    H224032   3.380   5.405   4.145  2.6363 -0.9501  1.7780
  873TIP3   OH224033   0.756   0.796   4.634  0.0204 -0.2098  0.1025
  873TIP3    H124034   0.805   0.731   4.684 -1.2630 -1.8465 -0.6714
  873TIP3    H224035   0.821   0.836   4.575  0.6192 -1.6648 -0.2554
  874TIP3   OH224036   5.729   1.791   1.785 -0.6431 -0.4016  0.4396
  874TIP3    H124037   5.638   1.805   1.757 -0.8900 -1.2848  0.7526
  874TIP3    H224038   5.762   1.879   1.804 -0.8497  0.1220 -1.4054
  875TIP3   OH224039   4.717   3.597  15.942  0.0516 -0.4784  0.4360
  875TIP3    H124040   4.797   3.643  15.968  0.4077 -0.9314  0.1642
  875TIP3    H224041   4.715   3.519  15.997 -0.8491  0.1223  1.2945
  876TIP3   OH224042   6.188   5.083   4.056  0.4172 -0.3267  0.3995
  876TIP3    H124043   6.099   5.106   4.029 -0.1629 -1.4985  1.2516
  876TIP3    H224044   6.239   5.087   3.975 -0.1367  1.4858  0.0885
  877TIP3   OH224045   3.621   6.761   4.949 -0.0301  0.2546  0.5356
  877TIP3    H124046   3.635   6.822   5.021  0.3464 -0.6042  1.2083
  877TIP3    H224047   3.698   6.704   4.951  0.0020  0.2393 -0.5737
  878TIP3   OH224048   5.669   5.324   1.915  0.0844  0.3699  0.3708
  878TIP3    H124049   5.577   5.304   1.934  0.3653 -0.0393  1.3740
  878TIP3    H224050   5.671   5.342   1.821 -0.8863 -0.4326  0.1810
  879TIP3   OH224051   0.102   1.669  14.174 -0.4074  0.2446 -0.1471
  879TIP3    H124052   0.194   1.671  14.145 -0.3210  0.7795  0.1368
  879TIP3    H224053   0.095   1.590  14.227 -0.4445 -0.4811 -1.2177
  880TIP3   OH224054   0.269   5.605  10.901 -0.7758 -0.2405 -0.2607
  880TIP3    H124055   0.358   5.605  10.865 -1.1809  1.6653 -1.4354
  880TIP3    H224056   0.214   5.634  10.828 -1.9040  1.9678  1.3569
  881TIP3   OH224057   3.811   5.090  17.196 -0.1436  0.1265 -0.1249
  881TIP3    H124058   3.885   5.030  17.207 -0.8988 -0.5514  1.7545
  881TIP3    H224059   3.774   5.099  17.284 -1.2183  1.8762 -0.6962
  882TIP3   OH224060   2.327   5.268   1.119 -0.0804  0.0919 -0.7356
  882TIP3    H124061   2.401   5.229   1.073  0.6709  0.3188  0.2253
  882TIP3    H224062   2.368   5.330   1.180 -1.0180 -0.2228  0.2474
  883TIP3   OH224063   4.482   6.756   4.986 -0.3285 -0.3144  0.6101
  883TIP3    H124064   4.513   6.833   5.034 -1.4253  0.4328  0.1785
  883TIP3    H224065   4.387   6.755   5.001 -0.4281 -1.1746  0.0263
  884TIP3   OH224066   4.455   6.104  16.530 -0.3208 -0.2501 -0.3580
  884TIP3    H124067   4.429   6.012  16.537 -0.3584 -0.4324 -2.2853
  884TIP3    H224068   4.376   6.149  16.499 -0.2591  0.4198  0.4154
  885TIP3   OH224069   3.931   5.801   1.987 -0.4225 -0.1378 -0.0016
  885TIP3    H124070   3.950   5.758   2.070 -1.2539  1.0182  0.8218
  885TIP3    H224071   3.938   5.731   1.922  1.1651 -0.8769  0.8916
  886TIP3   OH224072   0.738   3.397   5.368  0.0233 -0.1010 -0.0038
  886TIP3    H124073   0.802   3.379   5.298 -1.4408  1.1105 -1.7402
  886TIP3    H224074   0.789   3.394   5.448  2.3342  1.0311 -1.3270
  887TIP3   OH224075   5.516   0.627   0.010 -0.3268  0.3037  0.4591
  887TIP3    H124076   5.500   0.707  -0.040 -2.8614 -0.4481 -0.0799
  887TIP3    H224077   5.500   0.556  -0.053  1.2938 -0.6462  1.0766
  888TIP3   OH224078   3.917   2.737   6.114 -0.1533  0.5458 -0.1519
  888TIP3    H124079   3.847   2.673   6.128 -0.5058  1.3882  2.4501
  888TIP3    H224080   3.916   2.791   6.193  2.8539  1.1605 -0.4303
  889TIP3   OH224081   0.063   5.445  16.554 -0.2262 -0.6428  0.1418
  889TIP3    H124082  -0.029   5.420  16.554 -0.1350 -0.9841 -0.3314
  889TIP3    H224083   0.111   5.362  16.560  0.1032 -0.7731 -2.7866
  890TIP3   OH224084   0.541   4.871  13.030 -0.0661  0.3336  0.0347
  890TIP3    H124085   0.509   4.901  12.945 -0.7812 -0.8155 -0.1244
  890TIP3    H224086   0.518   4.941  13.091 -1.4300  0.2625 -0.3649
  891TIP3   OH224087   5.779   5.718   0.668  0.3162  0.5977  0.2113
  891TIP3    H124088   5.781   5.678   0.581 -1.2573  0.3085  0.2798
  891TIP3    H224089   5.739   5.804   0.653  1.3434  1.1385  0.4562
  892TIP3   OH224090   1.227   4.326  16.167  0.2985 -0.8351  0.3834
  892TIP3    H124091   1.267   4.260  16.111 -0.1148  0.1868 -1.1656
  892TIP3    H224092   1.300   4.379  16.199  0.4019 -0.3889 -0.5744
  893TIP3   OH224093   0.688   1.565   3.050 -0.7053 -0.2003  0.1669
  893TIP3    H124094   0.767   1.513   3.034  0.6297  2.1029 -1.1461
  893TIP3    H224095   0.634   1.509   3.106  1.7914 -1.8898  1.0458
  894TIP3   OH224096   1.415   3.494  15.906  0.0686 -0.3076  0.4513
  894TIP3    H124097   1.391   3.450  15.824 -0.3123  0.6330  0.0379
  894TIP3    H224098   1.375   3.440  15.974  0.2282 -0.9998  0.0112
  895TIP3   OH224099   6.674   5.463   3.675 -0.3164 -0.2115  0.2443
  895TIP3    H124100   6.620   5.541   3.684 -0.0697 -0.1027  0.8917
  895TIP3    H224101   6.764   5.495   3.682 -0.1879 -0.4621 -0.2244
  896TIP3   OH224102   4.494   3.268  12.811  0.3036  0.1310  0.2886
  896TIP3    H124103   4.486   3.223  12.727 -1.7146  1.6915 -0.4313
  896TIP3    H224104   4.588   3.267  12.830  0.6074 -1.9310 -0.9881
  897TIP3   OH224105   6.262   2.857   1.357  0.5303 -0.0782 -0.9348
  897TIP3    H124106   6.246   2.811   1.275  0.5729 -0.5703 -0.6718
  897TIP3    H224107   6.288   2.945   1.331  0.3689 -0.1792 -1.4421
  898TIP3   OH224108   1.850   6.414  11.137  0.5954  0.4165 -0.5221
  898TIP3    H124109   1.919   6.371  11.087  0.3393 -0.1647 -0.3851
  898TIP3    H224110   1.822   6.486  11.081 -0.0201 -0.5194 -1.4573
  899TIP3   OH224111   5.874   2.301   0.963 -0.3047 -0.3882 -0.3416
  899TIP3    H124112   5.783   2.305   0.931 -0.8978  0.8810  1.3854
  899TIP3    H224113   5.916   2.376   0.922 -0.0656 -0.8420 -0.9538
  900TIP3   OH224114   0.623   4.442  14.053 -0.2995  0.4415 -0.3974
  900TIP3    H124115   0.672   4.460  14.133 -1.1567 -0.2832  0.3121
  900TIP3    H224116   0.646   4.514  13.994  0.2696  1.0392  0.5253
  901TIP3   OH224117   4.648   3.853   0.910  0.2502  0.6081 -0.2596
  901TIP3    H124118   4.694   3.820   0.833  0.7940  2.0005 -0.5741
  901TIP3    H224119   4.615   3.939   0.882 -1.1871  0.3138  0.4712
  902TIP3   OH224120   6.189   3.074   3.598  0.2507  0.4933  0.7473
  902TIP3    H124121   6.183   3.071   3.694  1.4816 -1.5943  0.8268
  902TIP3    H224122   6.282   3.061   3.580  0.0770  1.1797 -0.7424
  903TIP3   OH224123   4.309   2.533   0.427 -0.1807 -0.3587 -0.4133
  903TIP3    H124124   4.230   2.480   0.439  0.9695 -1.8084  1.3163
  903TIP3    H224125   4.362   2.484   0.365  0.6896 -1.0776  0.8441
  904TIP3   OH224126   5.534   1.808  15.095  0.3494  0.2526 -0.3848
  904TIP3    H124127   5.582   1.734  15.057  1.5419  0.5810  0.4367
  904TIP3    H224128   5.486   1.770  15.169 -1.2490 -0.2069 -1.6012
  905TIP3   OH224129   3.073   1.541  13.231  0.3306 -0.0620 -0.2030
  905TIP3    H124130   2.989   1.584  13.217  1.0881  1.0365 -1.6115
  905TIP3    H224131   3.093   1.556  13.323 -0.5348  0.5419 -0.1020
  906TIP3   OH224132   6.204   2.384   4.758 -0.8191  0.4931  0.0034
  906TIP3    H124133   6.183   2.478   4.758  0.6863  0.8607  0.6599
  906TIP3    H224134   6.198   2.358   4.666 -1.4056  1.1972 -0.1674
  907TIP3   OH224135   3.068   0.064   1.072 -0.2140 -0.1915  0.2189
  907TIP3    H124136   3.120   0.145   1.071 -0.8655  0.3129  2.3306
  907TIP3    H224137   3.134  -0.006   1.076  0.3443  0.2301 -1.0236
  908TIP3   OH224138   1.574   1.282   4.997 -0.0885  0.1187  0.3280
  908TIP3    H124139   1.523   1.212   4.958  0.1789 -0.0932  0.3525
  908TIP3    H224140   1.591   1.343   4.925  3.0752 -1.7892 -0.7536
  909TIP3   OH224141   6.587   4.400   5.728 -0.1218 -0.2280 -0.1656
  909TIP3    H124142   6.592   4.380   5.634  0.6442 -0.5004 -0.0788
  909TIP3    H224143   6.657   4.464   5.742 -0.1166 -0.3218  0.2492
  910TIP3   OH224144   2.298   2.139  17.189 -0.0299  0.0602  0.4877
  910TIP3    H124145   2.229   2.074  17.177 -0.5216  0.5801  0.4773
  910TIP3    H224146   2.379   2.093  17.164 -0.3018 -0.6978  0.9795
  911TIP3   OH224147   0.368   6.057  11.496 -0.5301  0.4901  0.2896
  911TIP3    H124148   0.427   6.113  11.446 -0.9862  0.4652 -0.2879
  911TIP3    H224149   0.365   5.975  11.446  0.7288 -0.3633  1.5110
  912TIP3   OH224150   0.523   5.919  12.678 -0.2212 -0.0066  0.3617
  912TIP3    H124151   0.597   5.980  12.674  0.1959 -0.4709  0.8032
  912TIP3    H224152   0.462   5.960  12.739 -0.8841  0.9550 -0.8967
  913TIP3   OH224153   2.616   4.336   4.655 -0.0471 -0.5146 -0.0952
  913TIP3    H124154   2.533   4.314   4.614 -0.0527 -0.6873  0.0072
  913TIP3    H224155   2.609   4.429   4.676 -1.5796 -1.1992  3.0182
  914TIP3   OH224156   1.625   2.800   0.488 -0.1268  0.3091  0.0272
  914TIP3    H124157   1.609   2.883   0.533 -0.2648  1.2822 -1.7686
  914TIP3    H224158   1.537   2.762   0.477 -0.0158 -0.4073  1.3932
  915TIP3   OH224159   3.469   3.131  13.491 -0.2615 -0.0800 -0.6243
  915TIP3    H124160   3.505   3.114  13.404 -1.3651 -3.0603 -0.6156
  915TIP3    H224161   3.527   3.086  13.551 -1.1722 -0.6293 -0.1283
  916TIP3   OH224162   6.726   2.990  15.114  0.2349  0.5475  1.0561
  916TIP3    H124163   6.717   3.022  15.204 -1.1656 -0.0113  1.1310
  916TIP3    H224164   6.644   2.945  15.096  0.6679  0.2854 -0.3704
  917TIP3   OH224165   0.607   1.361  13.608  0.8297 -0.0409  0.3170
  917TIP3    H124166   0.618   1.404  13.692 -0.0698 -0.6144  0.7438
  917TIP3    H224167   0.687   1.381  13.560  0.3387  2.3895  0.3549
  918TIP3   OH224168   1.238   3.428  13.220 -0.0974 -0.3127 -0.3215
  918TIP3    H124169   1.278   3.389  13.143  1.1799 -1.5036  0.8860
  918TIP3    H224170   1.181   3.360  13.255  0.1273 -0.1736  0.3416
  919TIP3   OH224171   0.293   4.361  16.002 -0.2953 -0.4233 -0.3036
  919TIP3    H124172   0.322   4.284  16.052  1.1048  0.2779  0.0206
  919TIP3    H224173   0.372   4.393  15.960 -0.0310  2.7979  2.2337
  920TIP3   OH224174   3.898   5.748   4.775 -0.0085  0.2229  0.3234
  920TIP3    H124175   3.860   5.823   4.729  0.9924 -0.0595 -1.0320
  920TIP3    H224176   3.832   5.723   4.840 -0.6394  1.8498  0.3544
  921TIP3   OH224177   3.158   0.496  17.058 -0.1196  0.0040 -0.1733
  921TIP3    H124178   3.083   0.538  17.101 -1.0937 -1.6154 -0.2091
  921TIP3    H224179   3.121   0.458  16.979  0.6869 -1.0866 -0.0385
  922TIP3   OH224180   3.109   1.490   4.543  0.0615  0.2199 -0.7533
  922TIP3    H124181   3.059   1.415   4.512 -1.5341  0.1763  1.6982
  922TIP3    H224182   3.139   1.465   4.631  1.2488  1.6988 -0.6923
  923TIP3   OH224183   5.755   4.481   6.663 -0.1077 -0.4529 -0.7974
  923TIP3    H124184   5.709   4.438   6.735 -1.8324  0.5452 -1.2362
  923TIP3    H224185   5.793   4.409   6.613  0.0964 -1.2295  0.4151
  924TIP3   OH224186   5.425   6.336   2.003  0.6043 -0.0418  0.5285
  924TIP3    H124187   5.405   6.408   1.943  0.1932  0.3334  1.1064
  924TIP3    H224188   5.493   6.370   2.061  1.1284 -0.4645  0.1715
  925TIP3   OH224189   2.428   0.829  13.092 -0.0635  0.2158 -0.1608
  925TIP3    H124190   2.369   0.758  13.116 -1.7258  1.8193  0.7076
  925TIP3    H224191   2.426   0.832  12.996  1.0988 -1.7222 -0.2923
  926TIP3   OH224192   1.285   3.804  12.475  0.1222 -0.1607 -0.1635
  926TIP3    H124193   1.204   3.819  12.426  0.7738 -1.3088 -1.6445
  926TIP3    H224194   1.302   3.888  12.518 -1.7003  0.1778 -0.0461
  927TIP3   OH224195   3.259   2.496   1.276 -0.2272 -0.2847 -0.1817
  927TIP3    H124196   3.276   2.425   1.337 -3.1533 -0.5691  0.4315
  927TIP3    H224197   3.225   2.567   1.330 -1.5402 -0.0303 -1.2892
  928TIP3   OH224198   5.800   3.094  12.168 -0.6188  0.0953  0.3311
  928TIP3    H124199   5.716   3.140  12.175 -0.6088  0.0048  1.0917
  928TIP3    H224200   5.826   3.107  12.077 -2.3231 -1.4109 -0.4413
  929TIP3   OH224201   0.401   6.731   3.740 -0.1047  0.1065 -0.0819
  929TIP3    H124202   0.414   6.761   3.650 -2.0491  1.5403  0.0402
  929TIP3    H224203   0.315   6.767   3.764  1.4754  2.0987  3.2737
  930TIP3   OH224204   2.902   2.120  13.202 -0.0028  0.0512  0.0881
  930TIP3    H124205   2.810   2.144  13.208  0.2099  0.5733  1.6146
  930TIP3    H224206   2.950   2.200  13.221  0.7266 -0.9008  2.6669
  931TIP3   OH224207   0.433   5.742   2.852 -0.5455  0.4254 -0.0088
  931TIP3    H124208   0.347   5.700   2.851 -0.3858  0.1017 -0.1725
  931TIP3    H224209   0.490   5.681   2.805 -0.7554  1.7534 -2.1198
  932TIP3   OH224210   6.623   4.473  11.731 -0.5490 -0.0072 -0.6547
  932TIP3    H124211   6.658   4.394  11.773  0.6092  0.2917 -1.0347
  932TIP3    H224212   6.528   4.460  11.732 -0.4183 -1.0257  0.0306
  933TIP3   OH224213   0.530   4.882   5.754  0.3957  0.1603  0.2712
  933TIP3    H124214   0.580   4.855   5.677 -0.4999 -0.1854 -0.2045
  933TIP3    H224215   0.440   4.853   5.736  0.5945 -2.3526  2.5671
  934TIP3   OH224216   1.773   5.183   0.023 -0.0231 -0.2662 -0.0673
  934TIP3    H124217   1.776   5.245   0.096 -0.2112  0.8437 -0.9698
  934TIP3    H224218   1.774   5.097   0.064 -0.8334  0.3336  1.2665
  935TIP3   OH224219   5.341   6.716   1.750  0.5981 -0.4450 -0.7327
  935TIP3    H124220   5.411   6.781   1.763  0.2261 -0.3296  0.8928
  935TIP3    H224221   5.285   6.725   1.827  0.2103 -2.3178 -0.7512
  936TIP3   OH224222   3.775   1.909  15.173  0.4389  0.6170  0.3949
  936TIP3    H124223   3.683   1.897  15.149  0.4387  2.6376 -0.8879
  936TIP3    H224224   3.813   1.821  15.170 -1.4160 -0.2482  0.9278
  937TIP3   OH224225   2.870   4.468  12.410 -0.5093  0.1904  0.2920
  937TIP3    H124226   2.873   4.508  12.497 -0.4664  0.1310  0.3177
  937TIP3    H224227   2.816   4.528  12.358 -3.0606 -1.2312  1.1133
  938TIP3   OH224228   5.203   6.395  13.085  0.0384  0.1285  0.0360
  938TIP3    H124229   5.179   6.361  13.171 -0.3468 -1.4481 -0.6575
  938TIP3    H224230   5.120   6.408  13.039  0.1762  1.9642  0.2143
  939TIP3   OH224231   0.509   5.383   4.523 -0.3758 -0.3436  0.0261
  939TIP3    H124232   0.531   5.363   4.432 -2.3275 -1.3429 -0.2842
  939TIP3    H224233   0.456   5.463   4.518 -0.9061 -0.6751  0.2058
  940TIP3   OH224234   5.949   6.400  16.985 -0.2720  0.1435  0.0480
  940TIP3    H124235   5.874   6.340  16.983 -0.6253  0.5380  0.8011
  940TIP3    H224236   5.981   6.402  16.895  0.1092 -1.6078  0.1043
  941TIP3   OH224237   4.298   4.550   3.028 -0.2823 -0.3226 -0.2182
  941TIP3    H124238   4.345   4.576   2.949 -1.6974 -0.5418 -1.1750
  941TIP3    H224239   4.343   4.471   3.059 -0.5113 -1.0208 -1.5910
  942TIP3   OH224240   4.980   1.551   0.459  0.3204 -0.5694 -0.1695
  942TIP3    H124241   5.040   1.625   0.455 -1.5472  0.9794 -2.8840
  942TIP3    H224242   4.946   1.552   0.548 -0.4450  2.5871 -0.3810
  943TIP3   OH224243   1.375   2.216  14.153 -0.7074 -0.8698 -0.1562
  943TIP3    H124244   1.344   2.250  14.069  0.4047  0.6728  0.0138
  943TIP3    H224245   1.454   2.166  14.131 -0.7436 -0.9549 -0.0928
  944TIP3   OH224246   1.664   2.310  10.371 -0.0125  0.3493  0.2294
  944TIP3    H124247   1.678   2.216  10.368 -0.2737  0.3368 -0.7084
  944TIP3    H224248   1.674   2.340  10.281  2.4366  1.5931  0.8399
  945TIP3   OH224249   3.740   5.754  15.046  0.2951  0.1152  0.0430
  945TIP3    H124250   3.723   5.797  15.129  0.1442  0.1537 -0.0062
  945TIP3    H224251   3.815   5.800  15.009  0.1478  0.3228  0.0005
  946TIP3   OH224252   5.206   3.446  14.981 -0.2108  1.0234  0.3413
  946TIP3    H124253   5.203   3.522  15.039 -1.3810  1.1967  0.0800
  946TIP3    H224254   5.131   3.393  15.006  0.9756 -0.4280  0.9833
  947TIP3   OH224255   5.193   2.568  15.429 -0.0160 -0.0118  0.5283
  947TIP3    H124256   5.150   2.558  15.344  0.8427  0.7132 -0.0053
  947TIP3    H224257   5.134   2.525  15.491 -1.6551  1.1857 -0.1357
  948TIP3   OH224258   3.390   6.484  11.622 -0.4287  0.1576  0.0789
  948TIP3    H124259   3.393   6.519  11.711  0.7986  1.0744 -0.2878
  948TIP3    H224260   3.469   6.430  11.614  0.6237  1.7529 -1.0587
  949TIP3   OH224261   2.345   4.729   3.824  0.2485 -0.3594 -0.6028
  949TIP3    H124262   2.400   4.663   3.782  0.2837 -0.9446  0.3479
  949TIP3    H224263   2.261   4.685   3.837 -0.1342  0.2058 -1.1350
  950TIP3   OH224264   3.405   6.284   3.115  0.6088 -0.6487  0.6091
  950TIP3    H124265   3.385   6.288   3.021  1.1611  0.7972  0.5320
  950TIP3    H224266   3.427   6.374   3.139 -0.4150 -0.8232  2.3425
  951TIP3   OH224267   0.056   0.184  11.773 -0.3075 -0.1276 -0.4090
  951TIP3    H124268   0.103   0.257  11.813  0.3318 -0.5877 -0.2901
  951TIP3    H224269   0.088   0.107  11.820 -2.4093 -0.3369  0.8086
  952TIP3   OH224270   4.121   4.952  15.985  0.2933 -0.5969  0.7652
  952TIP3    H124271   4.109   4.871  15.936 -1.8730  0.5500 -0.7843
  952TIP3    H224272   4.120   4.925  16.077  1.9423 -2.5273  0.2943
  953TIP3   OH224273   0.702   1.428   2.350  0.4455 -0.0951 -0.0588
  953TIP3    H124274   0.695   1.396   2.440  0.0649 -0.0302 -0.0617
  953TIP3    H224275   0.648   1.367   2.299  1.4056 -0.6903 -0.3930
  954TIP3   OH224276   0.655   1.590  13.854 -0.6517  0.6004  0.1552
  954TIP3    H124277   0.734   1.559  13.900 -0.7623  1.4939  0.9802
  954TIP3    H224278   0.583   1.564  13.911 -1.1080 -1.4018 -1.2265
  955TIP3   OH224279   6.604   2.563  16.881  0.2838  0.7467 -0.4938
  955TIP3    H124280   6.657   2.639  16.904  1.3102 -0.6367  2.2451
  955TIP3    H224281   6.665   2.505  16.836  0.4112  0.2864  0.2424
  956TIP3   OH224282   0.590   5.905  16.135 -0.0729  0.1725 -0.8548
  956TIP3    H124283   0.615   5.953  16.213  3.3681 -0.6074 -1.3072
  956TIP3    H224284   0.496   5.890  16.144 -1.1574  5.4984  0.0322
  957TIP3   OH224285   2.418   3.013   4.247  0.3576  0.2115 -0.4895
  957TIP3    H124286   2.412   3.022   4.342 -1.0333  0.0842 -0.5444
  957TIP3    H224287   2.476   2.937   4.233 -0.1529 -0.3237  0.2742
  958TIP3   OH224288   0.042   6.523   3.463 -0.4359  0.3076  0.3931
  958TIP3    H124289  -0.026   6.587   3.484 -0.7730  0.3795 -0.8484
  958TIP3    H224290  -0.001   6.438   3.467 -0.3745  0.2820  0.5077
  959TIP3   OH224291   4.297   1.123   4.531  0.1039 -0.2321  0.2007
  959TIP3    H124292   4.387   1.132   4.498 -0.2446  0.3392 -0.6409
  959TIP3    H224293   4.243   1.163   4.463 -0.6326  1.3396  1.6560
  960TIP3   OH224294   5.329   4.080  13.541  0.4262  0.6883 -0.3410
  960TIP3    H124295   5.256   4.128  13.580 -0.2653 -0.6896  0.1497
  960TIP3    H224296   5.307   3.988  13.555  0.9359  0.1666 -2.6416
  961TIP3   OH224297   1.811   3.132  10.624  0.3390  0.1408 -0.2141
  961TIP3    H124298   1.746   3.062  10.625  0.5463 -0.0493  0.4928
  961TIP3    H224299   1.767   3.206  10.582 -1.0586  0.6856  2.0450
  962TIP3   OH224300   6.318   0.852  15.468  0.7538  0.4353  0.1950
  962TIP3    H124301   6.310   0.923  15.531  2.3353  0.2071  0.6912
  962TIP3    H224302   6.231   0.812  15.465  0.2972  1.3369  1.1581
  963TIP3   OH224303   1.529   1.696   3.862 -0.1000  0.1676  0.1306
  963TIP3    H124304   1.515   1.632   3.792 -1.1448  1.7583 -1.1938
  963TIP3    H224305   1.505   1.780   3.823 -0.1294  1.2037  2.2339
  964TIP3   OH224306   4.395   0.307  12.492  0.2158 -0.0960  0.0734
  964TIP3    H124307   4.357   0.221  12.475 -0.0868 -0.1179  0.8430
  964TIP3    H224308   4.410   0.309  12.587 -0.6918  1.0650  0.2193
  965TIP3   OH224309   2.440   3.548  14.939  0.0580  0.2664 -0.4353
  965TIP3    H124310   2.495   3.572  14.864  0.1935  2.1328  0.1971
  965TIP3    H224311   2.368   3.498  14.901  1.1589 -0.5410 -1.5354
  966TIP3   OH224312   6.439   0.908  15.237  0.0038 -0.4677  0.0690
  966TIP3    H124313   6.377   0.889  15.308  0.8839 -0.5404  0.8346
  966TIP3    H224314   6.441   1.004  15.233 -1.4851 -0.4334 -1.1770
  967TIP3   OH224315   3.379   6.217  15.833 -0.1919 -0.1481  0.2135
  967TIP3    H124316   3.321   6.292  15.848 -0.7418 -0.4109 -0.5213
  967TIP3    H224317   3.452   6.230  15.894 -0.9714  0.2392  1.0780
  968TIP3   OH224318   5.696   3.915   3.193  0.6570 -0.9314  0.3452
  968TIP3    H124319   5.623   3.862   3.161 -1.2207  1.3314  0.6583
  968TIP3    H224320   5.764   3.903   3.127  0.0662 -3.1259  0.0562
  969TIP3   OH224321   5.101   4.713  10.932 -0.0517 -0.6811 -0.6284
  969TIP3    H124322   5.153   4.634  10.919  1.9998  0.1899  1.4603
  969TIP3    H224323   5.111   4.763  10.851  2.2503 -0.6794 -0.4106
  970TIP3   OH224324   3.847   5.905   6.209  0.1950 -1.0283 -0.6953
  970TIP3    H124325   3.837   5.826   6.155 -1.2484 -1.9520  0.8621
  970TIP3    H224326   3.924   5.887   6.263  0.8164 -0.6734 -1.4351
  971TIP3   OH224327   4.424   0.832  14.629 -0.2257 -0.5641 -0.2608
  971TIP3    H124328   4.332   0.827  14.655 -0.6644  1.6543 -1.1249
  971TIP3    H224329   4.472   0.840  14.712 -0.8917 -0.8359  0.1560
  972TIP3   OH224330   6.269   5.454   2.530  0.3312  0.0609  0.1595
  972TIP3    H124331   6.235   5.434   2.443 -1.7512  0.8028  0.7311
  972TIP3    H224332   6.221   5.532   2.557  0.6046 -0.3875  2.1316
  973TIP3   OH224333   4.387   4.364  10.868 -0.1423  0.4667  0.4794
  973TIP3    H124334   4.445   4.299  10.828  0.7212  0.9564  0.9017
  973TIP3    H224335   4.361   4.420  10.795 -0.9189 -0.3491  0.1057
  974TIP3   OH224336   4.843   4.025   5.364  0.1874  0.2356 -0.4504
  974TIP3    H124337   4.812   3.974   5.439  0.2790  0.0481 -0.5401
  974TIP3    H224338   4.877   4.106   5.403  0.5926 -0.0283 -0.2549
  975TIP3   OH224339   6.159   1.833  12.538 -0.1874 -0.0364 -0.0972
  975TIP3    H124340   6.227   1.883  12.582 -1.8065  1.0034  1.3498
  975TIP3    H224341   6.119   1.781  12.608 -2.5295  1.3127 -0.3238
  976TIP3   OH224342   6.713   1.763  13.099  0.0321 -0.2105  0.3905
  976TIP3    H124343   6.618   1.761  13.110 -0.0115 -0.3962  0.0124
  976TIP3    H224344   6.740   1.849  13.132 -0.2167 -0.3164  0.8760
  977TIP3   OH224345   6.337   3.289   6.633 -0.4697  0.7371 -0.0240
  977TIP3    H124346   6.404   3.262   6.570 -0.4950 -0.9325  0.6349
  977TIP3    H224347   6.386   3.336   6.701 -0.0409  0.0369  0.1576
  978TIP3   OH224348   3.404   5.755  12.112  0.3867  0.2814  0.1631
  978TIP3    H124349   3.464   5.818  12.072  1.3068 -1.4785 -1.3421
  978TIP3    H224350   3.318   5.777  12.075  0.4799  1.3652  0.5620
  979TIP3   OH224351   1.848   5.847   4.137 -0.3018 -0.4714  0.4687
  979TIP3    H124352   1.803   5.837   4.053  1.2382 -1.3794 -0.2963
  979TIP3    H224353   1.779   5.870   4.199 -1.6209 -0.6988 -0.8671
  980TIP3   OH224354   1.736   5.914   2.683 -0.0461  0.1649  0.5905
  980TIP3    H124355   1.661   5.888   2.736  0.5811 -3.1838  0.0695
  980TIP3    H224356   1.812   5.881   2.730  0.8476  0.7783 -0.3762
  981TIP3   OH224357   4.157   0.572   3.232  0.1491 -0.3955 -0.1774
  981TIP3    H124358   4.236   0.610   3.271  0.0260 -0.8082  0.4792
  981TIP3    H224359   4.176   0.479   3.226 -0.5238 -0.5906  0.5689
  982TIP3   OH224360   4.963   1.852   1.262  0.1764 -0.6264 -0.1156
  982TIP3    H124361   4.875   1.853   1.226  0.0036  0.8313  0.2976
  982TIP3    H224362   5.020   1.859   1.186 -0.1684  1.5584 -0.2419
  983TIP3   OH224363   3.291   2.993  15.882 -0.8086  0.3175 -0.0945
  983TIP3    H124364   3.336   3.076  15.901  1.4273 -0.4793 -1.4532
  983TIP3    H224365   3.303   2.981  15.788 -0.0296 -2.1017  0.2591
  984TIP3   OH224366   2.911   6.782   0.732  0.0591  0.0724 -0.0630
  984TIP3    H124367   2.902   6.797   0.826 -0.5529  1.0626 -0.2593
  984TIP3    H224368   3.002   6.806   0.713  0.0068  0.4736  0.1779
  985TIP3   OH224369   1.916   6.688   0.183  0.4757 -0.1652 -0.3510
  985TIP3    H124370   1.838   6.678   0.129  0.5017 -0.2641 -0.3703
  985TIP3    H224371   1.885   6.731   0.263  0.6380  1.1512 -0.9571
  986TIP3   OH224372   3.908   0.025   4.428 -0.0131 -0.0699  0.2984
  986TIP3    H124373   3.937  -0.007   4.513 -0.0017 -2.6054 -0.5864
  986TIP3    H224374   3.816   0.047   4.441 -0.0846 -0.6913  0.8835
  987TIP3   OH224375   1.192   5.494  14.820 -0.5114 -0.0885 -0.0825
  987TIP3    H124376   1.241   5.424  14.863 -0.0650  0.8208  0.9438
  987TIP3    H224377   1.226   5.575  14.860 -3.6784  0.5472  1.6650
  988TIP3   OH224378   0.904   5.040   1.055 -0.2411  0.0520 -0.6368
  988TIP3    H124379   0.959   5.097   1.108 -0.6220  0.4316 -0.6379
  988TIP3    H224380   0.960   5.010   0.984  0.2325 -0.3417 -0.1031
  989TIP3   OH224381   4.209   0.807   4.648  0.2010  0.1161  0.4544
  989TIP3    H124382   4.133   0.751   4.641 -0.1978  0.6589  0.3302
  989TIP3    H224383   4.200   0.869   4.576  0.5979  0.3740  0.6187
  990TIP3   OH224384   3.104   0.507   0.309 -0.2820  0.1789  0.4771
  990TIP3    H124385   3.054   0.479   0.232  1.0727 -1.5295  0.1347
  990TIP3    H224386   3.187   0.538   0.273  0.0405  0.1475  1.1831
  991TIP3   OH224387   1.381   4.783   3.507 -0.2009 -0.0892  0.6328
  991TIP3    H124388   1.452   4.749   3.562  0.2771 -0.9247 -0.4614
  991TIP3    H224389   1.332   4.705   3.481 -0.5649  0.3220  0.0794
  992TIP3   OH224390   3.274   2.227   2.190  0.1441  0.3999 -0.1796
  992TIP3    H124391   3.220   2.296   2.151  0.1578  1.1803  1.1167
  992TIP3    H224392   3.319   2.188   2.116 -0.7767  0.9844 -1.0840
  993TIP3   OH224393   2.898   0.574  17.082 -0.5662  0.4873 -0.2098
  993TIP3    H124394   2.915   0.656  17.129 -0.1322 -0.3289  1.1148
  993TIP3    H224395   2.915   0.596  16.990  1.3127  1.4429  0.2966
  994TIP3   OH224396   4.354   2.669   4.754 -0.5689 -0.1963 -1.1391
  994TIP3    H124397   4.300   2.748   4.746  0.4534  0.7521  0.7616
  994TIP3    H224398   4.443   2.698   4.734 -0.2014 -0.9174 -0.5968
  995TIP3   OH224399   2.754   1.606  12.499  0.4609 -0.4232  0.1558
  995TIP3    H124400   2.693   1.533  12.487  1.9923 -1.6993 -0.0576
  995TIP3    H224401   2.803   1.609  12.417  0.5764  0.7188  0.2542
  996TIP3   OH224402   6.458   1.775   4.715  0.6814 -0.0705  0.1166
  996TIP3    H124403   6.521   1.718   4.761  1.5098  0.3309 -0.4892
  996TIP3    H224404   6.372   1.740   4.739  0.9414  1.3675  3.6368
  997TIP3   OH224405   6.356   5.872  17.024 -0.2025  0.2688  0.7997
  997TIP3    H124406   6.381   5.940  17.087 -0.9982  1.4494 -0.1357
  997TIP3    H224407   6.271   5.841  17.055 -0.2049  0.2520  0.7759
  998TIP3   OH224408   4.397   3.542   4.940 -0.2964  0.1015  0.0835
  998TIP3    H124409   4.304   3.542   4.962 -0.4491  0.6608 -0.5451
  998TIP3    H224410   4.412   3.626   4.897  0.0977 -0.7331 -1.4799
  999TIP3   OH224411   0.799   2.651   3.054  0.3258  0.1668  0.0960
  999TIP3    H124412   0.848   2.585   3.103  1.4803  0.2131 -0.9311
  999TIP3    H224413   0.709   2.644   3.086  0.6041 -1.3134  0.6121
 1000TIP3   OH224414   0.662   2.660   0.128  0.2857  0.9731  0.2763
 1000TIP3    H124415   0.585   2.637   0.076  0.3786  1.3869 -0.0535
 1000TIP3    H224416   0.697   2.576   0.158  0.6062  0.6713 -0.8833
 1001TIP3   OH224417   4.485   4.033  14.563  0.3994  0.1142 -0.5285
 1001TIP3    H124418   4.475   4.009  14.655 -2.3232  1.2487 -0.4277
 1001TIP3    H224419   4.561   3.983  14.533  0.5185 -1.3564  1.9449
 1002TIP3   OH224420   1.865   4.905  14.946 -0.3754 -0.3477  0.3408
 1002TIP3    H124421   1.871   4.896  15.042  1.8169  1.1200  0.4075
 1002TIP3    H224422   1.791   4.964  14.933 -0.7779 -0.6579  1.1039
 1003TIP3   OH224423   3.618   1.342   3.089  0.2112  0.2531  0.4119
 1003TIP3    H124424   3.644   1.416   3.144  1.1168  1.2732 -1.3131
 1003TIP3    H224425   3.695   1.286   3.087  0.8564  1.1180 -1.1895
 1004TIP3   OH224426   4.110   4.246  11.662 -0.3146  0.1124 -0.9249
 1004TIP3    H124427   4.089   4.339  11.661  0.3643  0.4197  2.3374
 1004TIP3    H224428   4.024   4.203  11.669 -0.5459  0.7236  0.5177
 1005TIP3   OH224429   2.446   0.569   3.881  0.1236  0.3869 -0.5095
 1005TIP3    H124430   2.539   0.546   3.876  0.2004  0.7552 -0.8610
 1005TIP3    H224431   2.411   0.514   3.951  0.6320  0.3281 -0.2992
 1006TIP3   OH224432   0.197   0.479   5.451  0.2184  0.0542 -0.1437
 1006TIP3    H124433   0.251   0.537   5.397  3.6878 -2.0804  0.7151
 1006TIP3    H224434   0.211   0.510   5.541  1.1018 -1.2780  0.2001
 1007TIP3   OH224435   0.458   5.451   1.485 -0.1817 -0.8481  0.2336
 1007TIP3    H124436   0.514   5.493   1.420  0.1329 -2.1465 -0.3713
 1007TIP3    H224437   0.511   5.380   1.521 -1.2468 -1.8329 -0.0399
 1008TIP3   OH224438   3.147   4.056  16.721  0.3801 -0.4921 -0.1619
 1008TIP3    H124439   3.192   3.993  16.665 -1.5101 -1.0971 -1.0394
 1008TIP3    H224440   3.154   4.139  16.675  1.5044 -0.3435  0.2398
 1009TIP3   OH224441   2.239   2.996  12.712 -0.1400 -0.2822 -0.0152
 1009TIP3    H124442   2.151   3.025  12.735  0.0564  0.0617  0.3051
 1009TIP3    H224443   2.234   2.980  12.617  0.2332  2.6858 -0.6498
 1010TIP3   OH224444   2.726   0.122   2.342 -0.3005  0.2565  0.4679
 1010TIP3    H124445   2.728   0.167   2.426 -1.6389  1.3219 -0.0392
 1010TIP3    H224446   2.775   0.180   2.283 -1.1681  0.5692  0.0435
 1011TIP3   OH224447   4.999   2.556  11.945 -0.1144 -0.2811 -0.1028
 1011TIP3    H124448   5.088   2.526  11.964  0.1245  0.3598 -0.1795
 1011TIP3    H224449   4.987   2.539  11.851 -0.2870 -0.9053  0.0316
 1012TIP3   OH224450   3.363   1.361  13.730  0.0928  0.4947  0.1803
 1012TIP3    H124451   3.340   1.361  13.637  1.1438  0.5304 -0.0902
 1012TIP3    H224452   3.388   1.451  13.749 -3.0427  1.2556  1.2867
 1013TIP3   OH224453   0.572   6.460  13.483  0.3434  0.2333 -0.2150
 1013TIP3    H124454   0.651   6.423  13.521  1.2663 -2.0162 -3.7804
 1013TIP3    H224455   0.603   6.532  13.427 -0.5967  1.5762  0.9245
 1014TIP3   OH224456   0.477   2.149  14.947 -0.8819  0.2682  0.0632
 1014TIP3    H124457   0.490   2.091  15.022  0.8934 -0.2987 -0.6293
 1014TIP3    H224458   0.550   2.211  14.951 -0.4654 -0.0810 -1.4420
 1015TIP3   OH224459   5.696   3.126  15.949 -0.3100 -0.0227  0.2527
 1015TIP3    H124460   5.697   3.222  15.946 -0.1444 -0.0002  0.9357
 1015TIP3    H224461   5.683   3.105  16.041 -1.2507 -0.6567 -0.0171
 1016TIP3   OH224462   1.794   6.703   1.511  0.0618  0.4011  0.1656
 1016TIP3    H124463   1.754   6.745   1.587 -1.5556 -2.4893  1.0524
 1016TIP3    H224464   1.737   6.728   1.437  0.6581  1.8356  0.1654
 1017TIP3   OH224465   1.237   1.066   2.834  0.1158 -0.2261 -0.4466
 1017TIP3    H124466   1.253   1.155   2.866  1.3928 -0.5581 -0.0964
 1017TIP3    H224467   1.147   1.068   2.802  0.1612  1.2235 -0.5659
 1018TIP3   OH224468   1.326   1.645   5.619  0.3271 -0.0251  0.7450
 1018TIP3    H124469   1.294   1.617   5.533  2.8702 -0.0470 -0.2947
 1018TIP3    H224470   1.347   1.738   5.607  0.5953 -0.0066  1.3536
 1019TIP3   OH224471   4.159   1.346   1.443 -0.0426 -0.1120 -0.0216
 1019TIP3    H124472   4.195   1.435   1.443 -0.4254  0.0560 -1.0198
 1019TIP3    H224473   4.129   1.333   1.353 -0.6167 -1.0037  0.2950
 1020TIP3   OH224474   2.664   1.879  14.366  0.2564 -0.7139 -0.0577
 1020TIP3    H124475   2.572   1.900  14.378 -0.0485 -1.5196 -0.8689
 1020TIP3    H224476   2.674   1.868  14.272  1.8396  2.2450 -0.3698
 1021TIP3   OH224477   2.869   3.078   4.646  0.1915  0.4291  0.2619
 1021TIP3    H124478   2.939   3.141   4.660  0.5793 -0.0368  0.4549
 1021TIP3    H224479   2.891   3.035   4.563  1.7887 -1.7869  1.7010
 1022TIP3   OH224480   2.928   0.095   6.570  0.2215  0.6166  0.7120
 1022TIP3    H124481   2.998   0.055   6.622  1.9888 -0.4379 -2.2406
 1022TIP3    H224482   2.856   0.032   6.574  0.1112  0.7967  2.2051
 1023TIP3   OH224483   1.417   6.381   0.516 -0.0293 -0.8278 -0.7652
 1023TIP3    H124484   1.502   6.352   0.482  0.4932  1.6282 -1.7864
 1023TIP3    H224485   1.439   6.453   0.576 -1.3512 -0.4817 -0.6713
 1024TIP3   OH224486   0.731   2.279   3.692  0.6781  0.3522 -0.2248
 1024TIP3    H124487   0.773   2.274   3.606 -1.1474 -2.7524 -1.0768
 1024TIP3    H224488   0.791   2.233   3.750  0.9293  0.5992 -0.2856
 1025TIP3   OH224489   5.773   1.269   5.070 -0.1028 -0.5154  0.2448
 1025TIP3    H124490   5.706   1.331   5.098  1.3997  0.6519  1.4162
 1025TIP3    H224491   5.797   1.296   4.981 -0.5136 -0.3658  0.1809
 1026TIP3   OH224492   3.634   0.314  11.254 -0.0500 -0.1166 -0.2150
 1026TIP3    H124493   3.538   0.320  11.255 -0.1052 -0.8345  0.6488
 1026TIP3    H224494   3.653   0.250  11.186 -0.3586 -1.9598  1.3523
 1027TIP3   OH224495   2.938   0.887  12.715  0.1386 -0.4161 -0.2106
 1027TIP3    H124496   2.972   0.843  12.637  0.4207 -0.1306 -0.2517
 1027TIP3    H224497   3.016   0.912  12.764 -0.0433 -2.5417  1.2868
 1028TIP3   OH224498   4.187   2.023  14.782 -0.2176 -0.7306  0.2415
 1028TIP3    H124499   4.166   1.992  14.694  0.6494  2.0962 -1.0754
 1028TIP3    H224500   4.115   1.991  14.836 -0.7255 -2.6364 -1.4360
 1029TIP3   OH224501   6.175   6.446  15.835  0.6718  0.1464  0.0832
 1029TIP3    H124502   6.186   6.369  15.889  1.6034  1.9854  2.6919
 1029TIP3    H224503   6.081   6.447  15.813  0.3157 -0.7781  1.4875
 1030TIP3   OH224504   1.278   5.755  14.326  0.3181  0.3296 -0.2472
 1030TIP3    H124505   1.196   5.706  14.336  0.2936  0.5654  0.7735
 1030TIP3    H224506   1.269   5.798  14.241 -0.2919 -0.2533 -0.4911
 1031TIP3   OH224507   6.201   0.371   4.674  0.1566  0.2984 -0.2848
 1031TIP3    H124508   6.117   0.416   4.675 -2.4712 -3.8622 -3.2483
 1031TIP3    H224509   6.190   0.297   4.734  2.0645  0.0590 -0.1530
 1032TIP3   OH224510   0.822   0.602  12.896  0.3022  0.1759 -0.1012
 1032TIP3    H124511   0.860   0.531  12.843  1.0249  0.2748  0.2749
 1032TIP3    H224512   0.730   0.577  12.907  0.5074 -0.6088 -0.1266
 1033TIP3   OH224513   2.811   6.282   0.945 -0.6142 -0.2061 -0.1810
 1033TIP3    H124514   2.855   6.342   0.885  0.3422 -1.3327 -0.6727
 1033TIP3    H224515   2.882   6.226   0.977 -1.4563 -1.0122  0.3034
 1034TIP3   OH224516   1.239   5.839   4.424 -0.1762  0.3638  0.1347
 1034TIP3    H124517   1.208   5.927   4.402 -0.5689  0.0769 -0.4576
 1034TIP3    H224518   1.192   5.816   4.504  2.4094  2.0493  2.3563
 1035TIP3   OH224519   1.050   5.589  14.341 -0.1753  0.5802  0.2356
 1035TIP3    H124520   1.084   5.503  14.318  0.6970  1.0224 -0.1605
 1035TIP3    H224521   0.966   5.595  14.295 -0.5098 -0.2558  0.7018
 1036TIP3   OH224522   4.330   5.484   3.929  0.2440 -0.2175 -0.1211
 1036TIP3    H124523   4.376   5.498   4.011  2.1030 -0.0175 -1.1395
 1036TIP3    H224524   4.296   5.395   3.935  1.0447 -0.4831  0.5407
 1037TIP3   OH224525   1.825   5.109   3.515 -0.0462  0.1527 -0.2012
 1037TIP3    H124526   1.793   5.040   3.457 -1.7829  0.9959 -0.3039
 1037TIP3    H224527   1.753   5.173   3.519  0.0841  0.2748  2.6464
 1038TIP3   OH224528   1.042   2.755   3.387  0.7369 -0.5309 -0.1893
 1038TIP3    H124529   1.129   2.767   3.349 -0.5256  1.6151 -2.7968
 1038TIP3    H224530   1.001   2.688   3.332 -0.2634  0.7554 -1.0695
 1039TIP3   OH224531   5.012   1.090   2.604  0.1997  0.1061 -0.0615
 1039TIP3    H124532   4.925   1.080   2.643 -0.0236  0.1024 -0.5539
 1039TIP3    H224533   5.052   1.004   2.612  0.6569  0.4138  1.3193
 1040TIP3   OH224534   5.876   1.588   0.756  0.3370  0.1506  0.0952
 1040TIP3    H124535   5.833   1.566   0.838  0.8512 -1.3215 -0.0070
 1040TIP3    H224536   5.886   1.505   0.710  2.5003  0.5264 -0.2485
 1041TIP3   OH224537   0.407   3.092   6.278 -0.2195 -0.2636 -0.3433
 1041TIP3    H124538   0.395   3.009   6.324 -0.5933  0.3029  0.6121
 1041TIP3    H224539   0.368   3.158   6.336 -3.3927  0.1914 -2.7207
 1042TIP3   OH224540   6.212   3.573  11.431 -0.1724  0.3469  0.6520
 1042TIP3    H124541   6.203   3.514  11.356  1.8674 -0.4977  0.9733
 1042TIP3    H224542   6.179   3.522  11.505 -0.4986  0.4874  0.6056
 1043TIP3   OH224543   2.301   0.845  14.291  0.6194 -0.1865 -0.3875
 1043TIP3    H124544   2.294   0.818  14.200  0.8880 -0.0656 -0.4447
 1043TIP3    H224545   2.337   0.934  14.287  1.1524 -0.3823 -0.1491
 1044TIP3   OH224546   1.516   1.054  12.130 -0.0319  0.8621  0.0867
 1044TIP3    H124547   1.544   0.985  12.190  0.4263 -0.8116 -1.9580
 1044TIP3    H224548   1.500   1.010  12.047  1.2466  3.3221 -1.6059
 1045TIP3   OH224549   1.585   0.366   3.232  0.2554 -0.2033 -0.1579
 1045TIP3    H124550   1.555   0.434   3.172 -0.7764 -0.9801 -0.5562
 1045TIP3    H224551   1.505   0.330   3.270  0.6852 -1.8504 -0.7137
 1046TIP3   OH224552   6.545   1.380   5.382  0.6535  0.6652  0.0083
 1046TIP3    H124553   6.542   1.321   5.306 -0.1368  0.6907  0.0044
 1046TIP3    H224554   6.605   1.449   5.356 -0.9731  1.6646 -1.3633
 1047TIP3   OH224555   0.951   2.356   3.386  0.5435  0.5005  0.5961
 1047TIP3    H124556   0.862   2.321   3.377  0.0000  1.9216  0.2522
 1047TIP3    H224557   1.007   2.288   3.350 -0.6771  1.0538 -2.6835
 1048TIP3   OH224558   4.374   5.932  12.999 -0.3769  0.3749 -0.1533
 1048TIP3    H124559   4.321   5.925  13.079  1.2135  0.5747  0.9581
 1048TIP3    H224560   4.341   5.862  12.943 -0.8352 -0.4704  1.1055
 1049TIP3   OH224561   5.523   4.236  14.361 -0.4836  0.1880  0.4539
 1049TIP3    H124562   5.444   4.215  14.313 -1.0702  0.2855  1.3569
 1049TIP3    H224563   5.493   4.266  14.447  0.5400 -0.5355  1.1065
 1050TIP3   OH224564   3.432   6.099  10.281  0.1978 -0.1147  0.1636
 1050TIP3    H124565   3.354   6.045  10.293  0.5800 -0.8202 -0.4372
 1050TIP3    H224566   3.454   6.128  10.369 -0.3620 -0.4510  0.4244
 1051TIP3   OH224567   5.323   4.652  12.920  0.2108 -0.3280  0.4793
 1051TIP3    H124568   5.324   4.596  12.842 -1.0413 -0.0047  0.2128
 1051TIP3    H224569   5.332   4.590  12.993  1.8694 -0.5903  0.0806
 1052TIP3   OH224570   2.713   5.376   5.311 -0.3750  0.4471 -0.4864
 1052TIP3    H124571   2.752   5.437   5.374 -2.4781  0.8911  0.4486
 1052TIP3    H224572   2.657   5.319   5.364  0.3084 -1.3223 -1.5533
 1053TIP3   OH224573   0.938   6.576   6.088  0.1036  0.6497  0.3577
 1053TIP3    H124574   1.017   6.625   6.111  0.4550  0.1517  0.2304
 1053TIP3    H224575   0.933   6.581   5.993 -1.1539  2.4063  0.4878
 1054TIP3   OH224576   0.022   2.682   3.029 -0.1116  0.1582 -0.2418
 1054TIP3    H124577   0.105   2.718   3.059 -0.1359  2.0903 -2.2731
 1054TIP3    H224578   0.046   2.607   2.975  0.3377  0.6183 -0.6948
 1055TIP3   OH224579   1.290   0.895   5.658  0.2980  0.4147  0.1089
 1055TIP3    H124580   1.382   0.894   5.684  1.3731 -2.0658 -3.1414
 1055TIP3    H224581   1.256   0.810   5.687 -0.5219  0.6559 -0.1277
 1056TIP3   OH224582   1.806   4.304  15.067  0.4308  0.0260 -0.5208
 1056TIP3    H124583   1.741   4.373  15.066 -1.9407 -1.9883  1.3748
 1056TIP3    H224584   1.770   4.237  15.008  1.0861 -0.8756  0.0817
 1057TIP3   OH224585   6.637   1.492   0.608 -0.2892  0.1000  0.0667
 1057TIP3    H124586   6.643   1.401   0.579  1.5003  0.4670 -0.8177
 1057TIP3    H224587   6.726   1.527   0.597 -0.4675  1.4226  2.1949
 1058TIP3   OH224588   4.198   5.153  15.538 -0.2668  0.3511 -0.1917
 1058TIP3    H124589   4.139   5.116  15.604 -0.1829 -0.9894 -0.8599
 1058TIP3    H224590   4.140   5.192  15.473 -0.3833  0.1448 -0.2107
 1059TIP3   OH224591   4.397   6.381   1.914 -0.9063 -0.4125 -0.3357
 1059TIP3    H124592   4.391   6.471   1.881 -0.0031 -0.7365 -1.4312
 1059TIP3    H224593   4.488   6.372   1.942 -0.8180 -1.1788 -0.8418
 1060TIP3   OH224594   5.599   5.246  15.830  0.0655  0.0739 -0.0745
 1060TIP3    H124595   5.614   5.199  15.747 -2.1923  1.0347 -1.1262
 1060TIP3    H224596   5.510   5.220  15.856  0.2540  0.7952  1.3742
 1061TIP3   OH224597   4.709   4.333  16.503  0.3399 -0.4687  0.1814
 1061TIP3    H124598   4.790   4.364  16.543  0.7557 -1.1870 -0.0999
 1061TIP3    H224599   4.668   4.413  16.469  2.6104 -0.3837 -2.7718
 1062TIP3   OH224600   5.914   3.419   0.038  0.2280  0.0030 -0.6098
 1062TIP3    H124601   5.995   3.454   0.074  0.0182  0.3155 -0.4394
 1062TIP3    H224602   5.857   3.495   0.027  0.1646 -0.1358 -1.2821
 1063TIP3   OH224603   2.792   5.520   4.755  0.2645 -0.1543 -0.0814
 1063TIP3    H124604   2.828   5.477   4.678  1.6934 -0.7738  0.8917
 1063TIP3    H224605   2.764   5.449   4.812  1.8288  0.1551  1.1584
 1064TIP3   OH224606   5.190   6.496   4.314 -0.2211 -0.0120 -0.4357
 1064TIP3    H124607   5.156   6.406   4.319  0.0312 -0.1566 -1.0989
 1064TIP3    H224608   5.205   6.521   4.405  2.0045 -1.5423 -0.3014
 1065TIP3   OH224609   6.775   0.443  14.010 -0.4063 -0.3758 -0.1629
 1065TIP3    H124610   6.749   0.483  14.093 -0.2454  1.2708 -0.8558
 1065TIP3    H224611   6.868   0.423  14.022 -0.5335 -0.7439  0.2587
 1066TIP3   OH224612   3.711   3.659   5.688  0.3541  0.0525 -0.7893
 1066TIP3    H124613   3.628   3.663   5.735  1.0175  0.3240  0.4116
 1066TIP3    H224614   3.767   3.605   5.744  1.6207  1.5829 -0.5131
 1067TIP3   OH224615   0.782   4.604  13.577 -0.0271 -0.5305  0.5846
 1067TIP3    H124616   0.806   4.549  13.651 -0.3648 -0.3356  0.8465
 1067TIP3    H224617   0.790   4.547  13.501 -0.3216 -0.9324  0.8446
 1068TIP3   OH224618   4.332   6.412  16.809 -0.4544 -0.2765  0.1830
 1068TIP3    H124619   4.395   6.453  16.749  0.0140 -0.9323  0.2137
 1068TIP3    H224620   4.291   6.485  16.855 -0.8990  0.2524 -1.0063
 1069TIP3   OH224621   0.211   3.476   5.076  0.7127  0.3836 -0.2367
 1069TIP3    H124622   0.294   3.511   5.045 -0.5948  2.6601 -1.3748
 1069TIP3    H224623   0.166   3.550   5.116 -0.8743 -0.7375  0.1799
 1070TIP3   OH224624   5.580   0.399   0.761  0.1281  0.3141  0.1999
 1070TIP3    H124625   5.576   0.311   0.798  0.1660  0.9700  1.8572
 1070TIP3    H224626   5.510   0.447   0.806 -0.3662  0.9611 -1.1941
 1071TIP3   OH224627   1.575   6.327  10.972  0.2508  0.2304 -0.4166
 1071TIP3    H124628   1.511   6.257  10.984  0.3443  0.2937  0.4987
 1071TIP3    H224629   1.659   6.282  10.960  0.2057  0.1752 -0.5263
 1072TIP3   OH224630   0.872   1.858  11.262  0.0285 -0.6578  0.0549
 1072TIP3    H124631   0.840   1.903  11.185  1.2695  1.1223  0.5161
 1072TIP3    H224632   0.869   1.765  11.239 -1.5145 -0.3083 -1.3511
 1073TIP3   OH224633   4.932   6.678   1.352 -0.0153  0.0621 -0.3865
 1073TIP3    H124634   4.876   6.725   1.290 -0.7761  0.2208  0.4104
 1073TIP3    H224635   4.952   6.742   1.420  1.1933  0.0249 -0.6862
 1074TIP3   OH224636   2.049   0.418   0.197  0.3932  0.7787 -0.1798
 1074TIP3    H124637   2.140   0.404   0.171  0.9255  1.6069  1.1208
 1074TIP3    H224638   2.011   0.467   0.125  0.2344 -1.6786 -1.8816
 1075TIP3   OH224639   1.510   4.854   0.362 -0.0128  0.0218 -0.1800
 1075TIP3    H124640   1.440   4.789   0.353 -0.9430  1.1183 -1.2088
 1075TIP3    H224641   1.503   4.908   0.283  0.2934  1.7803  0.9315
 1076TIP3   OH224642   3.345   4.805  14.232  0.0735 -0.3999  0.4306
 1076TIP3    H124643   3.308   4.850  14.157 -0.2121  0.7541  1.2371
 1076TIP3    H224644   3.320   4.859  14.307  3.4237  0.5243  1.0395
 1077TIP3   OH224645   2.119   3.057  14.154  0.3763 -0.2334  0.2395
 1077TIP3    H124646   2.041   3.081  14.205  0.0935  0.5089 -0.5225
 1077TIP3    H224647   2.182   3.128  14.171  0.2545  0.0584 -0.4771
 1078TIP3   OH224648   1.067   0.262   4.928 -0.0082 -0.4010  0.2948
 1078TIP3    H124649   1.128   0.330   4.900  0.6333  0.2627  3.0416
 1078TIP3    H224650   0.988   0.311   4.953 -0.6697 -0.9993 -0.5584
 1079TIP3   OH224651   4.149   4.287  14.610 -0.0381 -0.0504 -0.7473
 1079TIP3    H124652   4.096   4.356  14.648 -0.6811 -0.0324 -1.6443
 1079TIP3    H224653   4.101   4.206  14.629  0.1351 -0.1387 -0.6800
 1080TIP3   OH224654   0.347   5.904   4.830  0.0104  0.5022  0.1990
 1080TIP3    H124655   0.372   5.882   4.920 -0.8219  1.4613  0.6842
 1080TIP3    H224656   0.379   5.994   4.818  0.2659  0.3198 -0.5234
 1081TIP3   OH224657   2.477   4.284  14.875  0.0820  0.6422 -0.3503
 1081TIP3    H124658   2.510   4.236  14.951  0.2611  1.0965 -0.1380
 1081TIP3    H224659   2.524   4.368  14.877 -1.6331  1.6468  0.4282
 1082TIP3   OH224660   1.015   0.062   1.774 -0.0099  0.5890  0.2678
 1082TIP3    H124661   1.085   0.006   1.806  0.2593  0.2370 -0.8797
 1082TIP3    H224662   1.007   0.039   1.681 -2.3192 -0.1093  0.5725
 1083TIP3   OH224663   1.769   5.451   3.419 -0.1310 -0.1243  0.5442
 1083TIP3    H124664   1.706   5.459   3.490  0.1660 -0.8038  0.8962
 1083TIP3    H224665   1.849   5.492   3.454 -0.1367  0.0058  0.4057
 1084TIP3   OH224666   6.575   1.801   2.286  0.4043  0.6421 -0.0217
 1084TIP3    H124667   6.576   1.883   2.335 -1.2016  0.6644  0.0453
 1084TIP3    H224668   6.496   1.756   2.317 -0.4764  0.4915 -2.2929
 1085TIP3   OH224669   0.207   0.382  15.730  0.0791  0.4744  0.2774
 1085TIP3    H124670   0.157   0.464  15.732 -0.5358  0.1185 -0.2706
 1085TIP3    H224671   0.184   0.339  15.812  1.5734  1.5145  1.2921
 1086TIP3   OH224672   3.818   0.408  15.958 -0.3565 -0.1495 -0.0240
 1086TIP3    H124673   3.874   0.332  15.945  0.3302  0.2705  0.4365
 1086TIP3    H224674   3.740   0.373  16.002  0.1394 -0.5228  0.5639
 1087TIP3   OH224675   3.698   2.782  13.186  0.1639  0.0228 -0.0706
 1087TIP3    H124676   3.687   2.841  13.111 -0.6878  0.2282  0.2068
 1087TIP3    H224677   3.669   2.833  13.261  0.8016 -0.2622  0.3744
 1088TIP3   OH224678   6.611   6.564  11.450 -0.1511  0.2158 -0.0516
 1088TIP3    H124679   6.706   6.575  11.437 -0.0629  0.8829  1.0374
 1088TIP3    H224680   6.582   6.517  11.372  1.3778 -1.6527  0.4166
 1089TIP3   OH224681   4.536   3.268  13.267  0.1395  0.0527 -0.7278
 1089TIP3    H124682   4.517   3.184  13.226 -0.6384  0.1000 -0.4726
 1089TIP3    H224683   4.595   3.312  13.205 -0.2695 -0.2546 -1.3456
 1090TIP3   OH224684   1.428   1.719  12.302  0.1210 -0.5418 -0.3961
 1090TIP3    H124685   1.415   1.721  12.207  0.0341  2.0317 -0.4051
 1090TIP3    H224686   1.510   1.765  12.315  0.1138 -0.8486  0.7918
 1091TIP3   OH224687   4.073   5.866   6.431  0.4403  0.0748  0.2814
 1091TIP3    H124688   4.157   5.906   6.407  0.6896  0.2932  1.4491
 1091TIP3    H224689   4.098   5.781   6.468 -0.1365 -1.7510 -3.1481
 1092TIP3   OH224690   1.828   0.319   3.912  0.0300 -0.4252  0.1311
 1092TIP3    H124691   1.825   0.414   3.901  0.0965 -0.5104 -0.6714
 1092TIP3    H224692   1.752   0.298   3.967  0.3470  0.1489  0.8036
 1093TIP3   OH224693   2.409   0.733  16.882 -0.5128 -0.4160  0.0029
 1093TIP3    H124694   2.503   0.724  16.866  0.1641  0.7830  2.7230
 1093TIP3    H224695   2.403   0.753  16.975 -3.4339  0.4412 -0.2939
 1094TIP3   OH224696   2.202   3.710  11.520 -0.0539  0.5946  0.3506
 1094TIP3    H124697   2.166   3.797  11.539 -0.1985  0.6138  0.0000
 1094TIP3    H224698   2.130   3.663  11.478  0.8332  1.2296 -2.0237
 1095TIP3   OH224699   6.694   2.213   1.445 -0.1350 -0.2848  0.1058
 1095TIP3    H124700   6.744   2.273   1.502 -1.2440 -1.8595  2.9659
 1095TIP3    H224701   6.756   2.145   1.421  0.1569 -0.0455  0.1833
 1096TIP3   OH224702   0.715   1.559  16.658  0.1194 -0.0750 -0.1228
 1096TIP3    H124703   0.771   1.522  16.590  2.0339  0.6623  0.9478
 1096TIP3    H224704   0.667   1.629  16.614 -0.1020 -0.8284 -1.1149
 1097TIP3   OH224705   3.942   0.276   6.308  0.1044 -0.0434 -0.4089
 1097TIP3    H124706   3.888   0.215   6.359 -1.1636  1.2813 -0.0852
 1097TIP3    H224707   3.917   0.260   6.217  0.8850 -1.0143 -0.4703
 1098TIP3   OH224708   4.827   6.377  13.300  0.6211  0.2456  0.4050
 1098TIP3    H124709   4.753   6.395  13.357  0.9898 -2.0430  1.7302
 1098TIP3    H224710   4.900   6.358  13.359  2.2457  2.1441 -0.8662
 1099TIP3   OH224711   1.587   6.641   0.529  0.0523  0.5665 -0.2804
 1099TIP3    H124712   1.683   6.643   0.522 -0.0304 -0.3919 -1.9788
 1099TIP3    H224713   1.557   6.697   0.458 -0.6676  0.0679 -0.3709
 1100TIP3   OH224714   6.617   1.040   1.091 -0.7373  0.8221 -0.4175
 1100TIP3    H124715   6.641   1.043   1.184 -2.4545  1.5511  0.0538
 1100TIP3    H224716   6.525   1.065   1.090 -1.1770 -0.7025 -2.1895
 1101TIP3   OH224717   4.474   3.656   5.594  0.4081  0.0729  0.4857
 1101TIP3    H124718   4.393   3.673   5.642  0.9656 -0.9231  1.8471
 1101TIP3    H224719   4.542   3.661   5.661  1.3171 -0.3948 -0.3936
 1102TIP3   OH224720   2.973   2.300  15.497 -0.1514  0.1461 -0.1066
 1102TIP3    H124721   2.906   2.308  15.429 -0.4116 -2.8375 -0.3438
 1102TIP3    H224722   2.926   2.310  15.579 -0.1564  1.9385 -0.2965
 1103TIP3   OH224723   1.042   5.938   2.556  0.1517  0.6733  0.4440
 1103TIP3    H124724   1.083   6.022   2.576  3.6215 -0.9796  1.0720
 1103TIP3    H224725   1.066   5.921   2.465  0.7373 -0.2519  0.7573
 1104TIP3   OH224726   6.040   0.068  12.307  0.7824 -0.3196  0.3037
 1104TIP3    H124727   6.089   0.060  12.389  1.2460 -0.5814  0.0046
 1104TIP3    H224728   5.957   0.107  12.333  1.1824  0.2117  0.8004
 1105TIP3   OH224729   4.114   5.414   2.195  0.2331  0.1562 -0.0251
 1105TIP3    H124730   4.079   5.480   2.256 -3.8326  1.6632 -3.4785
 1105TIP3    H224731   4.061   5.336   2.212 -0.5370  0.4136 -1.1518
 1106TIP3   OH224732   2.999   0.411   6.112  0.4308  0.2786  0.1789
 1106TIP3    H124733   2.947   0.362   6.177  0.9430  2.0398  2.0197
 1106TIP3    H224734   3.052   0.344   6.068  1.2772 -0.8742  2.7572
 1107TIP3   OH224735   5.009   0.860  15.097 -0.4763  0.0453  0.2745
 1107TIP3    H124736   5.105   0.862  15.105 -0.4946 -0.7810  0.8966
 1107TIP3    H224737   4.986   0.769  15.116 -1.4736  0.4732  1.1970
 1108TIP3   OH224738   4.958   1.475   0.075  0.0668  0.3405 -0.2520
 1108TIP3    H124739   5.029   1.412   0.066  0.3815  0.3884  1.5201
 1108TIP3    H224740   4.990   1.555   0.033  0.2327 -0.2185 -1.2287
 1109TIP3   OH224741   6.603   0.051   5.426  0.3184 -0.2004  0.0229
 1109TIP3    H124742   6.682   0.008   5.459 -0.3072  0.1387  2.1088
 1109TIP3    H224743   6.564  -0.013   5.366  0.3333 -1.8947  1.7008
 1110TIP3   OH224744   1.234   1.113  10.209 -0.0987 -0.4616  0.3725
 1110TIP3    H124745   1.198   1.202  10.211 -0.0387 -0.4364  0.3360
 1110TIP3    H224746   1.199   1.072  10.289  1.7211  0.3344  1.6444
 1111TIP3   OH224747   5.838   5.686  11.775  0.1561  0.2862 -0.0410
 1111TIP3    H124748   5.881   5.743  11.712 -1.6066 -0.1534 -1.7492
 1111TIP3    H224749   5.829   5.602  11.730 -0.0555 -0.4178  1.2690
 1112TIP3   OH224750   1.800   3.865   3.611 -0.1398  0.0809  0.4310
 1112TIP3    H124751   1.874   3.807   3.628 -0.7725 -1.1885 -0.8932
 1112TIP3    H224752   1.828   3.920   3.538  0.3796  1.3719  1.5486
 1113TIP3   OH224753   5.729   5.324   1.108 -0.5799 -0.0883 -0.0187
 1113TIP3    H124754   5.665   5.393   1.126 -1.4423 -0.7194 -0.5695
 1113TIP3    H224755   5.683   5.263   1.051 -0.0457 -1.4412  0.9388
 1114TIP3   OH224756   0.446   3.360   5.398 -0.0197  0.5911 -0.6100
 1114TIP3    H124757   0.407   3.437   5.438  0.0374  1.2313 -1.7429
 1114TIP3    H224758   0.535   3.387   5.375  1.3246 -0.9450  2.2307
 1115TIP3   OH224759   2.576   2.950   3.877 -0.3808  0.1968 -0.6911
 1115TIP3    H124760   2.652   3.000   3.907  0.2645  0.2275 -2.3170
 1115TIP3    H224761   2.502   3.009   3.892 -0.0368  0.3911  0.3637
 1116TIP3   OH224762   0.915   2.660  13.333 -0.1334  0.2893  0.1226
 1116TIP3    H124763   0.835   2.640  13.285 -0.6822  1.2537  0.6173
 1116TIP3    H224764   0.924   2.755  13.327 -0.0975  0.4143  1.7379
 1117TIP3   OH224765   2.869   0.118   1.258 -0.1972  0.1045  0.1383
 1117TIP3    H124766   2.856   0.031   1.296  0.2264  0.5938  1.4431
 1117TIP3    H224767   2.947   0.108   1.203 -0.7150 -0.5622 -0.5071
 1118TIP3   OH224768   0.236   2.484   2.404 -0.3163  0.6440 -0.1782
 1118TIP3    H124769   0.217   2.402   2.449  2.2331  0.8130  1.4095
 1118TIP3    H224770   0.155   2.505   2.357 -2.3996 -0.7431  2.5034
 1119TIP3   OH224771   2.337   1.576  12.671 -0.6193  0.3187  0.3721
 1119TIP3    H124772   2.245   1.580  12.698 -0.9209  0.9154 -0.6998
 1119TIP3    H224773   2.343   1.498  12.617 -0.1130 -0.6300  1.7550
 1120TIP3   OH224774   4.452   1.902   2.284 -0.1147 -0.2899  0.4339
 1120TIP3    H124775   4.505   1.824   2.301 -0.6653 -0.9771 -0.8195
 1120TIP3    H224776   4.376   1.893   2.341  0.9519  0.5907  2.0806
 1121TIP3   OH224777   1.690   4.114   3.010 -0.2697 -0.1256 -0.4623
 1121TIP3    H124778   1.734   4.199   3.014 -0.7843  0.1328 -0.1065
 1121TIP3    H224779   1.727   4.072   2.933  0.4733  0.1512 -0.2758
 1122TIP3   OH224780   3.846   0.343   2.053  0.0251 -0.4578  0.3754
 1122TIP3    H124781   3.926   0.394   2.040 -0.0282 -0.9760 -2.8501
 1122TIP3    H224782   3.823   0.358   2.144  2.2789  1.9156  0.6859
 1123TIP3   OH224783   2.640   6.169  12.635 -0.4294 -0.3302 -0.1751
 1123TIP3    H124784   2.550   6.191  12.609 -1.1292 -1.4165  1.2170
 1123TIP3    H224785   2.661   6.231  12.705  0.2961  0.5582 -1.1472
 1124TIP3   OH224786   1.741   1.840   2.196 -0.2110 -0.5232 -0.3881
 1124TIP3    H124787   1.663   1.893   2.181  0.4170  0.5415  0.0302
 1124TIP3    H224788   1.784   1.835   2.111 -0.5482 -0.8379 -0.5458
 1125TIP3   OH224789   0.290   4.642  12.373 -0.5146  0.2607  0.0024
 1125TIP3    H124790   0.239   4.708  12.419 -2.1879  0.6535 -2.2236
 1125TIP3    H224791   0.256   4.644  12.284 -0.0926 -3.0740 -0.3580
 1126TIP3   OH224792   2.206   2.529  12.220  0.3855  0.1754 -0.2195
 1126TIP3    H124793   2.280   2.551  12.276 -0.7972  1.9316  0.7613
 1126TIP3    H224794   2.165   2.613  12.199 -1.9667 -0.7764  0.2022
 1127TIP3   OH224795   1.036   2.023  17.171 -0.5833 -0.0685 -0.6212
 1127TIP3    H124796   1.053   2.013  17.265 -1.7028 -1.1736 -0.5185
 1127TIP3    H224797   1.123   2.018  17.131 -0.1403 -0.1230  0.3045
 1128TIP3   OH224798   4.398   5.057   0.496  0.6765  0.0988 -0.1654
 1128TIP3    H124799   4.471   5.119   0.502  1.7394 -1.2427  1.4270
 1128TIP3    H224800   4.422   4.986   0.554 -1.9488 -0.3751  0.4409
 1129TIP3   OH224801   1.212   4.879  16.567 -0.2975  0.2574  0.2600
 1129TIP3    H124802   1.284   4.898  16.628  0.3232 -0.1349 -0.3359
 1129TIP3    H224803   1.134   4.883  16.622  0.1681  0.7045  0.9233
 1130TIP3   OH224804   0.588   2.804   3.354  0.5116  0.0029 -0.3334
 1130TIP3    H124805   0.679   2.818   3.381  0.4551 -1.1580  0.5001
 1130TIP3    H224806   0.546   2.763   3.429 -0.4450 -0.4286 -1.0795
 1131TIP3   OH224807   5.289   5.202  15.039  0.2291  0.5202  0.0654
 1131TIP3    H124808   5.195   5.185  15.049  0.3236 -2.4866 -2.4835
 1131TIP3    H224809   5.331   5.147  15.105  0.2336 -0.3257 -0.6285
 1132TIP3   OH224810   5.274   6.048   5.671 -0.0391 -0.2053  0.0090
 1132TIP3    H124811   5.257   6.117   5.735  0.9120  0.3304 -0.2940
 1132TIP3    H224812   5.320   6.092   5.599 -1.6239 -0.6584 -1.3495
 1133TIP3   OH224813   0.422   5.123  13.194 -0.2182 -0.2301  0.6229
 1133TIP3    H124814   0.352   5.186  13.210 -0.0546 -0.3044  1.6658
 1133TIP3    H224815   0.376   5.040  13.180 -0.3398 -0.2786  1.2987
 1134TIP3   OH224816   1.174   0.851  11.822  0.4126  0.7319  0.0691
 1134TIP3    H124817   1.146   0.899  11.744  0.1424 -0.3874 -0.5514
 1134TIP3    H224818   1.094   0.842  11.875  0.3474  0.5357 -0.0593
 1135TIP3   OH224819   5.675   3.183   4.408 -0.1360 -0.3510 -0.2358
 1135TIP3    H124820   5.686   3.201   4.501  1.5200  0.0829 -0.4784
 1135TIP3    H224821   5.584   3.154   4.399 -0.0754 -1.2644  1.6412
 1136TIP3   OH224822   3.145   3.430  14.514 -0.5973 -0.0640  0.2594
 1136TIP3    H124823   3.182   3.408  14.429  1.5149  0.6538  0.9262
 1136TIP3    H224824   3.055   3.399  14.510 -0.2135 -1.0689 -1.8140
 1137TIP3   OH224825   1.204   4.765   3.156 -0.5375  0.0384 -0.1935
 1137TIP3    H124826   1.191   4.811   3.239 -0.2034  0.8304 -0.5805
 1137TIP3    H224827   1.153   4.684   3.167 -1.4206  0.6375  0.3543
 1138TIP3   OH224828   3.730   2.355  16.349  0.0054 -0.3788 -0.5565
 1138TIP3    H124829   3.707   2.440  16.386 -0.5199 -0.5877 -0.3939
 1138TIP3    H224830   3.708   2.292  16.417 -2.8891 -0.9679 -1.8727
 1139TIP3   OH224831   6.699   2.542   5.159 -0.7965 -0.0193  0.0088
 1139TIP3    H124832   6.730   2.522   5.247 -0.5198 -0.0117 -0.0861
 1139TIP3    H224833   6.665   2.458   5.127 -1.0292  0.0100  0.1742
 1140TIP3   OH224834   3.410   6.145  11.002  0.0466  0.1698 -0.3887
 1140TIP3    H124835   3.438   6.229  10.966  1.3297 -0.7474 -1.6280
 1140TIP3    H224836   3.359   6.105  10.932  0.5940 -0.6630 -0.3149
 1141TIP3   OH224837   1.856   4.953   0.156  0.2188  0.1854 -0.1636
 1141TIP3    H124838   1.839   4.879   0.214  0.0244 -0.8481 -1.5027
 1141TIP3    H224839   1.947   4.942   0.129  0.6068  1.1902  0.6296
 1142TIP3   OH224840   3.351   4.763   2.186 -0.1501 -0.0197 -0.5608
 1142TIP3    H124841   3.421   4.770   2.251  0.1911 -1.7545 -0.6867
 1142TIP3    H224842   3.270   4.770   2.237  0.1083  0.7775 -0.2498
 1143TIP3   OH224843   1.781   1.696  10.664  0.0437  0.2835 -0.6301
 1143TIP3    H124844   1.792   1.791  10.660 -2.3064  0.7381  0.9074
 1143TIP3    H224845   1.795   1.674  10.756 -0.3512 -0.6992 -0.7841
 1144TIP3   OH224846   2.531   1.591  14.898  0.9557  0.4600 -0.1611
 1144TIP3    H124847   2.533   1.687  14.902  1.7081  0.4072  1.3250
 1144TIP3    H224848   2.512   1.563  14.988  0.4780 -0.7903 -0.6292
 1145TIP3   OH224849   3.654   1.106  12.004 -0.0036 -0.0079 -0.5510
 1145TIP3    H124850   3.614   1.019  12.004  1.7209 -0.8336 -0.3281
 1145TIP3    H224851   3.671   1.124  11.911  0.6822 -0.4181 -0.5092
 1146TIP3   OH224852   4.332   0.680  11.377  0.6228 -0.4882  0.0682
 1146TIP3    H124853   4.291   0.604  11.418 -2.5980  0.8237 -0.4223
 1146TIP3    H224854   4.344   0.742  11.450  2.2873 -0.9902  0.2803
 1147TIP3   OH224855   5.624   5.898  17.148  0.0661  0.2123  0.6726
 1147TIP3    H124856   5.583   5.858  17.071  2.1173 -0.3520 -0.1919
 1147TIP3    H224857   5.672   5.972  17.113  0.0138  0.6943  1.6135
 1148TIP3   OH224858   5.076   3.348  14.456  0.1424  0.7654 -0.6343
 1148TIP3    H124859   5.138   3.290  14.501 -0.8229 -1.1771 -1.6564
 1148TIP3    H224860   5.125   3.383  14.381 -0.0952 -1.3219 -1.8536
 1149TIP3   OH224861   3.187   4.365   2.659  0.5717 -0.3894  0.0017
 1149TIP3    H124862   3.276   4.381   2.690  0.2762 -2.4164  2.2085
 1149TIP3    H224863   3.135   4.357   2.739 -1.0416 -2.0722 -1.1200
 1150TIP3   OH224864   2.090   5.905  11.130  0.4454 -0.2074 -0.2586
 1150TIP3    H124865   2.135   5.957  11.064 -0.1854  0.3145 -0.2858
 1150TIP3    H224866   2.160   5.865  11.182  1.0729  3.4823  2.0741
 1151TIP3   OH224867   5.793   4.779  11.673  0.2287 -0.3643 -0.5030
 1151TIP3    H124868   5.869   4.837  11.671  0.3256 -0.4099  1.0626
 1151TIP3    H224869   5.754   4.787  11.585  1.0985  0.8949 -0.7920
 1152TIP3   OH224870   6.015   3.497   1.008 -0.0761 -0.1019 -0.1920
 1152TIP3    H124871   6.100   3.474   0.970  0.8438  0.4794  1.4194
 1152TIP3    H224872   5.991   3.420   1.060 -0.6476 -0.3389 -0.7926
 1153TIP3   OH224873   3.279   1.507  13.038 -0.6298 -0.5354  0.1522
 1153TIP3    H124874   3.286   1.412  13.036  1.2224 -0.4599  0.9330
 1153TIP3    H224875   3.212   1.525  13.104 -0.6923 -1.2855  0.2961
 1154TIP3   OH224876   0.861   6.457  12.912  0.2274 -0.2418  0.5320
 1154TIP3    H124877   0.776   6.437  12.873  0.3055 -0.0282  0.2570
 1154TIP3    H224878   0.855   6.550  12.935  0.1541 -0.3818  1.0945
 1155TIP3   OH224879   1.112   2.574  11.183 -0.0152  0.4703 -0.1348
 1155TIP3    H124880   1.019   2.561  11.200 -0.5601  2.4077 -1.3304
 1155TIP3    H224881   1.137   2.647  11.241  0.7216  0.0716  0.0601
 1156TIP3   OH224882   0.420   4.472  15.778 -0.3195 -0.2579 -0.3257
 1156TIP3    H124883   0.462   4.521  15.848 -0.8910  0.1793 -0.2876
 1156TIP3    H224884   0.493   4.444  15.722  0.2378 -1.4076  0.9120
 1157TIP3   OH224885   2.939   4.445   5.094  0.2778 -0.0133  0.3808
 1157TIP3    H124886   2.959   4.522   5.147  2.4693 -0.6241  0.5353
 1157TIP3    H224887   2.946   4.476   5.003 -0.8278  0.3927  0.4096
 1158TIP3   OH224888   4.078   6.742  14.922  0.0490 -0.4221  0.1768
 1158TIP3    H124889   4.038   6.817  14.966 -2.1526 -1.2309 -0.3338
 1158TIP3    H224890   4.113   6.689  14.993 -2.5618 -1.2037  0.9798
 1159TIP3   OH224891   4.102   5.596  12.604  0.0402 -0.2324 -0.0516
 1159TIP3    H124892   4.080   5.516  12.558  2.3352 -0.5835 -0.6725
 1159TIP3    H224893   4.030   5.610  12.665 -0.2815 -2.9174  0.2825
 1160TIP3   OH224894   0.749   2.678  10.515  0.5772 -0.3394  0.0153
 1160TIP3    H124895   0.828   2.637  10.552  1.7061  0.2549 -1.6163
 1160TIP3    H224896   0.753   2.657  10.422  1.9085  4.3487 -1.2314
 1161TIP3   OH224897   3.022   5.670   4.849 -0.2507 -0.5680  0.2479
 1161TIP3    H124898   2.950   5.613   4.823  0.3772 -1.2122 -0.0854
 1161TIP3    H224899   3.096   5.611   4.864  0.3670  0.1385  0.0371
 1162TIP3   OH224900   0.314   4.586   5.762  0.0279 -0.4697 -0.3263
 1162TIP3    H124901   0.265   4.647   5.707  0.0109  0.1468  0.3412
 1162TIP3    H224902   0.402   4.584   5.725 -0.3751 -1.2567 -1.2808
 1163TIP3   OH224903   4.351   1.230  17.062 -0.3458  0.2596  0.2498
 1163TIP3    H124904   4.320   1.189  17.143  0.6704  1.1776  1.1203
 1163TIP3    H224905   4.289   1.301  17.046 -2.4955 -1.8441 -1.6061
 1164TIP3   OH224906   4.144   6.388   4.955 -0.2178 -0.6243  0.1372
 1164TIP3    H124907   4.071   6.449   4.964 -0.3345 -0.7083 -0.2166
 1164TIP3    H224908   4.118   6.310   5.003  0.8421  0.3743  2.5226
 1165TIP3   OH224909   3.682   5.921   0.896 -0.2845  0.2767  0.2174
 1165TIP3    H124910   3.720   5.841   0.861 -0.1963  0.4438 -0.0786
 1165TIP3    H224911   3.589   5.916   0.873 -0.1792  0.5038 -0.2713
 1166TIP3   OH224912   4.046   3.796   4.286 -0.1036 -0.7507  0.0046
 1166TIP3    H124913   3.958   3.772   4.259  0.5037 -2.7328 -0.4159
 1166TIP3    H224914   4.085   3.714   4.316  1.1167  0.3459  1.6000
 1167TIP3   OH224915   4.828   0.878   1.770  0.1429  0.4541 -0.0812
 1167TIP3    H124916   4.863   0.928   1.696 -1.2605  2.7872  0.7311
 1167TIP3    H224917   4.737   0.860   1.746  0.4653 -1.3522 -0.1181
 1168TIP3   OH224918   1.624   0.702   1.373  0.2892 -0.0580 -0.2611
 1168TIP3    H124919   1.649   0.786   1.412  1.3212  0.6990 -2.3396
 1168TIP3    H224920   1.707   0.665   1.343 -0.4072 -0.5369 -1.7103
 1169TIP3   OH224921   1.909   5.402  11.795  0.9327  0.1634 -0.2752
 1169TIP3    H124922   1.940   5.484  11.757  0.0822  0.8833  0.5171
 1169TIP3    H224923   1.900   5.421  11.889  0.0623 -0.6244 -0.1815
 1170TIP3   OH224924   2.120   0.527  11.296 -0.0598 -0.4235 -0.5238
 1170TIP3    H124925   2.142   0.483  11.214  0.5188 -0.1667 -0.5197
 1170TIP3    H224926   2.122   0.620  11.274 -3.2735 -0.3702 -1.0332
 1171TIP3   OH224927   3.554   5.319  13.467 -0.0523 -0.0074 -0.5266
 1171TIP3    H124928   3.546   5.263  13.544  0.0968  3.4293  2.2544
 1171TIP3    H224929   3.645   5.309  13.439  0.4085 -0.0771  0.8798
 1172TIP3   OH224930   4.834   5.832  14.331 -0.3001  0.2671  0.0359
 1172TIP3    H124931   4.777   5.818  14.256  2.2104  0.0064 -1.9591
 1172TIP3    H224932   4.841   5.746  14.373 -0.9668  0.2002  0.0165
 1173TIP3   OH224933   0.592   6.608  14.049  0.0911 -0.1130 -0.1210
 1173TIP3    H124934   0.679   6.578  14.023  0.7081 -0.5449  2.1976
 1173TIP3    H224935   0.532   6.542  14.013  0.6524  0.3148 -1.9444
 1174TIP3   OH224936   4.567   3.964  14.141 -0.0804  0.5208 -0.4131
 1174TIP3    H124937   4.627   3.893  14.119  0.3066  0.8784 -0.5104
 1174TIP3    H224938   4.508   3.970  14.065 -0.7403 -0.3438  0.0090
 1175TIP3   OH224939   5.479   1.592   1.934  0.3215  0.0710 -0.0303
 1175TIP3    H124940   5.493   1.536   1.858 -3.0000  0.3729 -1.0320
 1175TIP3    H224941   5.487   1.681   1.899  1.9225  0.2635  0.7407
 1176TIP3   OH224942   2.910   4.517   5.919 -0.1051 -0.4324  0.2613
 1176TIP3    H124943   2.845   4.448   5.930 -0.4287 -0.3081 -0.7323
 1176TIP3    H224944   2.971   4.505   5.991 -1.3323 -0.4326  1.3347
 1177TIP3   OH224945   1.509   2.270  15.885  0.5432 -0.2592 -0.8326
 1177TIP3    H124946   1.540   2.358  15.863  2.0090 -0.1624  1.2348
 1177TIP3    H224947   1.443   2.285  15.953  1.4389 -0.7376  0.1797
 1178TIP3   OH224948   6.765   2.899  11.189  0.2955 -0.6921 -0.8083
 1178TIP3    H124949   6.681   2.933  11.219  0.0319 -1.9585 -0.0278
 1178TIP3    H224950   6.815   2.977  11.163 -0.1628  0.3383  1.1742
 1179TIP3   OH224951   3.157   3.982  11.225  0.1966 -0.2351  0.1541
 1179TIP3    H124952   3.164   4.014  11.135  0.5608 -1.6070 -0.3414
 1179TIP3    H224953   3.236   4.013  11.268 -0.2827  0.9687  0.1952
 1180TIP3   OH224954   0.107   4.011   2.527  0.0433  0.0520  0.4044
 1180TIP3    H124955   0.170   3.939   2.533  0.6050  0.4425 -0.4445
 1180TIP3    H224956   0.056   4.006   2.607  1.4549 -0.0193  1.3279
 1181TIP3   OH224957   0.311   1.442  11.840  0.1483 -1.0763  0.3588
 1181TIP3    H124958   0.346   1.370  11.788 -0.9175 -1.2423 -0.1598
 1181TIP3    H224959   0.222   1.415  11.862 -0.3166  0.1200  0.0505
 1182TIP3   OH224960   4.444   3.763   4.772  0.7031  0.5707 -0.0621
 1182TIP3    H124961   4.416   3.771   4.681  1.7301 -1.4934 -0.6186
 1182TIP3    H224962   4.470   3.852   4.797  0.9491  1.0808 -1.9636
 1183TIP3   OH224963   4.678   0.390  10.647 -0.2446  0.0395  0.2741
 1183TIP3    H124964   4.717   0.360  10.564  0.0346 -0.8930  0.7207
 1183TIP3    H224965   4.747   0.443  10.688 -0.3020  0.3190  0.0078
 1184TIP3   OH224966   3.722   0.778  17.098 -0.1118 -0.1760  0.3131
 1184TIP3    H124967   3.664   0.849  17.073 -2.0400 -1.8099 -0.1180
 1184TIP3    H224968   3.664   0.710  17.132  1.8066 -0.7898  2.7162
 1185TIP3   OH224969   2.779   5.985  15.663 -0.2160 -0.6530  0.0725
 1185TIP3    H124970   2.728   6.065  15.658 -1.0816 -1.0052  2.2081
 1185TIP3    H224971   2.761   5.939  15.581 -0.2536  0.9956 -0.8699
 1186TIP3   OH224972   1.944   4.731  11.906  0.3629  0.0538 -0.6979
 1186TIP3    H124973   1.992   4.722  11.988 -0.6186  0.6492 -0.0497
 1186TIP3    H224974   2.007   4.773  11.846  1.3075 -1.0140 -0.4839
 1187TIP3   OH224975   1.550   6.011  16.007 -0.1370 -0.6253 -1.0583
 1187TIP3    H124976   1.645   6.013  15.996 -0.2429  0.3631 -2.0026
 1187TIP3    H224977   1.532   6.075  16.076 -0.0747 -1.3033 -0.4042
 1188TIP3   OH224978   3.775   2.639  14.888  0.0770  0.0500 -0.1616
 1188TIP3    H124979   3.828   2.654  14.966 -0.2750 -1.1419  0.3338
 1188TIP3    H224980   3.716   2.715  14.883  0.3486  0.3106  0.5249
 1189TIP3   OH224981   5.035   1.003  10.902 -0.5119 -0.0752  0.2644
 1189TIP3    H124982   5.058   0.910  10.903 -0.0538  0.0364  0.1345
 1189TIP3    H224983   5.114   1.048  10.929 -0.5306  0.3228 -0.3250
 1190TIP3   OH224984   6.112   3.906  11.949  0.1191  0.1680  0.1731
 1190TIP3    H124985   6.138   3.966  12.019 -2.3328  1.9841 -0.3311
 1190TIP3    H224986   6.022   3.931  11.928  0.2335 -1.3223 -2.5920
 1191TIP3   OH224987   5.568   1.190   1.595  0.2019  0.8010 -0.2164
 1191TIP3    H124988   5.595   1.121   1.534 -2.1347 -0.6848  0.2944
 1191TIP3    H224989   5.648   1.240   1.611  1.6494 -0.8175 -1.8366
 1192TIP3   OH224990   0.298   2.194  17.044 -0.4361 -0.1135 -0.0084
 1192TIP3    H124991   0.249   2.253  16.986  1.0163 -0.1759 -1.3463
 1192TIP3    H224992   0.230   2.151  17.097 -1.9054 -0.6631 -2.2232
 1193TIP3   OH224993   4.578   6.383   0.161 -0.3508  0.3938 -0.2292
 1193TIP3    H124994   4.588   6.330   0.081 -0.0325 -0.9838  0.6854
 1193TIP3    H224995   4.486   6.407   0.162 -1.2448 -2.6238  0.7666
 1194TIP3   OH224996   6.671   4.132   0.047 -0.0328  0.0369 -0.1147
 1194TIP3    H124997   6.754   4.086   0.057  0.6225  1.3322  0.7369
 1194TIP3    H224998   6.695   4.224   0.041 -1.3831  0.4009 -0.2553
 1195TIP3   OH224999   1.705   2.703   3.054 -0.4234  0.3743  0.3334
 1195TIP3    H125000   1.788   2.659   3.037 -0.7850 -0.4461  0.6828
 1195TIP3    H225001   1.711   2.785   3.003  0.6931  0.4473  0.5668
 1196TIP3   OH225002   6.005   5.216  15.938  0.7296  0.9471  0.4435
 1196TIP3    H125003   5.980   5.256  16.021  0.6930  1.4729  0.1882
 1196TIP3    H225004   5.976   5.125  15.944  0.0807  1.1692  0.7246
 1197TIP3   OH225005   4.345   6.639   1.798  0.2553  0.4965 -0.3751
 1197TIP3    H125006   4.274   6.670   1.855 -0.4752  0.6467 -1.3421
 1197TIP3    H225007   4.421   6.691   1.823  0.4786 -0.7420  1.7737
 1198TIP3   OH225008   1.285   5.206  16.670  0.8086 -0.2570  0.0642
 1198TIP3    H125009   1.306   5.232  16.580 -0.7112  2.2784  0.3361
 1198TIP3    H225010   1.358   5.151  16.697  1.6365 -0.5246 -2.4830
 1199TIP3   OH225011   1.246   3.633   2.606 -0.1078  0.1882  0.0484
 1199TIP3    H125012   1.332   3.657   2.574 -0.2213 -0.9360 -1.1626
 1199TIP3    H225013   1.261   3.555   2.660 -0.4574 -0.5402 -0.8876
 1200TIP3   OH225014   1.001   1.449   0.227  0.5471  0.2405  0.4775
 1200TIP3    H125015   1.055   1.500   0.288  0.6118 -0.0319  0.6502
 1200TIP3    H225016   1.028   1.480   0.140 -0.8769  1.9991  0.5978
 1201TIP3   OH225017   0.457   4.967   1.595  0.0530 -0.1019  0.1431
 1201TIP3    H125018   0.521   4.975   1.665  0.0539  1.3243  0.0102
 1201TIP3    H225019   0.419   5.054   1.587 -0.9498 -0.5898 -0.6887
 1202TIP3   OH225020   0.749   2.238  11.677  0.3248 -0.5508 -0.2042
 1202TIP3    H125021   0.817   2.182  11.639  0.4517  0.7838 -2.0913
 1202TIP3    H225022   0.794   2.321  11.697  0.0247 -0.8601  2.0344
 1203TIP3   OH225023   5.895   4.932   6.134 -0.0461  0.3140 -0.1393
 1203TIP3    H125024   5.941   5.007   6.094 -0.1969  0.2042 -0.5226
 1203TIP3    H225025   5.932   4.926   6.222  1.0081 -0.0450 -0.5911
 1204TIP3   OH225026   4.020   2.245  14.262  0.0572 -0.0007  0.1017
 1204TIP3    H125027   4.071   2.299  14.321  1.4215  0.3285 -1.3033
 1204TIP3    H225028   3.965   2.191  14.319  0.7629  0.8266  1.6059
 1205TIP3   OH225029   4.570   6.403   1.031  0.4823 -0.8118 -0.0066
 1205TIP3    H125030   4.516   6.362   1.099  1.6588 -1.2500  0.7072
 1205TIP3    H225031   4.521   6.481   1.005 -0.3627 -1.0582  0.7842
 1206TIP3   OH225032   3.454   1.560   4.788 -1.0009  0.1790 -0.0383
 1206TIP3    H125033   3.373   1.509   4.778 -0.7648 -0.4471  1.0523
 1206TIP3    H225034   3.524   1.494   4.787 -0.5941  0.6058  0.1591
 1207TIP3   OH225035   2.471   3.185  11.143  0.0326 -0.5152 -0.2031
 1207TIP3    H125036   2.471   3.093  11.120  0.1935 -0.5232 -0.1754
 1207TIP3    H225037   2.403   3.193  11.210  2.3904 -1.3157  2.4944
 1208TIP3   OH225038   5.618   5.873   3.300  0.2864  0.7955  0.0362
 1208TIP3    H125039   5.637   5.852   3.391 -0.1069 -1.2916 -0.2960
 1208TIP3    H225040   5.553   5.943   3.304 -1.8882 -1.1726  1.4864
 1209TIP3   OH225041   3.034   0.988  11.068  0.2504  0.3808 -0.4790
 1209TIP3    H125042   2.962   1.048  11.090  0.6457  0.8762 -0.5291
 1209TIP3    H225043   3.054   1.007  10.977  0.1298 -0.0985 -0.6106
 1210TIP3   OH225044   0.524   6.639  16.726 -0.4592 -0.0216 -0.6840
 1210TIP3    H125045   0.589   6.589  16.775 -1.1476 -0.3646 -0.1037
 1210TIP3    H225046   0.536   6.610  16.635  2.6013  2.5339 -1.2590
 1211TIP3   OH225047   0.695   5.792   0.826  0.4318  0.2013 -0.1861
 1211TIP3    H125048   0.642   5.789   0.746  2.2399  0.7532 -1.4609
 1211TIP3    H225049   0.721   5.883   0.835  0.8523  0.0169  0.6361
 1212TIP3   OH225050   3.080   0.922  14.261 -0.6796 -0.2149 -0.2211
 1212TIP3    H125051   3.015   0.914  14.192 -1.8420  2.6727  0.3793
 1212TIP3    H225052   3.046   0.869  14.333 -2.2862  1.0118 -0.0301
 1213TIP3   OH225053   0.113   2.083   1.861 -0.6835  0.0311 -0.3188
 1213TIP3    H125054   0.131   2.147   1.793 -0.9491 -0.1633 -0.5762
 1213TIP3    H225055   0.092   2.002   1.813 -0.4768 -0.2127 -0.0034
 1214TIP3   OH225056   2.067   3.217   6.238  0.0721 -0.2153  0.1944
 1214TIP3    H125057   2.026   3.293   6.280  1.6613  0.7784  0.0214
 1214TIP3    H225058   2.102   3.252   6.156  1.6537 -0.9068  0.5503
 1215TIP3   OH225059   2.053   2.487  15.089  0.3028  0.5389  0.4431
 1215TIP3    H125060   2.012   2.525  15.167  0.2440  2.4249 -0.4649
 1215TIP3    H225061   1.997   2.513  15.017  1.7711  1.1060 -0.5430
 1216TIP3   OH225062   3.785   0.135  13.017  0.9337  0.0921 -0.4280
 1216TIP3    H125063   3.878   0.146  13.035  0.9553 -1.4371  0.6075
 1216TIP3    H225064   3.767   0.043  13.037  0.1028 -0.9064 -4.7388
 1217TIP3   OH225065   1.727   1.612  13.795 -0.1810  0.0913  0.0923
 1217TIP3    H125066   1.635   1.615  13.821 -0.5577 -2.2657 -0.7071
 1217TIP3    H225067   1.728   1.648  13.706 -0.2526  0.4648  0.2393
 1218TIP3   OH225068   1.531   1.614   6.463  0.4494 -0.5084  0.0796
 1218TIP3    H125069   1.610   1.601   6.411  2.4417  1.2530  2.4468
 1218TIP3    H225070   1.484   1.683   6.416  0.5736 -1.1187 -1.0017
 1219TIP3   OH225071   5.080   1.382  15.887 -0.2610  0.0724 -0.1160
 1219TIP3    H125072   5.052   1.334  15.965 -0.7336 -0.3332 -0.5275
 1219TIP3    H225073   5.007   1.442  15.869  0.1899  0.7371  0.2105
 1220TIP3   OH225074   5.864   1.813   5.203 -0.0829 -0.2637 -0.2204
 1220TIP3    H125075   5.909   1.780   5.126 -0.2372  0.3910 -0.5965
 1220TIP3    H225076   5.802   1.743   5.226  0.0989 -0.5443 -0.5649
 1221TIP3   OH225077   1.658   3.154  16.143 -0.1902  0.2092 -0.2767
 1221TIP3    H125078   1.751   3.171  16.135 -0.5277  1.4511 -2.1954
 1221TIP3    H225079   1.639   3.162  16.236  1.1534  2.6548 -0.1517
 1222TIP3   OH225080   0.947   0.350  14.521  0.4217 -0.0848 -0.0875
 1222TIP3    H125081   1.001   0.380  14.447 -0.4922  0.1901 -0.6653
 1222TIP3    H225082   1.010   0.317  14.585  1.2709  0.1992 -0.7525
 1223TIP3   OH225083   5.377   1.503   2.559 -0.8203  0.1393  0.3434
 1223TIP3    H125084   5.363   1.415   2.596  0.8489  0.3514  1.5849
 1223TIP3    H225085   5.289   1.539   2.551 -1.3933 -0.5977  2.5404
 1224TIP3   OH225086   4.872   4.044  14.845 -0.4233 -0.0232  0.3552
 1224TIP3    H125087   4.936   4.031  14.915 -0.3341 -0.0163  0.2744
 1224TIP3    H225088   4.789   4.058  14.891 -0.2022  0.9404  0.4934
 1225TIP3   OH225089   4.755   2.243  15.798 -0.2534  0.4654 -0.6198
 1225TIP3    H125090   4.813   2.197  15.738 -2.4189 -1.0172 -1.7470
 1225TIP3    H225091   4.694   2.291  15.741 -0.1189  2.0535  0.4962
 1226TIP3   OH225092   3.182   5.432  12.583  0.2085 -0.1745 -0.0344
 1226TIP3    H125093   3.212   5.409  12.671  1.0132 -0.6628 -0.4180
 1226TIP3    H225094   3.259   5.473  12.542  0.0245 -0.4653 -0.6881
 1227TIP3   OH225095   3.783   1.091  17.157  0.4312 -0.0584 -0.4170
 1227TIP3    H125096   3.695   1.069  17.186  0.7390  0.1837  0.7410
 1227TIP3    H225097   3.841   1.040  17.213  1.0270 -1.0594 -1.8968
 1228TIP3   OH225098   1.014   5.202   1.736  0.4658  0.0449  0.4318
 1228TIP3    H125099   0.984   5.248   1.657  0.0002  0.8780  1.0785
 1228TIP3    H225100   1.109   5.201   1.729  0.3998 -0.9598 -0.7223
 1229TIP3   OH225101   6.475   1.689   5.766 -0.7718  0.7852 -0.3576
 1229TIP3    H125102   6.444   1.728   5.684 -0.3516 -1.4140 -1.6339
 1229TIP3    H225103   6.566   1.719   5.773 -1.1760  1.9801 -0.0197
 1230TIP3   OH225104   5.776   6.622  11.721  0.6262 -0.5335 -0.0288
 1230TIP3    H125105   5.804   6.641  11.631 -0.6698  0.5479 -0.2262
 1230TIP3    H225106   5.684   6.644  11.722  0.6270 -0.5518  1.5904
 1231TIP3   OH225107   4.000   5.154   2.174 -0.1292  0.3219  0.6868
 1231TIP3    H125108   4.081   5.121   2.135 -0.5146 -2.7083  2.1670
 1231TIP3    H225109   3.930   5.111   2.124 -0.7003 -0.0716  1.7861
 1232TIP3   OH225110   3.120   4.434   0.351 -0.2198 -0.2415 -0.3633
 1232TIP3    H125111   3.068   4.356   0.371  0.5753 -0.1442  2.5391
 1232TIP3    H225112   3.069   4.507   0.388  1.2540 -0.0092  1.3852
 1233TIP3   OH225113   6.729   0.210   1.971  0.2927 -0.3288 -0.0251
 1233TIP3    H125114   6.811   0.177   2.009  1.1641  0.8124 -0.8547
 1233TIP3    H225115   6.756   0.281   1.913 -1.1187 -1.1004 -1.7241
 1234TIP3   OH225116   2.166   1.864  12.245 -0.1622 -0.2064 -0.4211
 1234TIP3    H125117   2.113   1.843  12.168 -0.4698  0.3055 -0.3524
 1234TIP3    H225118   2.204   1.780  12.271 -0.3743 -0.4540 -0.8942
 1235TIP3   OH225119   1.687   0.479  12.359 -0.2539 -0.2518  0.5045
 1235TIP3    H125120   1.597   0.510  12.349 -1.1527 -2.4497  1.1859
 1235TIP3    H225121   1.710   0.501  12.450  0.1957  0.9577  0.1153
 1236TIP3   OH225122   5.208   0.786   0.159  0.8598  0.2368 -0.4018
 1236TIP3    H125123   5.177   0.697   0.171 -1.3581  1.1500  1.5147
 1236TIP3    H225124   5.286   0.792   0.215  0.9574 -0.4479 -0.4588
 1237TIP3   OH225125   0.018   0.114  14.309  0.1420 -0.3040  0.5158
 1237TIP3    H125126   0.083   0.134  14.376  3.0334 -1.8428 -1.6396
 1237TIP3    H225127   0.006   0.019  14.315  0.0384 -0.3909 -0.7953
 1238TIP3   OH225128   1.070   1.167   0.143 -0.1666  0.4562 -0.3735
 1238TIP3    H125129   1.056   1.090   0.197  0.1852 -0.5190 -1.6200
 1238TIP3    H225130   0.989   1.218   0.152 -0.4778 -0.1451  0.3075
 1239TIP3   OH225131   5.987   2.783  15.679  0.2745 -0.1709  0.6193
 1239TIP3    H125132   5.967   2.876  15.674  0.8569 -0.0976 -0.9217
 1239TIP3    H225133   5.902   2.740  15.688 -0.0873  0.4480  0.1934
 1240TIP3   OH225134   3.313   1.333   5.519  0.3857 -0.6341 -0.8454
 1240TIP3    H125135   3.319   1.316   5.613 -0.8959  1.6618 -0.2738
 1240TIP3    H225136   3.222   1.360   5.505  1.6706  4.2366 -1.6828
 1241TIP3   OH225137   5.343   1.816   2.637 -0.1639 -0.1274 -0.2854
 1241TIP3    H125138   5.436   1.809   2.613 -0.5964 -0.1169 -2.1324
 1241TIP3    H225139   5.303   1.739   2.598 -1.1551  0.6234 -0.7977
 1242TIP3   OH225140   2.583   2.584  16.981 -0.5520  1.0803  0.3299
 1242TIP3    H125141   2.587   2.498  16.939  1.1527  1.9306 -1.4289
 1242TIP3    H225142   2.595   2.565  17.074 -1.0381 -0.6378  0.0779
 1243TIP3   OH225143   6.552   1.166  14.158  0.0487  0.0121  0.4441
 1243TIP3    H125144   6.588   1.218  14.086 -1.2517 -1.6485 -1.5418
 1243TIP3    H225145   6.531   1.230  14.226  1.7475  1.6130 -0.4454
 1244TIP3   OH225146   1.279   0.142   3.679  0.0535 -0.7714 -0.2022
 1244TIP3    H125147   1.237   0.215   3.725  0.8428  1.3925 -2.6244
 1244TIP3    H225148   1.214   0.114   3.614  1.0122  0.2683 -1.6681
 1245TIP3   OH225149   1.864   1.601  11.902  0.5233  0.5492 -0.2621
 1245TIP3    H125150   1.779   1.572  11.935  2.3375 -1.6712  3.0262
 1245TIP3    H225151   1.881   1.683  11.949 -0.4851  2.0464 -2.3528
 1246TIP3   OH225152   2.767   3.504   1.250 -0.0219 -0.2849 -0.3552
 1246TIP3    H125153   2.707   3.448   1.298 -0.6759 -0.2599 -1.1248
 1246TIP3    H225154   2.787   3.455   1.170 -1.0118  0.7642 -1.2872
 1247TIP3   OH225155   0.342   2.468  14.155 -0.6870  0.0889 -0.1231
 1247TIP3    H125156   0.330   2.545  14.210 -1.4577 -0.6938  0.8596
 1247TIP3    H225157   0.434   2.445  14.163 -0.9663 -0.5588  1.6441
 1248TIP3   OH225158   4.870   3.205  13.486  0.0982  0.2279 -0.1565
 1248TIP3    H125159   4.872   3.166  13.399  1.1302  0.6977 -0.3525
 1248TIP3    H225160   4.799   3.159  13.531  0.4368 -0.9682 -0.8012
 1249TIP3   OH225161   2.856   1.895   2.957 -0.1054 -0.3583 -0.5563
 1249TIP3    H125162   2.782   1.955   2.963 -1.3633 -1.8125 -0.8193
 1249TIP3    H225163   2.932   1.948   2.980 -1.0538  1.4912 -1.4633
 1250TIP3   OH225164   0.060   1.969   0.708  0.0709 -0.1319  0.0789
 1250TIP3    H125165   0.057   1.877   0.734 -2.1426 -0.0365  0.3555
 1250TIP3    H225166   0.001   1.974   0.632  0.4482  0.9994 -0.1636
 1251TIP3   OH225167   5.158   4.350  11.776 -1.1201  0.0664  0.7931
 1251TIP3    H125168   5.134   4.297  11.852 -2.6998  0.1636  0.4085
 1251TIP3    H225169   5.074   4.374  11.736 -0.3274 -0.1957 -1.1408
 1252TIP3   OH225170   5.141   6.403  14.021 -0.4314  0.3117  0.1929
 1252TIP3    H125171   5.090   6.385  13.942  1.2926  0.2395 -0.9635
 1252TIP3    H225172   5.137   6.321  14.071  1.4333 -0.9926 -1.6047
 1253TIP3   OH225173   6.094   4.093  13.097  0.2560 -0.1038 -0.2739
 1253TIP3    H125174   6.120   4.185  13.088 -0.6031  0.1339 -0.3875
 1253TIP3    H225175   6.075   4.083  13.190 -1.3290  0.3062 -0.5295
 1254TIP3   OH225176   5.555   0.188   3.550  0.3075  0.6285  0.4029
 1254TIP3    H125177   5.626   0.127   3.530 -1.7656 -2.0731  0.7364
 1254TIP3    H225178   5.541   0.235   3.468  0.6244 -0.8529 -0.5438
 1255TIP3   OH225179   0.318   2.408   3.622  0.1481 -0.2382  0.5057
 1255TIP3    H125180   0.370   2.442   3.695  0.0566 -2.2700  1.5965
 1255TIP3    H225181   0.298   2.317   3.647 -2.5290 -0.0605 -0.6118
 1256TIP3   OH225182   4.286   1.644  11.836 -0.0084  0.5731  0.3508
 1256TIP3    H125183   4.237   1.694  11.902  0.1493 -0.4208  1.2617
 1256TIP3    H225184   4.359   1.701  11.813  0.2722  0.7190  1.4996
 1257TIP3   OH225185   1.207   3.550  15.691 -0.2202  0.7519  0.7874
 1257TIP3    H125186   1.255   3.469  15.673  1.3584  1.2701  2.3296
 1257TIP3    H225187   1.134   3.522  15.747 -0.4255  0.2485  0.2821
 1258TIP3   OH225188   0.021   6.499   4.542  0.4432  0.1214  0.1089
 1258TIP3    H125189  -0.048   6.531   4.600  0.6588  0.2423  0.2981
 1258TIP3    H225190   0.049   6.576   4.492 -1.7034 -0.4716 -2.2359
 1259TIP3   OH225191   3.535   6.043  12.537 -0.2390 -0.5733 -0.4633
 1259TIP3    H125192   3.595   6.089  12.477 -0.7441  0.5415 -0.1410
 1259TIP3    H225193   3.450   6.086  12.523 -0.3766 -0.3071  1.0079
 1260TIP3   OH225194   0.627   0.657  14.402  0.1256  0.2939 -0.6056
 1260TIP3    H125195   0.714   0.619  14.416  0.4007  1.3148  0.6927
 1260TIP3    H225196   0.639   0.717  14.328  0.3782  0.0000 -0.8076
 1261TIP3   OH225197   6.465   3.780   3.299  0.3189  0.5448  0.3554
 1261TIP3    H125198   6.441   3.775   3.391 -1.4164  3.0580  0.1466
 1261TIP3    H225199   6.382   3.771   3.252  0.9507  0.9494 -0.8827
 1262TIP3   OH225200   6.412   6.321   6.238  0.0252  0.3561 -0.1109
 1262TIP3    H125201   6.489   6.315   6.295  0.3230  1.8896 -0.3204
 1262TIP3    H225202   6.338   6.307   6.296  0.4292 -1.7523  0.0038
 1263TIP3   OH225203   1.614   4.402   3.667 -0.0995 -0.1727  0.6367
 1263TIP3    H125204   1.643   4.412   3.757  1.9640 -1.1551  0.1310
 1263TIP3    H225205   1.694   4.395   3.615 -1.2158  0.5942 -1.3247
 1264TIP3   OH225206   6.298   4.759   2.699  0.2384 -0.3560 -0.7333
 1264TIP3    H125207   6.331   4.808   2.774  1.6637 -2.4181  0.0976
 1264TIP3    H225208   6.316   4.815   2.623 -1.3171  1.8066  0.4125
 1265TIP3   OH225209   4.252   2.363   3.097  0.0931 -0.4126 -0.5074
 1265TIP3    H125210   4.280   2.366   3.005  0.9031 -2.3026 -0.3731
 1265TIP3    H225211   4.158   2.346   3.093  0.0507 -0.0838 -0.9824
 1266TIP3   OH225212   0.499   5.144   0.209 -0.2260  0.0510 -0.0467
 1266TIP3    H125213   0.454   5.061   0.190  0.8269 -0.9439  1.5562
 1266TIP3    H225214   0.532   5.133   0.298  2.8652  0.8694 -0.9957
 1267TIP3   OH225215   1.272   1.935   2.516  0.0933  0.3596 -0.0345
 1267TIP3    H125216   1.299   1.938   2.424 -0.2471  1.9829 -0.1187
 1267TIP3    H225217   1.185   1.897   2.514  0.6201 -0.9081 -0.2085
 1268TIP3   OH225218   2.801   2.159   5.418  0.1115  0.4485 -0.7347
 1268TIP3    H125219   2.855   2.112   5.481 -0.3214  0.3874 -0.4061
 1268TIP3    H225220   2.741   2.093   5.383  1.0107  0.2572 -1.9573
 1269TIP3   OH225221   3.655   5.827   1.822  0.2266  0.0818 -0.3851
 1269TIP3    H125222   3.654   5.736   1.853 -1.2857 -0.3517 -1.6124
 1269TIP3    H225223   3.612   5.824   1.737  0.1000  1.9738 -0.4195
 1270TIP3   OH225224   0.662   4.055  15.698 -0.5301  0.0711 -0.1306
 1270TIP3    H125225   0.673   4.063  15.793  0.6589  0.9334 -0.3220
 1270TIP3    H225226   0.568   4.042  15.686 -0.6877 -0.1471  1.1637
 1271TIP3   OH225227   1.392   0.245   0.361  0.7730 -0.1837  0.0575
 1271TIP3    H125228   1.374   0.158   0.395  2.9868 -0.9404 -0.5225
 1271TIP3    H225229   1.364   0.305   0.430  1.6187 -1.4936  1.5844
 1272TIP3   OH225230   6.531   3.364  13.098  0.6004 -0.1942 -0.1246
 1272TIP3    H125231   6.562   3.274  13.097  2.9112  0.5103  0.2624
 1272TIP3    H225232   6.522   3.388  13.006  0.2274 -0.7292 -0.2280
 1273TIP3   OH225233   6.541   0.130  11.446  0.1249 -0.1564  0.0464
 1273TIP3    H125234   6.500   0.090  11.522  0.7140  3.4444  2.5433
 1273TIP3    H225235   6.625   0.163  11.479  0.6625  1.0696 -2.3117
 1274TIP3   OH225236   4.207   6.495  12.490  0.7504 -0.0022 -0.0027
 1274TIP3    H125237   4.132   6.440  12.514  0.2682  0.5628 -0.1755
 1274TIP3    H225238   4.171   6.557  12.427  0.8330  1.6662  1.5155
 1275TIP3   OH225239   3.839   5.827   1.479  0.2602 -0.3710  0.2940
 1275TIP3    H125240   3.856   5.736   1.455 -0.6136 -1.2845  2.8979
 1275TIP3    H225241   3.753   5.847   1.441 -0.7658 -1.5412  1.9090
 1276TIP3   OH225242   3.442   1.661  16.069  0.4033  0.4108 -0.0837
 1276TIP3    H125243   3.440   1.596  15.998  1.9481 -1.1504  1.1964
 1276TIP3    H225244   3.351   1.687  16.080 -0.2633 -1.4165 -0.8003
 1277TIP3   OH225245   0.479   0.664   2.004 -0.1406 -0.1214 -0.0052
 1277TIP3    H125246   0.531   0.634   1.929 -1.8672 -0.7875 -0.9978
 1277TIP3    H225247   0.391   0.634   1.985 -1.2842  2.4540  0.7559
 1278TIP3   OH225248   6.622   5.271  11.264 -0.1425 -0.1778 -0.5615
 1278TIP3    H125249   6.621   5.196  11.323  2.8105  1.7508  2.3142
 1278TIP3    H225250   6.706   5.264  11.218  0.4381  1.5231  0.1481
 1279TIP3   OH225251   6.244   5.872   3.476 -0.4606 -0.1870 -0.3860
 1279TIP3    H125252   6.310   5.937   3.453 -0.3459 -0.3946 -0.6591
 1279TIP3    H225253   6.249   5.864   3.571 -0.9258  0.6737 -0.2791
 1280TIP3   OH225254   5.438   5.370   3.644 -0.4417  0.2044  0.4364
 1280TIP3    H125255   5.464   5.462   3.641  0.5083 -0.0590  0.2741
 1280TIP3    H225256   5.438   5.342   3.553  2.5467 -0.8056  0.6337
 1281TIP3   OH225257   4.102   1.154   1.666 -0.1351 -0.5203 -0.2343
 1281TIP3    H125258   4.091   1.067   1.627 -2.6517 -0.0409 -0.7032
 1281TIP3    H225259   4.097   1.214   1.592 -0.6844  0.1581  0.3524
 1282TIP3   OH225260   1.193   5.970  12.394  0.1337  0.5526 -0.0875
 1282TIP3    H125261   1.287   5.979  12.413  0.1129  0.3091  0.1393
 1282TIP3    H225262   1.191   5.929  12.308  0.2326  1.0635 -0.3368
 1283TIP3   OH225263   0.078   2.766   1.929  0.0775  0.1535 -0.1279
 1283TIP3    H125264   0.056   2.743   2.020 -0.3206 -1.6127 -0.6230
 1283TIP3    H225265   0.173   2.766   1.926  0.0916  0.0603  0.2711
 1284TIP3   OH225266   0.137   5.902   5.248 -0.0411  0.4832  0.1059
 1284TIP3    H125267   0.220   5.926   5.290 -0.1031 -0.7109  0.9858
 1284TIP3    H225268   0.069   5.933   5.307 -0.1891  0.4254 -0.0315
 1285TIP3   OH225269   0.803   1.997   3.615  0.1403  0.4243  0.0766
 1285TIP3    H125270   0.865   2.052   3.664  0.2421  0.8845 -0.5596
 1285TIP3    H225271   0.723   2.050   3.611  0.3688  0.7083 -0.8969
 1286TIP3   OH225272   0.231   4.576  15.518  0.0052 -0.2357  0.0183
 1286TIP3    H125273   0.310   4.608  15.475 -0.5034 -0.2207 -0.9443
 1286TIP3    H225274   0.217   4.637  15.591 -0.3740  1.1875 -1.1737
 1287TIP3   OH225275   0.344   6.759   4.721  0.1061  0.4908 -0.3883
 1287TIP3    H125276   0.309   6.674   4.744 -2.2306  0.9701 -1.7740
 1287TIP3    H225277   0.365   6.752   4.628  3.0059  0.5312  0.1639
 1288TIP3   OH225278   1.945   2.954   1.060  0.6065 -0.3019  0.1357
 1288TIP3    H125279   1.914   2.908   1.138 -0.7153 -0.6874 -0.5822
 1288TIP3    H225280   1.907   3.042   1.067  1.3535  0.0102  0.4286
 1289TIP3   OH225281   5.092   3.876   4.436  0.0271 -0.1555 -0.1821
 1289TIP3    H125282   5.028   3.818   4.476 -1.5610  0.5960 -1.4693
 1289TIP3    H225283   5.174   3.857   4.480 -0.8972 -1.8132  0.9074
 1290TIP3   OH225284   0.876   5.199   3.300 -0.2708 -0.1200 -0.5794
 1290TIP3    H125285   0.940   5.265   3.328  0.8944 -0.5106 -2.1685
 1290TIP3    H225286   0.798   5.249   3.279 -0.2822  0.4476  0.7072
 1291TIP3   OH225287   6.051   0.389   6.041 -0.6347  0.1131 -0.1856
 1291TIP3    H125288   6.013   0.475   6.025 -0.7187 -0.2407 -2.0330
 1291TIP3    H225289   5.980   0.338   6.080 -0.3395  1.0740  1.7663
 1292TIP3   OH225290   0.518   4.198   5.653 -0.1541 -0.0177  0.2560
 1292TIP3    H125291   0.553   4.272   5.704  0.6110  0.9141 -1.5469
 1292TIP3    H225292   0.479   4.238   5.576 -0.7168 -1.4420 -0.2199
 1293TIP3   OH225293   5.557   3.033  15.732 -0.5897  0.2388  0.2465
 1293TIP3    H125294   5.495   3.104  15.716 -0.2777  0.6372  0.7623
 1293TIP3    H225295   5.596   3.054  15.816  0.8772  0.4668 -0.4557
 1294TIP3   OH225296   4.263   3.827  16.250  0.6386  0.2779 -0.1519
 1294TIP3    H125297   4.334   3.884  16.218  1.2294  0.4368  1.3630
 1294TIP3    H225298   4.220   3.879  16.318  0.7647 -0.8371  0.7968
 1295TIP3   OH225299   4.035   1.192  14.710  0.1418 -0.0503  0.3685
 1295TIP3    H125300   3.975   1.153  14.774 -1.1725  1.3850  0.0809
 1295TIP3    H225301   3.979   1.216  14.636  1.8383 -3.1217 -2.1266
 1296TIP3   OH225302   4.340   4.557  14.422 -0.4989 -0.6358  0.2262
 1296TIP3    H125303   4.392   4.483  14.452  1.9999  0.8289 -0.1656
 1296TIP3    H225304   4.355   4.560  14.327  0.4439  1.0215  0.3880
 1297TIP3   OH225305   0.255   4.302  15.252  0.2830 -0.3685  0.0438
 1297TIP3    H125306   0.195   4.229  15.238  1.1187 -0.6072 -3.0733
 1297TIP3    H225307   0.200   4.373  15.285 -1.7187 -0.7165 -2.2564
 1298TIP3   OH225308   0.596   2.538   1.395  0.3683  0.5639 -0.2231
 1298TIP3    H125309   0.627   2.451   1.419  1.1366  0.6853 -0.7475
 1298TIP3    H225310   0.674   2.583   1.363 -0.3254  0.9036 -1.5023
 1299TIP3   OH225311   3.924   6.644  15.727 -0.0014 -0.0444 -0.1643
 1299TIP3    H125312   3.852   6.642  15.664 -1.3034  0.8125  1.2438
 1299TIP3    H225313   3.914   6.728  15.772  1.4272 -0.2575  0.6082
 1300TIP3   OH225314   1.349   3.779  15.830 -0.4464  0.4766  0.0627
 1300TIP3    H125315   1.343   3.752  15.738  2.2535  2.9176 -0.9898
 1300TIP3    H225316   1.388   3.704  15.874 -2.8313 -1.1703 -0.4363
 1301TIP3   OH225317   1.657   1.058  15.761  0.3298  0.1642  0.3533
 1301TIP3    H125318   1.695   0.970  15.755  1.3286  0.5887  0.4121
 1301TIP3    H225319   1.705   1.101  15.831  0.6726  1.1654 -0.4783
 1302TIP3   OH225320   5.127   6.238  11.652  0.1700 -0.0898  0.2434
 1302TIP3    H125321   5.173   6.221  11.570 -0.0110  1.3093 -0.1850
 1302TIP3    H225322   5.130   6.334  11.661  1.4954 -0.2717  2.6232
 1303TIP3   OH225323   4.697   5.548  12.213  0.0056 -0.4452 -0.0635
 1303TIP3    H125324   4.752   5.590  12.279 -1.1554  0.3032  0.4630
 1303TIP3    H225325   4.618   5.523  12.260 -1.3932  1.2305 -1.3730
 1304TIP3   OH225326   3.942   2.214   2.078 -0.0401  0.0048  0.4209
 1304TIP3    H125327   4.000   2.210   2.154 -0.4296 -0.1738  0.7054
 1304TIP3    H225328   3.980   2.283   2.023  1.0041 -0.7694  0.1390
 1305TIP3   OH225329   5.726   1.857  12.168  0.3028  0.1760  0.5692
 1305TIP3    H125330   5.695   1.793  12.232 -1.3964  0.4229  0.0503
 1305TIP3    H225331   5.819   1.837  12.157  0.5719 -0.1188  2.8079
 1306TIP3   OH225332   6.268   2.409   3.623  0.1400  0.0641  0.2875
 1306TIP3    H125333   6.339   2.459   3.583 -0.0014 -0.0907 -0.1542
 1306TIP3    H225334   6.194   2.421   3.564  0.2595 -1.1385 -0.1191
 1307TIP3   OH225335   1.632   1.404  16.368  0.3709 -0.1681  0.6056
 1307TIP3    H125336   1.624   1.323  16.419  2.0505  0.3435  1.7458
 1307TIP3    H225337   1.658   1.375  16.281  2.6789 -0.8494  1.4406
 1308TIP3   OH225338   5.208   2.910  11.962 -0.1074 -0.0533 -0.0613
 1308TIP3    H125339   5.115   2.921  11.948 -0.2408 -1.1970 -0.2220
 1308TIP3    H225340   5.229   2.827  11.918  0.2530 -1.6983  2.9169
 1309TIP3   OH225341   6.383   1.574  16.573 -0.2088 -0.3558 -0.3053
 1309TIP3    H125342   6.324   1.642  16.541 -0.8562 -0.3598  0.8295
 1309TIP3    H225343   6.471   1.605  16.551 -0.5684  0.2351 -0.9158
 1310TIP3   OH225344   1.784   5.321  14.716  0.2692 -0.0644  0.1372
 1310TIP3    H125345   1.762   5.406  14.679 -0.9774 -0.8741 -1.0962
 1310TIP3    H225346   1.860   5.291  14.667 -0.7696 -0.6910 -1.1547
 1311TIP3   OH225347   5.600   3.935  15.356  0.2147 -0.0111  0.3366
 1311TIP3    H125348   5.566   4.010  15.405 -0.2516  0.6139 -0.9200
 1311TIP3    H225349   5.628   3.971  15.272  0.0828 -1.2232 -0.2506
 1312TIP3   OH225350   4.665   2.036  12.175 -0.0630  0.7056 -0.0861
 1312TIP3    H125351   4.695   2.124  12.154  0.8439  0.6607  0.9456
 1312TIP3    H225352   4.739   1.995  12.218 -0.9027 -0.1348  0.6027
 1313TIP3   OH225353   3.414   0.799  14.337  0.0484 -0.4974  0.2197
 1313TIP3    H125354   3.483   0.773  14.399  0.5462 -0.6734 -0.3951
 1313TIP3    H225355   3.422   0.737  14.265  0.4708  0.5897 -0.7152
 1314TIP3   OH225356   6.046   0.235  15.715 -0.1527 -0.3808 -0.1862
 1314TIP3    H125357   6.023   0.156  15.764  0.1448 -0.5105 -0.2495
 1314TIP3    H225358   5.987   0.302  15.748 -0.0611 -0.5043  0.2361
 1315TIP3   OH225359   4.837   2.260   2.417 -0.0380  0.0664 -0.2196
 1315TIP3    H125360   4.781   2.185   2.395 -0.0079  0.2276 -0.8840
 1315TIP3    H225361   4.861   2.246   2.508 -0.7677 -0.2623 -0.0658
 1316TIP3   OH225362   6.746   3.657   2.261 -0.0361 -0.2307  0.0113
 1316TIP3    H125363   6.820   3.599   2.241  0.5132  0.1739  0.8027
 1316TIP3    H225364   6.781   3.746   2.246 -0.6994 -0.0787 -0.6630
 1317TIP3   OH225365   6.450   3.764  15.819  0.1723  0.0125  0.3061
 1317TIP3    H125366   6.419   3.786  15.906  1.1476 -1.3086  1.0373
 1317TIP3    H225367   6.381   3.710  15.781 -1.3592  2.5609 -0.7514
 1318TIP3   OH225368   1.959   5.006  15.653  0.7930  0.2467 -0.2598
 1318TIP3    H125369   2.044   5.042  15.678  0.9525 -0.3910  0.1554
 1318TIP3    H225370   1.896   5.071  15.681  1.1774  1.0213 -1.1479
 1319TIP3   OH225371   6.392   4.891  15.764 -0.3829 -0.1731  0.0482
 1319TIP3    H125372   6.477   4.900  15.807  0.0029  2.4142 -1.0350
 1319TIP3    H225373   6.340   4.964  15.798 -1.4803 -0.5512 -0.7502
 1320TIP3   OH225374   2.657   5.102   4.151 -0.0336  0.5288 -0.6206
 1320TIP3    H125375   2.596   5.044   4.106  0.9786 -1.3098  0.2854
 1320TIP3    H225376   2.609   5.132   4.228  0.2826 -1.1848  0.2743
 1321TIP3   OH225377   4.544   3.648   4.478  0.5005  0.2134  0.0213
 1321TIP3    H125378   4.474   3.709   4.453 -0.3580 -1.2539 -1.3732
 1321TIP3    H225379   4.599   3.641   4.400 -0.1153 -1.6616 -0.3055
 1322TIP3   OH225380   0.448   5.918   5.130  0.1285  0.5426 -0.3871
 1322TIP3    H125381   0.543   5.917   5.141  0.1482  0.3321 -0.5695
 1322TIP3    H225382   0.414   5.871   5.207  0.3034 -1.5742 -1.5525
 1323TIP3   OH225383   0.004   3.332  11.691 -0.0585 -0.0671 -0.4540
 1323TIP3    H125384   0.036   3.415  11.728 -0.0460 -1.2647  2.5689
 1323TIP3    H225385  -0.091   3.336  11.700 -0.0439 -0.4473 -0.0790
 1324TIP3   OH225386   4.614   4.877  11.662  0.1923 -0.5123 -0.3058
 1324TIP3    H125387   4.539   4.863  11.604  0.8979 -2.3942 -0.8263
 1324TIP3    H225388   4.679   4.920  11.606  0.2043 -0.6437 -0.3922
 1325TIP3   OH225389   5.618   0.215   3.852  0.8585  0.2009  0.0061
 1325TIP3    H125390   5.567   0.207   3.771 -0.1632 -0.2577  0.6814
 1325TIP3    H225391   5.707   0.229   3.822  0.4768  0.1716 -1.2094
 1326TIP3   OH225392   6.644   5.943  16.096  0.2914 -0.0153 -0.0914
 1326TIP3    H125393   6.562   5.902  16.067  0.4880 -0.5938  0.1483
 1326TIP3    H225394   6.622   5.981  16.181  0.8246 -2.1598  1.0776
 1327TIP3   OH225395   3.207   2.296  15.864 -0.5419  0.1030 -0.4872
 1327TIP3    H125396   3.263   2.234  15.817  0.9491  0.0826  1.1766
 1327TIP3    H225397   3.171   2.352  15.796 -0.0596 -1.1349 -1.8195
 1328TIP3   OH225398   1.141   1.063  10.469  0.5790  0.2088  0.4271
 1328TIP3    H125399   1.057   1.101  10.496  0.0312 -1.3919  1.1128
 1328TIP3    H225400   1.207   1.126  10.499 -0.2511  0.3756  1.9873
 1329TIP3   OH225401   6.498   1.699  13.741  0.3199  0.0799 -1.0513
 1329TIP3    H125402   6.460   1.673  13.825  2.1352 -1.2491 -0.5615
 1329TIP3    H225403   6.527   1.789  13.754  0.5449 -0.1023 -0.2315
 1330TIP3   OH225404   0.766   0.819   0.398 -0.0839 -0.1192  0.1267
 1330TIP3    H125405   0.703   0.790   0.331  0.4215 -0.3277 -0.2623
 1330TIP3    H225406   0.711   0.846   0.472 -0.6149 -2.6620  0.7687
 1331TIP3   OH225407   5.778   5.642  15.260 -0.5663  0.6064  0.1993
 1331TIP3    H125408   5.862   5.685  15.245 -0.2288  0.6862  2.0595
 1331TIP3    H225409   5.719   5.682  15.196  0.5702  1.2420 -0.4875
 1332TIP3   OH225410   2.616   6.335   1.140 -0.1348  0.0409  0.0650
 1332TIP3    H125411   2.617   6.430   1.147  0.5240 -0.0184  0.9260
 1332TIP3    H225412   2.680   6.315   1.071 -0.3119  0.2194 -0.1525
 1333TIP3   OH225413   6.365   5.913   5.835 -0.7818 -0.3822  0.1835
 1333TIP3    H125414   6.356   5.827   5.876  0.1673 -1.3975 -1.6053
 1333TIP3    H225415   6.459   5.929   5.833 -0.8578  0.0262 -0.7903
 1334TIP3   OH225416   0.157   4.895   2.552 -0.3190 -0.1563  0.2561
 1334TIP3    H125417   0.097   4.968   2.538 -0.8638 -0.2828  1.7269
 1334TIP3    H225418   0.220   4.928   2.616  0.3026 -0.5157 -0.1564
 1335TIP3   OH225419   3.482   3.339   5.326 -0.1767 -0.0160 -0.7022
 1335TIP3    H125420   3.453   3.386   5.248 -0.2002  0.9956 -0.1055
 1335TIP3    H225421   3.577   3.328   5.313 -0.0226  0.9547 -0.4778
 1336TIP3   OH225422   6.569   2.790   3.082 -0.6230 -0.1911  0.1694
 1336TIP3    H125423   6.541   2.856   3.018  0.2557  0.5859  0.5625
 1336TIP3    H225424   6.657   2.766   3.055 -0.8483 -1.0639  0.1640
 1337TIP3   OH225425   0.620   3.876  10.521 -0.3820 -0.1902  0.3123
 1337TIP3    H125426   0.691   3.931  10.488 -0.6090 -0.2357 -0.2710
 1337TIP3    H225427   0.638   3.790  10.484 -2.1280  0.3452 -2.0424
 1338TIP3   OH225428   5.162   0.494  14.396 -0.1070 -0.4325 -0.0441
 1338TIP3    H125429   5.088   0.539  14.437 -1.5158 -3.4781  1.0799
 1338TIP3    H225430   5.133   0.478  14.306 -1.7231 -3.1500  0.8529
 1339TIP3   OH225431   1.865   1.875  16.336  0.1512  0.8727  0.0106
 1339TIP3    H125432   1.812   1.918  16.268  1.0027  1.4888 -0.2768
 1339TIP3    H225433   1.892   1.945  16.394  1.7624  0.8130 -0.5979
 1340TIP3   OH225434   0.621   4.655  13.841  0.1330  0.4345  0.1796
 1340TIP3    H125435   0.668   4.726  13.797  0.2376  0.9431  1.0887
 1340TIP3    H225436   0.571   4.613  13.771  2.0229 -0.2147 -0.8349
 1341TIP3   OH225437   0.190   2.272  16.293 -0.2308  0.4521  0.4262
 1341TIP3    H125438   0.122   2.304  16.234 -0.0102 -2.2507 -1.4157
 1341TIP3    H225439   0.147   2.270  16.379 -2.2663 -0.4718 -0.5504
 1342TIP3   OH225440   6.452   3.816  10.656 -0.1781  0.3869 -0.5405
 1342TIP3    H125441   6.516   3.879  10.687 -0.9208  1.1208 -0.4718
 1342TIP3    H225442   6.400   3.864  10.592  1.1671 -0.9963 -2.8516
 1343TIP3   OH225443   3.926   0.455   3.342  0.1745 -0.2389 -0.2407
 1343TIP3    H125444   3.986   0.415   3.280  0.6817  2.4124 -1.6094
 1343TIP3    H225445   3.892   0.532   3.297 -2.3938 -0.2834  1.4154
 1344TIP3   OH225446   5.370   5.864  14.244 -0.0439 -0.2641 -0.1705
 1344TIP3    H125447   5.428   5.829  14.177  2.0305  0.7388  1.0060
 1344TIP3    H225448   5.299   5.906  14.195  0.5008 -1.0379 -1.6804
 1345TIP3   OH225449   4.549   0.004  14.744 -0.0257  0.0112 -0.3015
 1345TIP3    H125450   4.566  -0.063  14.810  1.3195  0.9349  0.3612
 1345TIP3    H225451   4.454   0.013  14.742 -0.1131  0.5387  2.1650
 1346TIP3   OH225452   4.332   5.796  15.441 -0.5748 -0.6469 -0.1991
 1346TIP3    H125453   4.407   5.830  15.490 -0.1727  1.2816 -1.9867
 1346TIP3    H225454   4.256   5.834  15.484 -0.1613  2.1657 -1.7319
 1347TIP3   OH225455   1.212   3.431   0.375  0.0885  0.2646 -0.2971
 1347TIP3    H125456   1.253   3.361   0.325  0.3341 -0.0512  0.3354
 1347TIP3    H225457   1.205   3.396   0.464 -1.1446  0.4813 -0.2877
 1348TIP3   OH225458   0.382   6.645   1.779  0.1614  0.0018  0.5730
 1348TIP3    H125459   0.327   6.654   1.701  0.3611 -1.8004  0.1827
 1348TIP3    H225460   0.322   6.659   1.852 -0.6584 -1.0299  0.1320
 1349TIP3   OH225461   6.190   0.660  14.030  0.0366 -0.2423 -0.8389
 1349TIP3    H125462   6.136   0.602  13.976 -0.0375 -1.6072  0.6327
 1349TIP3    H225463   6.277   0.620  14.028 -0.1338 -0.7319  0.6020
 1350TIP3   OH225464   2.668   2.204  14.751  0.4084  0.0701 -0.0719
 1350TIP3    H125465   2.690   2.275  14.690  0.5036  0.8061  0.8031
 1350TIP3    H225466   2.718   2.224  14.830 -0.5103 -0.3080  0.6217
 1351TIP3   OH225467   5.421   0.858   0.317  0.3864  0.4851 -0.9108
 1351TIP3    H125468   5.509   0.833   0.344  0.4624  0.2639 -1.3508
 1351TIP3    H225469   5.413   0.950   0.342  0.0737  0.0304  0.8426
 1352TIP3   OH225470   4.865   5.890   4.915 -0.1280  0.0696  0.2264
 1352TIP3    H125471   4.799   5.823   4.930 -1.2285  1.0176 -0.1947
 1352TIP3    H225472   4.836   5.935   4.836  1.0055  0.5470  0.0591
 1353TIP3   OH225473   4.462   5.893   1.440 -0.1175  0.1521 -0.6470
 1353TIP3    H125474   4.373   5.862   1.460 -0.1331  0.9936  0.7588
 1353TIP3    H225475   4.500   5.824   1.386 -0.7397 -1.5152  0.9343
 1354TIP3   OH225476   2.241   2.657  10.684 -0.0110  0.1097 -1.0039
 1354TIP3    H125477   2.169   2.697  10.734 -0.0952 -0.9286 -0.2624
 1354TIP3    H225478   2.198   2.612  10.612  0.0923  1.4068 -1.9072
 1355TIP3   OH225479   6.603   1.215   1.443  0.4042 -0.0394 -0.1319
 1355TIP3    H125480   6.637   1.267   1.370  0.9282  0.5690  0.5438
 1355TIP3    H225481   6.643   1.253   1.521 -1.2660  0.2389  0.6298
 1356TIP3   OH225482   6.602   0.990   4.014 -0.0353  0.3577 -0.1249
 1356TIP3    H125483   6.599   0.908   3.966  1.1641 -0.2583  0.7921
 1356TIP3    H225484   6.534   0.981   4.080  0.3725 -0.1056  0.2471
 1357TIP3   OH225485   2.883   4.910  13.947 -0.4322  0.0205 -0.5628
 1357TIP3    H125486   2.810   4.962  13.914 -0.2213  0.6218 -0.0963
 1357TIP3    H225487   2.858   4.820  13.929 -0.9594  0.2594 -1.0710
 1358TIP3   OH225488   0.837   5.379   1.018  0.5937 -0.0873  0.3222
 1358TIP3    H125489   0.763   5.434   0.991  1.4977  0.8721 -0.3279
 1358TIP3    H225490   0.872   5.345   0.935 -0.8603 -2.9715  0.7786
 1359TIP3   OH225491   0.931   1.510   0.877 -0.1658 -0.4346  0.0656
 1359TIP3    H125492   0.955   1.593   0.918  0.0345  0.0329 -0.9638
 1359TIP3    H225493   0.934   1.528   0.783  1.2572 -1.9901 -0.2228
 1360TIP3   OH225494   6.408   4.124  16.655  0.1893 -0.4467  0.1484
 1360TIP3    H125495   6.313   4.133  16.644 -0.0865 -0.0983  2.3219
 1360TIP3    H225496   6.445   4.185  16.591 -1.2010  2.3267  1.7853
 1361TIP3   OH225497   1.376   0.433  16.738 -0.4224 -0.0130  0.1804
 1361TIP3    H125498   1.386   0.425  16.833  0.4116  1.4118  0.2418
 1361TIP3    H225499   1.461   0.407  16.703 -0.1692  1.0794 -0.0517
 1362TIP3   OH225500   2.023   2.934   2.016  0.1542  0.2592 -0.6760
 1362TIP3    H125501   2.046   3.020   1.979  1.5678  1.0262  1.7563
 1362TIP3    H225502   1.952   2.953   2.078  0.2527 -0.3714 -0.3691
 1363TIP3   OH225503   3.342   4.091  12.941  0.5608 -0.6845 -0.4815
 1363TIP3    H125504   3.264   4.132  12.978  0.4457 -1.5095  0.2034
 1363TIP3    H225505   3.415   4.129  12.990  0.5709 -0.2173 -0.8465
 1364TIP3   OH225506   1.984   0.650   0.307 -0.2324  0.2572 -0.5960
 1364TIP3    H125507   2.003   0.560   0.334  0.1197  0.9455  1.7239
 1364TIP3    H225508   1.891   0.650   0.286 -0.5780 -0.3657  0.8084
 1365TIP3   OH225509   4.016   3.512   4.490 -0.6084  0.2764  0.1621
 1365TIP3    H125510   4.036   3.423   4.519 -1.1288  0.0775 -0.0701
 1365TIP3    H225511   4.066   3.569   4.548  0.6214 -0.1939 -0.4062
 1366TIP3   OH225512   5.393   3.407  11.488  0.4634  0.1638  0.2482
 1366TIP3    H125513   5.426   3.422  11.576 -0.4116  1.7753  0.3249
 1366TIP3    H225514   5.407   3.313  11.473 -0.9958 -0.5699  2.7884
 1367TIP3   OH225515   6.427   0.058   4.802  0.2128 -0.2590 -0.4047
 1367TIP3    H125516   6.416  -0.028   4.843  1.2899  0.5867  1.7865
 1367TIP3    H225517   6.358   0.061   4.735 -0.6190 -2.3319  0.2694
 1368TIP3   OH225518   0.899   2.534   0.902 -0.7067 -0.2136  0.5188
 1368TIP3    H125519   0.943   2.526   0.817 -0.3609 -1.9992  0.8315
 1368TIP3    H225520   0.912   2.626   0.927 -3.2905  1.2007 -2.6337
 1369TIP3   OH225521   3.966   2.830   1.348  0.3995  0.1098 -0.0975
 1369TIP3    H125522   3.935   2.860   1.434 -1.5845  1.9790 -1.3593
 1369TIP3    H225523   3.908   2.757   1.326 -1.5616  1.9112 -1.3003
 1370TIP3   OH225524   2.616   3.928   4.833 -0.2289 -0.0612  0.6172
 1370TIP3    H125525   2.623   3.833   4.838  0.6234 -0.0245  0.2358
 1370TIP3    H225526   2.527   3.947   4.863 -0.5036 -0.9956  0.4122
 1371TIP3   OH225527   1.471   2.178   1.079  0.4949 -0.8135  0.0619
 1371TIP3    H125528   1.431   2.163   1.165 -0.0695 -0.8526 -0.1977
 1371TIP3    H225529   1.562   2.197   1.097  0.2146 -0.0620  0.7324
 1372TIP3   OH225530   3.416   3.143   0.481  0.2013  0.7016  0.2034
 1372TIP3    H125531   3.353   3.205   0.519 -2.0273 -1.4360  0.2397
 1372TIP3    H225532   3.390   3.136   0.389 -0.3852 -0.9942  0.4538
 1373TIP3   OH225533   1.830   5.547  12.807 -0.0643 -0.0724  0.2217
 1373TIP3    H125534   1.757   5.597  12.771 -1.5742 -0.2910  2.7195
 1373TIP3    H225535   1.795   5.459  12.820  1.1814 -0.6286 -0.0824
 1374TIP3   OH225536   2.940   4.637  17.028  0.0149  0.3513 -0.4760
 1374TIP3    H125537   2.973   4.578  17.096  0.1083 -0.2474 -1.0242
 1374TIP3    H225538   2.909   4.714  17.075  0.2356  0.0159  0.2266
 1375TIP3   OH225539   5.237   0.574   4.858 -0.3364 -0.6628  0.0699
 1375TIP3    H125540   5.182   0.632   4.910 -0.9688 -1.8320  0.7440
 1375TIP3    H225541   5.303   0.542   4.919  1.2437  0.8224 -0.7586
 1376TIP3   OH225542   6.519   5.370  16.258  0.2600  0.6936 -0.3925
 1376TIP3    H125543   6.547   5.360  16.349 -1.5928  2.0638  0.3825
 1376TIP3    H225544   6.563   5.298  16.212  1.4789  0.1418  1.4977
 1377TIP3   OH225545   2.925   6.778   0.136  0.1861 -0.4114  0.4945
 1377TIP3    H125546   2.973   6.762   0.217  1.3013  1.0998  0.1685
 1377TIP3    H225547   2.839   6.810   0.165  0.6976  0.4479  1.0752
 1378TIP3   OH225548   4.363   5.833   5.721 -0.4635  0.3827  0.2488
 1378TIP3    H125549   4.335   5.813   5.632  0.4771 -1.7572  0.3921
 1378TIP3    H225550   4.311   5.775   5.776 -0.0076  0.6658  0.9896
 1379TIP3   OH225551   4.557   6.692   2.454  0.4269  0.2081  0.0555
 1379TIP3    H125552   4.503   6.621   2.490  0.8599  0.4025  1.1169
 1379TIP3    H225553   4.514   6.715   2.372 -0.2687 -0.6353  0.1674
 1380TIP3   OH225554   0.985   2.911  10.467 -0.3097  0.4653 -0.8714
 1380TIP3    H125555   0.985   2.827  10.513  1.0793  0.0148 -1.6243
 1380TIP3    H225556   0.928   2.896  10.391 -0.1987  0.2546 -0.9143
 1381TIP3   OH225557   2.793   1.520   0.315 -0.6211  0.3488  0.1455
 1381TIP3    H125558   2.707   1.480   0.324 -1.0887  1.7106  2.4063
 1381TIP3    H225559   2.775   1.611   0.295  0.2347  0.9150  1.8290
 1382TIP3   OH225560   2.618   3.536  10.605  0.5683  0.2964  0.4979
 1382TIP3    H125561   2.539   3.550  10.656  1.0074  2.0543  0.7554
 1382TIP3    H225562   2.589   3.488  10.528 -0.4398 -0.5961  1.4169
 1383TIP3   OH225563   5.310   4.167   5.481 -0.0081 -0.0481 -0.1993
 1383TIP3    H125564   5.392   4.170   5.432 -0.4020  1.8111 -0.8248
 1383TIP3    H225565   5.242   4.183   5.415 -0.6536  1.1264  0.7014
 1384TIP3   OH225566   3.530   1.829   1.696  0.1089  0.2706 -0.6496
 1384TIP3    H125567   3.575   1.746   1.680  0.5154  0.6937 -1.7907
 1384TIP3    H225568   3.447   1.821   1.650 -1.9457 -1.2020  2.8589
 1385TIP3   OH225569   0.421   2.362  10.841  0.3414  0.2993 -0.2182
 1385TIP3    H125570   0.458   2.301  10.905  1.6356  1.5956  0.3300
 1385TIP3    H225571   0.339   2.322  10.814 -0.3298 -0.2325  2.3705
 1386TIP3   OH225572   4.614   0.699  11.720  0.3890 -0.0194 -0.0586
 1386TIP3    H125573   4.562   0.697  11.800  0.5754 -2.0618  0.0737
 1386TIP3    H225574   4.561   0.747  11.657  0.7417  2.7093  1.5542
 1387TIP3   OH225575   5.171   5.643   4.157  0.2078 -0.2243 -0.0433
 1387TIP3    H125576   5.195   5.632   4.066 -1.3094 -0.2257 -0.4782
 1387TIP3    H225577   5.128   5.561   4.181 -0.6599  0.2924  0.2308
 1388TIP3   OH225578   0.375   6.319  16.468 -0.1628  0.5505 -0.1669
 1388TIP3    H125579   0.331   6.367  16.399 -0.7078 -1.2518 -1.1376
 1388TIP3    H225580   0.319   6.330  16.545 -0.7099  0.7735 -0.5958
 1389TIP3   OH225581   4.080   2.742  17.156  0.0889 -0.0481 -0.1092
 1389TIP3    H125582   4.065   2.690  17.236 -1.3392  0.5417  0.0317
 1389TIP3    H225583   4.093   2.831  17.188  0.2030  0.0714 -0.4947
 1390TIP3   OH225584   6.248   2.544  16.177 -0.2101  0.2260 -0.9271
 1390TIP3    H125585   6.160   2.577  16.157  0.3206  0.5527 -2.9713
 1390TIP3    H225586   6.244   2.521  16.270 -1.7726  2.3734 -0.3628
 1391TIP3   OH225587   2.354   2.302   1.030 -0.0187 -0.3057 -0.0487
 1391TIP3    H125588   2.432   2.305   0.975 -0.4320 -0.3108 -0.6424
 1391TIP3    H225589   2.295   2.240   0.987 -0.6884  0.3268 -0.0753
 1392TIP3   OH225590   2.676   1.842  14.097  0.2609 -0.1496  0.3235
 1392TIP3    H125591   2.644   1.803  14.016 -0.8375 -1.2333  1.2489
 1392TIP3    H225592   2.730   1.916  14.068  0.6650 -1.0781 -1.4094
 1393TIP3   OH225593   1.471   1.151  16.201 -0.0777 -0.1768 -0.0990
 1393TIP3    H125594   1.467   1.155  16.297 -0.5156 -1.4483 -0.0412
 1393TIP3    H225595   1.380   1.155  16.174 -0.0373 -1.0041 -0.3855
 1394TIP3   OH225596   3.005   2.030   4.857  0.4158 -0.0484  0.4433
 1394TIP3    H125597   2.944   2.004   4.926  0.1536  1.4848  0.8363
 1394TIP3    H225598   3.060   2.096   4.899  0.7191  0.3886 -0.6250
 1395TIP3   OH225599   2.163   6.642   1.112 -0.1191 -0.0183 -0.1000
 1395TIP3    H125600   2.120   6.655   1.197 -0.5651 -3.1589  0.2598
 1395TIP3    H225601   2.112   6.573   1.070  1.2254  0.1544 -2.1439
 1396TIP3   OH225602   2.023   4.276   4.715  0.2659 -0.3119  0.5049
 1396TIP3    H125603   1.962   4.203   4.705 -0.3427 -0.1951  2.7718
 1396TIP3    H225604   1.968   4.354   4.719  0.8943  0.3007 -1.5806
 1397TIP3   OH225605   6.377   2.021   5.677 -0.7103  0.0912  0.4997
 1397TIP3    H125606   6.458   2.067   5.699 -0.9377  1.2818 -0.9591
 1397TIP3    H225607   6.396   1.977   5.594 -1.7171  0.8854 -0.1751
 1398TIP3   OH225608   0.863   1.655  16.390 -0.5940 -0.2307  0.4230
 1398TIP3    H125609   0.829   1.583  16.336 -1.2111 -1.8760  2.8222
 1398TIP3    H225610   0.958   1.648  16.381 -0.6596 -1.0586  0.2217
 1399TIP3   OH225611   0.617   1.325   5.519 -0.5091 -0.6935  0.2324
 1399TIP3    H125612   0.597   1.354   5.430 -1.0420 -1.5343  0.0718
 1399TIP3    H225613   0.569   1.243   5.530 -0.2969 -0.7049  1.2300
 1400TIP3   OH225614   2.946   0.582  11.427 -0.0388 -0.1648  0.0919
 1400TIP3    H125615   2.904   0.621  11.350  0.1398 -0.4537 -0.1535
 1400TIP3    H225616   2.959   0.656  11.487  0.8393  0.2699 -0.6065
 1401TIP3   OH225617   3.080   6.649   1.617  0.0540  0.4957  0.5415
 1401TIP3    H125618   3.104   6.740   1.603  3.5727 -0.5763 -1.7345
 1401TIP3    H225619   3.154   6.612   1.665 -0.3551 -1.5940 -0.3292
 1402TIP3   OH225620   2.332   0.081   1.903  0.1560 -0.1441 -0.7744
 1402TIP3    H125621   2.290   0.050   1.983  1.6526 -0.3902 -0.0525
 1402TIP3    H225622   2.295   0.026   1.833 -0.4091 -0.6157 -0.1116
 1403TIP3   OH225623   2.796   5.957   1.067 -0.3948 -0.6442  0.3137
 1403TIP3    H125624   2.778   5.863   1.063 -1.9042 -0.3421 -0.9110
 1403TIP3    H225625   2.842   5.976   0.986 -2.0962  0.0122 -0.5573
 1404TIP3   OH225626   3.327   3.680  12.611 -0.6661  0.1919  0.4615
 1404TIP3    H125627   3.295   3.730  12.685 -2.5866 -1.7060  1.0333
 1404TIP3    H225628   3.263   3.697  12.541 -0.8375 -0.7052  0.3856
 1405TIP3   OH225629   4.399   5.411   1.603  0.4515  0.1335  0.0350
 1405TIP3    H125630   4.473   5.473   1.602  0.5448  0.0224  0.0444
 1405TIP3    H225631   4.341   5.443   1.535 -0.0261  0.8708  0.7694
 1406TIP3   OH225632   1.940   6.677  14.825  0.0911 -0.1459  0.0964
 1406TIP3    H125633   1.947   6.693  14.731 -1.1514  0.3121  0.0674
 1406TIP3    H225634   1.866   6.730  14.854 -1.4741 -2.5005  0.7929
 1407TIP3   OH225635   3.698   0.597   3.206 -0.3474 -0.2567 -0.2061
 1407TIP3    H125636   3.652   0.526   3.250 -0.9432 -0.6018 -1.3370
 1407TIP3    H225637   3.634   0.633   3.144 -0.0600  1.2646  0.3267
 1408TIP3   OH225638   6.497   1.637   4.295  0.1753  0.2754  0.2745
 1408TIP3    H125639   6.576   1.687   4.274 -0.6372  1.9841  1.1014
 1408TIP3    H225640   6.442   1.646   4.217  0.7156 -0.8900 -0.2890
 1409TIP3   OH225641   6.648   1.733   2.051  0.5588 -0.0056  0.1855
 1409TIP3    H125642   6.603   1.747   2.134  0.7111  2.2095 -0.0401
 1409TIP3    H225643   6.581   1.693   1.994  0.5260 -1.7620  1.3755
 1410TIP3   OH225644   3.781   0.787   2.833  0.2377  0.2640 -0.9640
 1410TIP3    H125645   3.804   0.742   2.752  2.5992 -0.2246 -0.0972
 1410TIP3    H225646   3.858   0.776   2.889 -1.4386  0.2622  1.4991
 1411TIP3   OH225647   5.728   5.178   0.158 -0.4265 -0.2284 -0.3554
 1411TIP3    H125648   5.706   5.251   0.215 -0.7767 -1.7900  1.6162
 1411TIP3    H225649   5.668   5.186   0.085 -0.3697  1.4967 -0.2611
 1412TIP3   OH225650   2.994   5.390   3.712  0.3662 -0.3234 -0.4839
 1412TIP3    H125651   2.932   5.453   3.750 -1.2656 -1.7154 -0.7217
 1412TIP3    H225652   3.071   5.396   3.768 -0.3575  0.7276  0.4536
 1413TIP3   OH225653   2.096   5.130   4.494 -0.0794 -0.0825  0.2658
 1413TIP3    H125654   2.185   5.165   4.486 -0.2904  0.2217 -0.9651
 1413TIP3    H225655   2.108   5.041   4.526  0.9308 -1.1860 -2.8405
 1414TIP3   OH225656   3.572   5.062  16.417  0.4550  0.1869 -0.4339
 1414TIP3    H125657   3.530   5.148  16.407  0.1628 -0.0297 -1.0614
 1414TIP3    H225658   3.636   5.058  16.346 -0.5330 -0.7004 -1.3015
 1415TIP3   OH225659   0.357   1.070  16.457  0.2066  0.1666  1.1148
 1415TIP3    H125660   0.386   1.156  16.488 -0.8178  0.2340  1.9473
 1415TIP3    H225661   0.279   1.051  16.509 -0.0840 -0.8829  0.3282
 1416TIP3   OH225662   2.590   2.580  14.359  0.0122  0.6702 -0.0516
 1416TIP3    H125663   2.517   2.626  14.402 -0.2219  1.0497 -0.8389
 1416TIP3    H225664   2.575   2.594  14.266  0.0596 -0.8210 -0.3054
 1417TIP3   OH225665   0.764   0.553   4.016 -0.1884  0.1086  0.0885
 1417TIP3    H125666   0.745   0.484   3.953  1.3575 -0.0994 -0.1803
 1417TIP3    H225667   0.729   0.521   4.099 -0.9427 -0.2549 -0.3617
 1418TIP3   OH225668   5.870   2.020   4.223  0.2614 -0.0961 -0.2889
 1418TIP3    H125669   5.896   1.932   4.251 -1.3446 -0.1653  1.1473
 1418TIP3    H225670   5.787   2.035   4.267  0.0835  1.8189 -1.2058
 1419TIP3   OH225671   4.060   2.032   0.120  0.1036 -0.0040  0.0225
 1419TIP3    H125672   4.054   2.110   0.176 -0.8981 -0.4030  0.5051
 1419TIP3    H225673   4.039   2.064   0.032  1.9891  0.6855 -0.2126
 1420TIP3   OH225674   1.766   0.625   0.148  0.2835  0.4848  0.6060
 1420TIP3    H125675   1.754   0.592   0.059 -1.2533  1.5824  0.3721
 1420TIP3    H225676   1.683   0.669   0.169  0.6995  0.4561  2.4909
 1421TIP3   OH225677   0.562   0.966  10.889 -0.2255 -0.0851 -0.0570
 1421TIP3    H125678   0.601   0.963  10.976 -0.3695 -0.6389 -0.0099
 1421TIP3    H225679   0.544   1.059  10.874  0.4825  0.0939  0.1967
 1422TIP3   OH225680   1.030   6.297   2.902 -0.1763 -0.2592  0.3543
 1422TIP3    H125681   0.946   6.257   2.876  0.8964 -1.9895 -0.6270
 1422TIP3    H225682   1.045   6.264   2.990  0.1336 -1.1300 -0.0096
 1423TIP3   OH225683   0.911   0.171  16.529  0.2234  0.5122  0.0123
 1423TIP3    H125684   0.876   0.083  16.523 -0.4276  0.8376 -1.2026
 1423TIP3    H225685   0.840   0.223  16.567  0.3117  0.6718 -0.0376
 1424TIP3   OH225686   3.955   2.556  15.100 -0.0096 -0.3494  0.3881
 1424TIP3    H125687   4.026   2.611  15.132 -1.1572  0.1635  2.1954
 1424TIP3    H225688   3.938   2.494  15.171 -1.5863 -0.2206  0.1686
 1425TIP3   OH225689   0.011   5.986  11.001 -0.0252 -0.1027 -0.2165
 1425TIP3    H125690  -0.011   6.060  11.058 -1.2377 -0.9989  0.5279
 1425TIP3    H225691   0.003   5.910  11.058  0.9516 -0.8352 -1.0442
 1426TIP3   OH225692   6.258   4.084  13.946 -0.5241  0.3837  0.1846
 1426TIP3    H125693   6.340   4.091  13.896 -0.6030 -0.8595 -0.1459
 1426TIP3    H225694   6.260   4.159  14.006  0.0834  1.3011 -0.9358
 1427TIP3   OH225695   4.907   5.002  13.792  0.5161 -0.1921  0.8907
 1427TIP3    H125696   4.904   4.907  13.784  2.5965 -0.2971  0.8631
 1427TIP3    H225697   4.921   5.018  13.885 -1.7937  0.2025  1.2172
 1428TIP3   OH225698   5.034   4.982   1.033  0.3623 -0.1327 -0.5294
 1428TIP3    H125699   5.002   4.974   0.944 -0.4418  0.3398 -0.2965
 1428TIP3    H225700   4.976   5.048   1.073  0.6894 -0.3630  0.3376
 1429TIP3   OH225701   2.836   6.489   0.069 -0.3010 -0.0592  0.4696
 1429TIP3    H125702   2.842   6.585   0.063  1.7580 -0.0953  0.9980
 1429TIP3    H225703   2.763   6.473   0.129  0.4237  1.2779  1.8006
 1430TIP3   OH225704   6.499   0.057   1.121 -0.3913  0.1570 -0.1880
 1430TIP3    H125705   6.552   0.123   1.166  2.1036  0.8703 -3.7570
 1430TIP3    H225706   6.428   0.106   1.080  0.4173  0.4010 -1.3384
 1431TIP3   OH225707   1.761   4.153  12.973 -0.6463 -0.1149 -0.7064
 1431TIP3    H125708   1.814   4.153  12.894 -0.2690  1.1141 -0.4747
 1431TIP3    H225709   1.784   4.072  13.018  0.6052  0.1200 -0.8961
 1432TIP3   OH225710   5.817   3.947   2.700  0.1112 -0.0999  0.1555
 1432TIP3    H125711   5.752   4.015   2.681  0.6818 -0.1566 -2.3726
 1432TIP3    H225712   5.775   3.866   2.673  0.4794 -0.3961  0.4668
 1433TIP3   OH225713   3.667   6.205  12.364 -0.3987 -0.1631  0.4398
 1433TIP3    H125714   3.706   6.207  12.277  0.4155  1.2125  0.7973
 1433TIP3    H225715   3.616   6.286  12.369 -0.9381 -0.5321  1.0165
 1434TIP3   OH225716   2.590   6.594  14.653 -0.6069  0.1790  0.2393
 1434TIP3    H125717   2.568   6.622  14.564  0.4732  2.0233  0.5217
 1434TIP3    H225718   2.633   6.669  14.693 -0.4846 -0.8293  2.1347
 1435TIP3   OH225719   0.468   6.531   4.537  0.1216  0.2268 -0.2677
 1435TIP3    H125720   0.540   6.558   4.595 -0.6869  2.5857 -0.2683
 1435TIP3    H225721   0.394   6.519   4.596  0.1118 -0.6179 -0.4508
 1436TIP3   OH225722   6.537   3.232  14.643 -0.1212 -0.2955 -0.3524
 1436TIP3    H125723   6.611   3.226  14.583  0.4349 -1.7856  0.4125
 1436TIP3    H225724   6.507   3.141  14.653 -0.4512 -0.0348  1.2830
 1437TIP3   OH225725   2.053   4.346   6.406 -0.3750  0.4834 -0.0027
 1437TIP3    H125726   2.050   4.267   6.353  0.1560  1.1067 -0.9827
 1437TIP3    H225727   2.146   4.366   6.415 -0.4794  0.7056  0.7037
 1438TIP3   OH225728   4.479   4.878  14.739  0.0547  0.2041  0.0914
 1438TIP3    H125729   4.514   4.930  14.812 -1.5030  1.5348 -0.0586
 1438TIP3    H225730   4.543   4.889  14.669  0.0100  1.5320  0.2344
 1439TIP3   OH225731   2.647   2.892   5.781 -0.1443 -0.4302  0.2681
 1439TIP3    H125732   2.737   2.922   5.793 -0.3209  0.8826 -1.3810
 1439TIP3    H225733   2.593   2.963   5.815 -0.6107 -1.3174  1.4837
 1440TIP3   OH225734   4.562   2.665  10.310 -0.5319 -0.5034 -0.3848
 1440TIP3    H125735   4.613   2.701  10.383 -1.6645  1.3219 -0.4153
 1440TIP3    H225736   4.625   2.616  10.258  0.6617 -0.3683  0.8797
 1441TIP3   OH225737   4.142   4.100  13.095 -0.0815  0.4377  0.0173
 1441TIP3    H125738   4.052   4.069  13.110 -0.2114  1.2273  0.9894
 1441TIP3    H225739   4.179   4.109  13.183  0.5148  1.3654 -0.3145
 1442TIP3   OH225740   6.684   0.418   0.290 -0.0408 -0.0869 -0.2411
 1442TIP3    H125741   6.640   0.375   0.363 -0.9119  0.0527 -0.6731
 1442TIP3    H225742   6.676   0.357   0.217  0.6955 -0.1589 -0.2757
 1443TIP3   OH225743   5.564   3.588  13.047 -0.0090  0.3955  0.4204
 1443TIP3    H125744   5.518   3.507  13.028 -1.3773  0.7828  1.8813
 1443TIP3    H225745   5.586   3.624  12.961  0.6587 -1.5006 -0.2486
 1444TIP3   OH225746   3.503   0.678   2.826 -0.6261  0.4363  0.3262
 1444TIP3    H125747   3.597   0.671   2.808 -0.1303  2.1223  1.9459
 1444TIP3    H225748   3.470   0.589   2.814  1.4790 -0.5504  1.2142
 1445TIP3   OH225749   6.083   1.712  10.340 -0.0982  0.0483 -0.1473
 1445TIP3    H125750   6.035   1.704  10.422  1.9907 -0.9971  1.0436
 1445TIP3    H225751   6.137   1.633  10.336  2.1813  1.5628 -0.9593
 1446TIP3   OH225752   6.239   2.162   1.860 -0.2161  0.5189  0.9562
 1446TIP3    H125753   6.286   2.094   1.812 -1.2004 -0.0063  0.7241
 1446TIP3    H225754   6.210   2.120   1.941  1.6198  1.4523  2.1809
 1447TIP3   OH225755   5.393   4.230  11.201  0.7686  0.2171 -0.1906
 1447TIP3    H125756   5.344   4.153  11.230  2.0667 -0.7999 -0.5963
 1447TIP3    H225757   5.327   4.289  11.164 -0.3591 -0.3062  0.9136
 1448TIP3   OH225758   1.212   0.591   6.012 -0.0037 -0.3182 -0.1607
 1448TIP3    H125759   1.166   0.508   6.022  0.6879 -0.7994 -0.7818
 1448TIP3    H225760   1.191   0.640   6.091  0.0518 -1.3266  0.5028
 1449TIP3   OH225761   2.866   0.328  16.554  0.2091  0.3515  0.2354
 1449TIP3    H125762   2.871   0.354  16.462  2.2784  0.8686  0.4528
 1449TIP3    H225763   2.855   0.233  16.552 -1.3047  0.5092 -0.5223
 1450TIP3   OH225764   6.645   3.173   2.441 -0.0683 -0.3425 -0.3820
 1450TIP3    H125765   6.668   3.207   2.527  1.4056 -1.5226 -0.2748
 1450TIP3    H225766   6.613   3.250   2.393  1.1230  0.7655  0.5282
 1451TIP3   OH225767   3.294   6.395   0.436 -0.0608  0.5322  0.2542
 1451TIP3    H125768   3.251   6.388   0.351 -1.3786 -0.1964  0.9404
 1451TIP3    H225769   3.333   6.308   0.450  1.8007  1.2179 -0.4117
 1452TIP3   OH225770   2.294   3.739  13.199  0.2120  0.4116 -0.3346
 1452TIP3    H125771   2.357   3.758  13.268 -2.0277  0.8635  1.7188
 1452TIP3    H225772   2.284   3.644  13.201 -1.8035  0.5787  1.9574
 1453TIP3   OH225773   3.010   4.937  16.531 -0.2924  0.1487  0.2551
 1453TIP3    H125774   3.082   4.891  16.488 -0.2142  0.4651  0.0464
 1453TIP3    H225775   2.935   4.880  16.519  0.5483 -1.8446  3.3468
 1454TIP3   OH225776   2.799   5.282  11.473  0.7907 -0.0745 -0.1289
 1454TIP3    H125777   2.720   5.267  11.421  1.7719 -1.3412 -1.3346
 1454TIP3    H225778   2.810   5.377  11.475  0.2466  0.0325 -1.5085
 1455TIP3   OH225779   6.015   2.228   1.231 -0.3759 -0.4373 -0.0833
 1455TIP3    H125780   5.953   2.276   1.176  1.7411  0.2626 -2.0197
 1455TIP3    H225781   5.981   2.239   1.320 -2.4670  0.7142 -0.9373
 1456TIP3   OH225782   4.334   0.046  16.888 -0.0688  0.2010  0.1590
 1456TIP3    H125783   4.255   0.087  16.851 -0.5169 -0.3277  0.5171
 1456TIP3    H225784   4.389   0.028  16.812 -0.6276 -0.1270 -0.1814
 1457TIP3   OH225785   4.677   1.851   3.956 -0.4828  0.4441  0.0758
 1457TIP3    H125786   4.703   1.925   3.901 -0.6955  0.3471 -0.1575
 1457TIP3    H225787   4.585   1.836   3.934 -0.4440  0.1165  0.1293
 1458TIP3   OH225788   5.441   0.167   4.041  0.7175  0.1438 -0.4781
 1458TIP3    H125789   5.352   0.169   4.008  0.6095 -0.0248 -0.1995
 1458TIP3    H225790   5.496   0.172   3.963  0.4662  0.6189 -0.6287
 1459TIP3   OH225791   4.380   6.698  12.734  0.1107  0.5045  0.3245
 1459TIP3    H125792   4.372   6.603  12.730  0.6947  0.4695 -0.1768
 1459TIP3    H225793   4.290   6.730  12.727 -0.0365  0.0092 -0.1386
 1460TIP3   OH225794   4.154   3.116   0.250  0.1994  0.3656  0.6848
 1460TIP3    H125795   4.245   3.085   0.247 -0.5671 -1.9718 -0.7885
 1460TIP3    H225796   4.155   3.185   0.317  2.7537 -0.5428  1.7258
 1461TIP3   OH225797   1.830   6.110   2.931 -0.1852 -0.3052 -0.2490
 1461TIP3    H125798   1.829   6.021   2.897 -1.6260 -0.1982 -0.5576
 1461TIP3    H225799   1.740   6.126   2.959  0.0884  0.9967 -0.0366
 1462TIP3   OH225800   2.503   1.133  14.728  0.0820  0.0788 -0.1412
 1462TIP3    H125801   2.572   1.194  14.752  0.3838 -0.8272  1.4020
 1462TIP3    H225802   2.498   1.138  14.632  2.3841  0.0444 -0.3028
 1463TIP3   OH225803   0.177   2.271  14.213  0.0284  0.3373 -0.2473
 1463TIP3    H125804   0.237   2.344  14.196 -0.0475  0.5954  0.5447
 1463TIP3    H225805   0.092   2.302  14.181  0.4084 -0.2625 -1.9333
 1464TIP3   OH225806   2.741   2.580   0.673 -0.1896 -0.0207  0.2394
 1464TIP3    H125807   2.748   2.653   0.736 -0.7867  1.1928 -1.0467
 1464TIP3    H225808   2.832   2.561   0.650  0.0388 -0.4822  1.4489
 1465TIP3   OH225809   3.565   4.903   0.856 -0.1970 -0.3565 -0.2161
 1465TIP3    H125810   3.635   4.966   0.871 -0.0759 -0.4089 -0.5602
 1465TIP3    H225811   3.609   4.818   0.859 -0.7181 -0.6337  2.7380
 1466TIP3   OH225812   4.902   6.119  13.167  0.5692  0.0071 -0.1851
 1466TIP3    H125813   4.845   6.047  13.197 -3.5020  2.1183 -2.0057
 1466TIP3    H225814   4.908   6.177  13.243  2.2039 -1.1456  0.6533
 1467TIP3   OH225815   0.210   4.913  11.382 -0.3813 -0.1543  0.2131
 1467TIP3    H125816   0.168   4.828  11.397  0.3731 -0.5621  0.0219
 1467TIP3    H225817   0.274   4.897  11.312 -1.2500  0.8915 -0.8781
 1468TIP3   OH225818   5.641   3.363  15.292 -0.0549  0.0666  0.1719
 1468TIP3    H125819   5.560   3.365  15.241 -0.7377 -1.5064  1.1228
 1468TIP3    H225820   5.658   3.270  15.306  0.2782  0.4266  2.4935
 1469TIP3   OH225821   4.989   3.076  12.132  0.0775  0.0921  0.3788
 1469TIP3    H125822   5.003   3.085  12.037  0.6044  1.1738  0.5424
 1469TIP3    H225823   4.897   3.051  12.140  0.2419 -0.8256 -0.4527
 1470TIP3   OH225824   0.584   6.764   2.737  0.9009 -0.7629  1.2121
 1470TIP3    H125825   0.558   6.844   2.783  2.0671  0.5649 -0.3432
 1470TIP3    H225826   0.636   6.794   2.663 -1.2595 -2.7464 -1.3185
 1471TIP3   OH225827   1.227   2.187  13.645 -0.0687 -0.5915  0.1739
 1471TIP3    H125828   1.148   2.205  13.696 -1.1484 -3.2626 -0.3866
 1471TIP3    H225829   1.216   2.097  13.615  3.5063 -1.2732  0.5335
 1472TIP3   OH225830   1.857   3.905   0.637  0.0629  0.2103 -0.0597
 1472TIP3    H125831   1.819   3.823   0.668  0.7356  0.5667  1.8528
 1472TIP3    H225832   1.926   3.925   0.700 -0.8866  2.8637  0.2643
 1473TIP3   OH225833   3.065   3.077   4.239  0.6579  0.6890  0.0673
 1473TIP3    H125834   3.007   3.020   4.288  3.1600 -1.0975  1.1888
 1473TIP3    H225835   3.125   3.018   4.194  1.0447  2.3927 -1.8011
 1474TIP3   OH225836   6.099   1.923   5.733 -0.0817  0.1424 -0.2717
 1474TIP3    H125837   6.095   1.837   5.690 -1.9698  0.1854 -0.2910
 1474TIP3    H225838   6.187   1.955   5.715  0.9422 -2.1179  0.4076
 1475TIP3   OH225839   4.538   3.110   1.082  0.6683  0.2116 -0.1520
 1475TIP3    H125840   4.554   3.201   1.059 -0.2563  0.1581 -1.1127
 1475TIP3    H225841   4.603   3.061   1.031  0.3188  0.2633 -0.6574
 1476TIP3   OH225842   4.630   3.532  10.730  0.2488  0.1799 -0.0550
 1476TIP3    H125843   4.598   3.538  10.640 -0.3469  0.4087  0.1681
 1476TIP3    H225844   4.554   3.505  10.781  0.9241 -1.3961  0.1803
 1477TIP3   OH225845   6.479   1.292  16.180 -0.1387  0.6961 -0.4532
 1477TIP3    H125846   6.570   1.321  16.172 -0.7105  2.1313 -2.2028
 1477TIP3    H225847   6.430   1.372  16.196 -1.1834  0.0061 -0.1198
 1478TIP3   OH225848   4.090   0.754   2.745 -0.1816 -0.0364 -0.4115
 1478TIP3    H125849   4.064   0.750   2.837  0.0824  0.5706 -0.3038
 1478TIP3    H225850   4.048   0.678   2.705 -1.1650  0.2723 -0.0050
 1479TIP3   OH225851   4.648   0.465   2.871  0.1898  0.6237  0.6443
 1479TIP3    H125852   4.572   0.408   2.876  1.1219 -0.8345 -0.7827
 1479TIP3    H225853   4.683   0.468   2.960 -1.6249  1.5104  1.3709
 1480TIP3   OH225854   4.223   5.847  14.516  0.0536  0.4622 -0.3525
 1480TIP3    H125855   4.271   5.853  14.599 -0.3403  0.6835 -0.1338
 1480TIP3    H225856   4.290   5.831  14.450  0.5939  2.1421 -0.2595
 1481TIP3   OH225857   5.801   4.866   4.890  0.3086  0.4002 -0.1751
 1481TIP3    H125858   5.806   4.851   4.984 -2.4495 -1.9977 -0.2401
 1481TIP3    H225859   5.743   4.941   4.880  0.1924  0.3406  0.0472
 1482TIP3   OH225860   5.955   4.996   6.397 -0.0949 -0.2151 -0.0245
 1482TIP3    H125861   5.919   4.962   6.478  2.0322 -0.0993  1.0367
 1482TIP3    H225862   6.038   5.037   6.422  0.5406  0.0153 -2.2272
 1483TIP3   OH225863   4.089   6.081   0.437 -0.7046 -0.4295 -0.1576
 1483TIP3    H125864   4.167   6.132   0.420 -1.3507  0.8157  0.5113
 1483TIP3    H225865   4.115   5.990   0.420  1.3639 -0.2498  1.6748
 1484TIP3   OH225866   5.145   5.270  10.732 -0.5762  0.3875  0.1494
 1484TIP3    H125867   5.054   5.298  10.739 -1.0414 -0.5976 -1.3906
 1484TIP3    H225868   5.168   5.242  10.821 -0.8506  3.1782  1.1910
 1485TIP3   OH225869   3.030   4.392  12.087  0.3838 -0.2330 -0.0301
 1485TIP3    H125870   3.098   4.366  12.025  1.0454  1.0202  0.1241
 1485TIP3    H225871   2.973   4.451  12.038  0.3947  0.0539  0.2965
 1486TIP3   OH225872   2.048   0.665  14.606  0.0568 -0.1573  0.0357
 1486TIP3    H125873   2.023   0.732  14.542 -3.0035 -0.4767  0.7237
 1486TIP3    H225874   2.068   0.715  14.686 -0.1273  0.0705 -0.0574
 1487TIP3   OH225875   0.883   4.533  15.467 -0.1643  0.2078 -0.2776
 1487TIP3    H125876   0.968   4.489  15.470 -0.5986 -0.8087 -1.9061
 1487TIP3    H225877   0.905   4.627  15.471  1.0136 -0.0448 -0.3773
 1488TIP3   OH225878   5.965   2.012  17.172  0.0788 -0.0734 -0.2795
 1488TIP3    H125879   5.874   2.039  17.171 -0.1987 -0.9823 -0.4815
 1488TIP3    H225880   6.013   2.090  17.201 -0.6098  0.8123 -1.4596
 1489TIP3   OH225881   6.678   6.228   4.578  0.2493 -0.3094 -0.0693
 1489TIP3    H125882   6.718   6.314   4.571 -1.3694  0.4815 -0.1718
 1489TIP3    H225883   6.618   6.235   4.652  0.3978 -1.4885  0.1905
 1490TIP3   OH225884   6.311   0.372  14.354 -0.5116  0.0416  0.9088
 1490TIP3    H125885   6.399   0.335  14.341 -0.6717  0.2868 -1.3079
 1490TIP3    H225886   6.253   0.296  14.347 -0.5309 -0.0741  2.0778
 1491TIP3   OH225887   1.045   1.811   2.473  0.8896 -0.1355 -0.4275
 1491TIP3    H125888   1.045   1.718   2.448 -0.0352 -0.3998  0.5127
 1491TIP3    H225889   1.009   1.856   2.397  1.5411 -0.5096 -0.9755
 1492TIP3   OH225890   5.724   6.075   4.779 -0.4755 -0.0351 -0.5002
 1492TIP3    H125891   5.781   6.040   4.711 -1.1759  1.5054 -1.9801
 1492TIP3    H225892   5.666   6.135   4.732 -1.0773  0.9985  1.4549
 1493TIP3   OH225893   0.310   2.386  11.764  0.4220  0.2473  0.0756
 1493TIP3    H125894   0.295   2.376  11.670  2.4997  0.0389 -0.2733
 1493TIP3    H225895   0.295   2.479  11.781 -0.9791  0.0978 -0.2321
 1494TIP3   OH225896   6.302   6.636   3.595  0.4694  0.0804  0.0154
 1494TIP3    H125897   6.244   6.589   3.656  1.0281 -0.1704  0.3656
 1494TIP3    H225898   6.248   6.654   3.519 -0.0771 -0.1262  0.3513
 1495TIP3   OH225899   5.196   5.774   0.079  0.4677 -0.8071 -0.0059
 1495TIP3    H125900   5.146   5.852   0.103  0.0086 -1.2974  0.6680
 1495TIP3    H225901   5.226   5.791  -0.011  1.4711  0.6907  0.5685
 1496TIP3   OH225902   4.162   6.396   2.040 -0.1166  0.7762 -0.0745
 1496TIP3    H125903   4.233   6.402   1.976 -0.4369  2.1180 -0.3314
 1496TIP3    H225904   4.083   6.416   1.990 -0.5038  0.7466  0.5175
 1497TIP3   OH225905   0.187   0.704   1.857 -0.1007  0.0400  0.2635
 1497TIP3    H125906   0.178   0.609   1.864  1.1018 -0.1732 -0.7398
 1497TIP3    H225907   0.205   0.720   1.765  0.1013  1.2138  0.4878
 1498TIP3   OH225908   3.015   6.309  16.545 -0.5156  0.0628  0.5162
 1498TIP3    H125909   3.009   6.389  16.597  1.6188  0.5137  0.1649
 1498TIP3    H225910   3.011   6.338  16.454  0.4488 -0.1651  0.3796
 1499TIP3   OH225911   0.511   3.543   1.050  0.4992 -0.6286 -0.3597
 1499TIP3    H125912   0.500   3.522   0.958 -1.7479  0.4825 -0.4160
 1499TIP3    H225913   0.430   3.513   1.092  1.3763 -0.9241  1.2303
 1500TIP3   OH225914   1.831   4.102  14.025 -0.0034 -0.2908 -1.1720
 1500TIP3    H125915   1.900   4.068  13.968  0.9622 -1.3530  0.5277
 1500TIP3    H225916   1.752   4.055  13.999  0.6418 -1.5172 -0.9889
 1501TIP3   OH225917   0.457   6.431   0.832 -0.0942 -0.0005  0.0588
 1501TIP3    H125918   0.522   6.381   0.881  0.1274 -0.1096 -0.3510
 1501TIP3    H225919   0.505   6.507   0.799 -0.7154  1.2334  1.8216
 1502TIP3   OH225920   3.280   0.042  13.044 -0.2098  0.4460  0.2058
 1502TIP3    H125921   3.266  -0.053  13.042 -0.1804  0.4509 -0.7285
 1502TIP3    H225922   3.314   0.059  13.132  0.5948 -0.5303  0.1075
 1503TIP3   OH225923   3.662   5.545  13.605 -0.3691  0.3689 -0.2054
 1503TIP3    H125924   3.639   5.470  13.550 -2.0137  1.0098 -0.4383
 1503TIP3    H225925   3.758   5.549  13.601 -0.2170 -1.7467 -0.1277
 1504TIP3   OH225926   4.707   2.393  11.159  0.1265  0.0457 -0.1476
 1504TIP3    H125927   4.776   2.459  11.152  0.5272 -0.3561 -0.1123
 1504TIP3    H225928   4.703   2.354  11.072 -2.0706  1.9962 -0.9956
 1505TIP3   OH225929   2.733   6.451   5.769  0.2700  0.2611  0.0258
 1505TIP3    H125930   2.650   6.494   5.789  1.5602  2.4851  0.9820
 1505TIP3    H225931   2.747   6.389   5.841 -0.4986 -0.0704 -0.1052
 1506TIP3   OH225932   2.213   6.012   2.285  0.0226  0.0755  0.3682
 1506TIP3    H125933   2.275   5.964   2.231  1.0168  1.1820  0.4820
 1506TIP3    H225934   2.246   6.003   2.375 -0.4031  0.0436  0.5258
 1507TIP3   OH225935   2.603   4.717   5.479 -0.2756  0.9259 -0.0692
 1507TIP3    H125936   2.621   4.718   5.385  0.7450  2.2790  0.1124
 1507TIP3    H225937   2.634   4.632   5.509  1.5620  1.3800 -0.5870
 1508TIP3   OH225938   1.596   2.677  13.141  0.2140  0.2662 -0.1052
 1508TIP3    H125939   1.665   2.742  13.127  1.2951 -0.0985  2.8396
 1508TIP3    H225940   1.538   2.717  13.206 -1.0768 -0.3851 -0.8115
 1509TIP3   OH225941   1.820   6.772   5.166  0.5892 -0.0332  0.2588
 1509TIP3    H125942   1.857   6.765   5.254 -0.4013 -0.5818  0.6411
 1509TIP3    H225943   1.726   6.758   5.177 -0.1198  3.1582 -0.4194
 1510TIP3   OH225944   2.841   0.257   4.552 -0.1956  0.1109 -0.1769
 1510TIP3    H125945   2.802   0.253   4.465  0.8472  2.7741 -0.8773
 1510TIP3    H225946   2.931   0.228   4.539 -0.1105  0.2678  0.0470
 1511TIP3   OH225947   1.373   0.792   4.100  0.1220  0.1102 -0.1583
 1511TIP3    H125948   1.336   0.759   4.183 -0.2305  1.4858  0.2572
 1511TIP3    H225949   1.451   0.739   4.086 -0.8651 -1.4710  0.0265
 1512TIP3   OH225950   5.100   2.274  16.271  0.2922 -0.5715 -0.0485
 1512TIP3    H125951   5.151   2.280  16.351  0.6489  0.2850 -0.3328
 1512TIP3    H225952   5.029   2.212  16.292  1.4628 -1.8255  0.3165
 1513TIP3   OH225953   3.545   2.740   4.209  0.2412  0.0502 -0.6012
 1513TIP3    H125954   3.536   2.659   4.259 -0.9611  0.3861 -0.2296
 1513TIP3    H225955   3.638   2.761   4.214  0.3833 -0.6996  0.2671
 1514TIP3   OH225956   6.447   3.227   3.679 -0.1462  0.0467 -0.0719
 1514TIP3    H125957   6.521   3.251   3.735  1.2647 -1.2281 -1.2668
 1514TIP3    H225958   6.370   3.244   3.732  1.0086  1.1124  1.3682
 1515TIP3   OH225959   6.487   5.027   1.206 -0.5664 -0.1416  0.3107
 1515TIP3    H125960   6.500   5.051   1.114 -2.9847 -1.2060 -0.4165
 1515TIP3    H225961   6.464   4.934   1.203 -1.0994 -0.0994  1.9578
 1516TIP3   OH225962   2.920   2.608   1.832  0.1607  0.2418  0.3682
 1516TIP3    H125963   2.902   2.534   1.890 -0.5421 -0.7548 -1.0393
 1516TIP3    H225964   2.845   2.666   1.844 -0.9201 -0.8326 -0.7969
 1517TIP3   OH225965   4.229   1.594   5.012 -0.3930 -0.4766 -0.6141
 1517TIP3    H125966   4.258   1.558   5.096  1.1246  0.3149 -0.7580
 1517TIP3    H225967   4.208   1.516   4.959  0.2066 -1.0487 -0.0331
 1518TIP3   OH225968   0.427   0.775  15.763  0.0435 -0.4832 -0.2074
 1518TIP3    H125969   0.455   0.792  15.853  0.0788 -0.6499 -0.1859
 1518TIP3    H225970   0.508   0.776  15.712 -0.0497  0.2697 -0.3442
 1519TIP3   OH225971   4.984   0.361   5.321 -0.6909 -0.2578 -0.0758
 1519TIP3    H125972   4.996   0.286   5.379 -0.1243 -1.2798 -1.4545
 1519TIP3    H225973   5.048   0.425   5.350  0.5149 -1.2866 -0.3705
 1520TIP3   OH225974   0.899   0.852  15.937 -0.1006  0.0084  0.3287
 1520TIP3    H125975   0.974   0.840  15.996  0.4658 -0.6660 -0.5254
 1520TIP3    H225976   0.828   0.880  15.996  0.8518  0.8661  1.1273
 1521TIP3   OH225977   0.379   0.496  10.967 -0.1111 -0.0809 -0.2240
 1521TIP3    H125978   0.423   0.544  10.897 -0.7252  1.0461  0.1365
 1521TIP3    H225979   0.288   0.525  10.962 -0.2896 -0.4777  0.6353
 1522TIP3   OH225980   4.692   4.773  15.522  0.1792 -0.3374 -0.0421
 1522TIP3    H125981   4.753   4.819  15.579  1.1892 -1.2810 -0.3456
 1522TIP3    H225982   4.678   4.833  15.449 -0.6088  0.5942  0.8305
 1523TIP3   OH225983   5.954   4.597  11.223  0.3512 -0.4069 -0.2866
 1523TIP3    H125984   5.953   4.542  11.145 -1.7411  1.1424 -1.4632
 1523TIP3    H225985   6.019   4.665  11.204  0.4468 -0.5165 -0.3481
 1524TIP3   OH225986   2.044   2.619  15.347  0.5453  0.1094  0.2474
 1524TIP3    H125987   1.949   2.627  15.342  0.5060  0.0240  0.8604
 1524TIP3    H225988   2.076   2.709  15.355  0.5327  0.1538 -0.1667
 1525TIP3   OH225989   3.223   5.043   1.402  0.4481 -0.1081  0.2536
 1525TIP3    H125990   3.202   4.960   1.358  2.1753 -0.0725 -0.7014
 1525TIP3    H225991   3.147   5.060   1.458 -0.8193 -1.3197 -1.0218
 1526TIP3   OH225992   2.173   1.769   2.071 -0.0366  0.3468 -0.0352
 1526TIP3    H125993   2.152   1.854   2.110 -0.1139  0.2183  0.2063
 1526TIP3    H225994   2.160   1.706   2.142 -1.2139 -0.0160 -0.5543
 1527TIP3   OH225995   4.961   0.126  15.818  0.3374  0.5133 -0.5111
 1527TIP3    H125996   4.953   0.068  15.743 -1.3530  2.5564 -2.0131
 1527TIP3    H225997   4.952   0.214  15.782  0.7872  1.6525  1.9288
 1528TIP3   OH225998   1.994   5.411   1.451  0.4799  0.9115  0.5045
 1528TIP3    H125999   1.948   5.343   1.401 -0.4488  1.5781  0.4216
 1528TIP3    H226000   1.991   5.488   1.394  0.6851  1.2819  0.9906
 1529TIP3   OH226001   6.514   1.930   0.759 -0.1184  0.1919  0.6314
 1529TIP3    H126002   6.535   1.848   0.714 -1.5801 -0.1556  0.5430
 1529TIP3    H226003   6.419   1.938   0.751 -0.0427  1.6889  1.0078
 1530TIP3   OH226004   4.777   1.750   5.526  0.0290  0.3479  0.1737
 1530TIP3    H126005   4.695   1.750   5.477 -0.9856 -1.2086  1.7782
 1530TIP3    H226006   4.753   1.779   5.614  0.3538 -3.5842  1.7625
 1531TIP3   OH226007   4.006   6.452   3.300  0.2558 -0.2771  0.7305
 1531TIP3    H126008   3.981   6.460   3.391 -0.4447  1.3297  0.4152
 1531TIP3    H226009   4.049   6.535   3.279  0.1137 -0.4923 -0.4869
 1532TIP3   OH226010   3.048   0.414   5.768 -0.2814  0.2291 -0.6333
 1532TIP3    H126011   2.980   0.347   5.771 -0.0285 -0.1126 -2.0045
 1532TIP3    H226012   3.006   0.493   5.800 -0.7101 -0.4543  0.5979
 1533TIP3   OH226013   3.522   1.043   5.477  0.0019  0.8252  0.4078
 1533TIP3    H126014   3.427   1.033   5.483  0.0349 -0.5276 -0.8556
 1533TIP3    H226015   3.539   1.132   5.510 -1.7674  1.3571 -0.0227
 1534TIP3   OH226016   2.860   2.016  16.151 -0.1600  0.0280 -0.7521
 1534TIP3    H126017   2.837   1.924  16.137 -1.7468 -0.0043  1.4024
 1534TIP3    H226018   2.927   2.034  16.086 -1.1956 -2.0851 -2.5695
 1535TIP3   OH226019   0.656   3.807  11.203  0.1809 -0.3117  0.0721
 1535TIP3    H126020   0.602   3.884  11.190  0.2479 -0.5100 -1.5560
 1535TIP3    H226021   0.666   3.769  11.115 -0.2779 -2.4622  0.8788
 1536TIP3   OH226022   4.579   1.889  11.388  0.3191 -0.6233  0.1177
 1536TIP3    H126023   4.493   1.848  11.376  0.2613 -0.4311 -0.1371
 1536TIP3    H226024   4.559   1.980  11.410  0.4677 -0.3153 -0.9743
 1537TIP3   OH226025   3.491   4.528   2.708  0.2886 -0.4682  0.0366
 1537TIP3    H126026   3.576   4.569   2.693  0.4752 -0.7513  0.2970
 1537TIP3    H226027   3.459   4.568   2.789  0.3318 -0.6105  0.1250
 1538TIP3   OH226028   2.860   5.863  13.231 -0.8094 -0.3081  0.2582
 1538TIP3    H126029   2.864   5.877  13.137  0.9046  0.4855  0.4140
 1538TIP3    H226030   2.951   5.848  13.257 -1.4415 -2.5183  1.5191
 1539TIP3   OH226031   4.690   4.887   1.949  0.0676 -0.4662 -0.2959
 1539TIP3    H126032   4.734   4.899   2.033 -0.3521  0.2140 -0.1753
 1539TIP3    H226033   4.669   4.793   1.947  0.6157 -0.6081  0.0840
 1540TIP3   OH226034   1.898   2.623   5.234  0.0714 -0.5491  0.0478
 1540TIP3    H126035   1.810   2.658   5.249 -1.0456 -3.6933  1.5103
 1540TIP3    H226036   1.900   2.603   5.140 -0.1027  1.0128 -0.3313
 1541TIP3   OH226037   5.150   2.164  11.504 -0.1319 -0.2202  0.7766
 1541TIP3    H126038   5.107   2.226  11.445 -1.6801 -0.7021  1.3467
 1541TIP3    H226039   5.212   2.117  11.448 -0.9042 -0.0453 -0.2609
 1542TIP3   OH226040   1.452   5.991   4.660  0.2677 -0.9720  0.6348
 1542TIP3    H126041   1.413   5.903   4.654 -0.5274 -0.5749 -0.2180
 1542TIP3    H226042   1.546   5.975   4.660  0.1439 -1.7945 -0.2075
 1543TIP3   OH226043   3.850   6.383  13.009  0.3411 -0.3086 -0.2014
 1543TIP3    H126044   3.944   6.383  12.989  0.5685 -2.2910  0.5894
 1543TIP3    H226045   3.818   6.465  12.973  2.1746 -0.0785 -1.4796
 1544TIP3   OH226046   0.886   6.662  12.192 -0.2209 -0.0415  0.1261
 1544TIP3    H126047   0.798   6.660  12.155  0.6560  0.0551 -2.0984
 1544TIP3    H226048   0.903   6.755  12.209 -0.5130 -0.0593  0.5501
 1545TIP3   OH226049   0.132   1.034   5.678  0.0142  0.1392 -0.6100
 1545TIP3    H126050   0.204   0.976   5.655 -0.4525 -0.1792 -1.3028
 1545TIP3    H226051   0.094   1.060   5.594 -2.0452 -1.4395 -0.2427
 1546TIP3   OH226052   5.705   2.808  13.281 -0.5103  0.0186 -0.1340
 1546TIP3    H126053   5.737   2.769  13.362 -1.3773  0.5480  0.4850
 1546TIP3    H226054   5.616   2.836  13.302 -0.4316  0.9723 -0.9996
 1547TIP3   OH226055   5.279   1.003  14.431 -0.4665 -0.1822  0.0083
 1547TIP3    H126056   5.296   1.059  14.506  1.2753 -0.0687 -0.4160
 1547TIP3    H226057   5.187   1.019  14.408 -0.7713  0.4247  1.5534
 1548TIP3   OH226058   5.699   4.832  11.410  0.0117  0.2162  0.5487
 1548TIP3    H126059   5.747   4.909  11.378 -0.0321  0.1518  0.3208
 1548TIP3    H226060   5.610   4.844  11.379  0.0023  0.0787  0.5189
 1549TIP3   OH226061   4.940   0.326  12.978  0.8901  0.9819 -0.2551
 1549TIP3    H126062   4.866   0.306  12.920  0.5840  0.2412  0.3673
 1549TIP3    H226063   4.920   0.413  13.013  1.8974  2.2098 -2.4781
 1550TIP3   OH226064   1.094   6.508  13.439 -0.6246  0.0221 -0.0901
 1550TIP3    H126065   1.110   6.512  13.345  0.8738 -0.6169  0.1160
 1550TIP3    H226066   1.178   6.530  13.479 -0.9851 -0.6544  1.0896
 1551TIP3   OH226067   3.572   3.747  16.896  0.0087  1.0005  0.5125
 1551TIP3    H126068   3.626   3.785  16.826  1.3142 -1.8664 -0.1897
 1551TIP3    H226069   3.484   3.780  16.879  0.6086  1.7725 -1.4214
 1552TIP3   OH226070   6.333   6.670  15.933  0.8376 -0.4678  0.1513
 1552TIP3    H126071   6.332   6.582  15.894  0.9436  0.1284 -1.2442
 1552TIP3    H226072   6.297   6.657  16.021 -1.9632 -1.4816 -1.0090
 1553TIP3   OH226073   0.122   6.149  14.527 -0.6774  0.3516  0.0366
 1553TIP3    H126074   0.189   6.081  14.526 -0.1387  0.7561  2.0813
 1553TIP3    H226075   0.140   6.203  14.450 -0.7030 -1.3800 -1.2418
 1554TIP3   OH226076   0.687   1.372  11.368 -0.0680 -0.0754  0.3767
 1554TIP3    H126077   0.648   1.317  11.300  1.3650  0.1474 -0.6700
 1554TIP3    H226078   0.716   1.451  11.322  0.0345  0.5263  1.4334
 1555TIP3   OH226079   1.038   6.693   3.787 -0.3248  0.2625 -0.0467
 1555TIP3    H126080   0.955   6.661   3.753 -1.0177  1.3309  0.6012
 1555TIP3    H226081   1.070   6.752   3.720 -0.6679  0.7580  0.2243
 1556TIP3   OH226082   0.692   0.030   2.993  0.5231  0.8471  0.0407
 1556TIP3    H126083   0.667   0.046   3.084  2.2117  0.6011  0.5692
 1556TIP3    H226084   0.615  -0.013   2.955 -1.3341  3.4181  0.5572
 1557TIP3   OH226085   5.385   3.219  14.594 -0.5817  0.4599 -0.0086
 1557TIP3    H126086   5.351   3.281  14.659  1.1158  1.1520  0.2731
 1557TIP3    H226087   5.476   3.244  14.582  0.4989 -2.5856  0.8514
 1558TIP3   OH226088   1.282   5.007   2.668 -0.5248 -0.2434 -0.3831
 1558TIP3    H126089   1.335   5.051   2.602  0.3853 -1.7012 -0.6433
 1558TIP3    H226090   1.310   4.916   2.666 -1.8681 -0.7160  0.6492
 1559TIP3   OH226091   2.652   4.327  13.482 -0.4481  0.3608 -0.0285
 1559TIP3    H126092   2.563   4.306  13.511 -1.1628  2.7311 -0.2344
 1559TIP3    H226093   2.641   4.403  13.424  1.6908  0.5565 -0.2674
 1560TIP3   OH226094   2.910   2.023  16.857  0.2516 -0.4572 -0.4192
 1560TIP3    H126095   2.815   2.029  16.849  0.3648 -0.4922 -2.3412
 1560TIP3    H226096   2.925   1.949  16.916 -0.8953  0.0561  0.5611
 1561TIP3   OH226097   5.082   0.912   3.937 -0.1449 -0.0408  0.3172
 1561TIP3    H126098   5.122   0.953   3.860 -1.2211 -1.1906 -0.9027
 1561TIP3    H226099   5.131   0.830   3.949  1.7008  1.2628  2.4710
 1562TIP3   OH226100   5.404   5.753   1.181 -0.6065  0.1010 -0.3325
 1562TIP3    H126101   5.360   5.797   1.109 -3.5708 -1.0874  0.6183
 1562TIP3    H226102   5.363   5.787   1.260  1.1177 -0.1380  0.7203
 1563TIP3   OH226103   5.072   2.378   2.170 -0.1044 -0.3746 -0.2047
 1563TIP3    H126104   5.000   2.441   2.178 -0.7584 -0.8906 -1.7356
 1563TIP3    H226105   5.034   2.294   2.197  0.1762 -0.5003 -0.1994
 1564TIP3   OH226106   3.244   0.972  14.499  0.6013  0.2525 -0.3782
 1564TIP3    H126107   3.176   1.024  14.542 -0.2652 -0.6557 -0.6270
 1564TIP3    H226108   3.197   0.899  14.460  1.7378 -0.4272 -0.5003
 1565TIP3   OH226109   6.622   3.302  10.477  0.1563  0.3900  0.7211
 1565TIP3    H126110   6.693   3.340  10.528  0.9000 -0.8658  0.6782
 1565TIP3    H226111   6.656   3.298  10.388  0.5265 -1.2911  0.9015
 1566TIP3   OH226112   6.102   4.158  12.824 -0.0736 -0.1653  0.0920
 1566TIP3    H126113   6.140   4.114  12.901 -0.6655 -0.1970  0.3713
 1566TIP3    H226114   6.177   4.203  12.784  0.2618 -0.2017  0.6503
 1567TIP3   OH226115   1.501   3.367  17.194 -0.0905  0.1370 -0.2912
 1567TIP3    H126116   1.498   3.461  17.213 -0.2339  0.2681 -0.9343
 1567TIP3    H226117   1.440   3.356  17.121 -1.0132 -0.6552  0.5820
 1568TIP3   OH226118   1.200   0.836  15.818  0.0722 -0.0526 -0.3981
 1568TIP3    H126119   1.142   0.910  15.799  0.6162  0.4921  0.0079
 1568TIP3    H226120   1.231   0.852  15.907  0.9992 -0.2262 -0.6791
 1569TIP3   OH226121   3.131   2.060   3.601  0.5742  0.1672  0.0723
 1569TIP3    H126122   3.216   2.104   3.587  0.9350  0.5886  2.9684
 1569TIP3    H226123   3.071   2.131   3.624 -0.2490 -0.2985 -0.5828
 1570TIP3   OH226124   1.566   3.994   3.777 -0.5296 -0.7876  0.0067
 1570TIP3    H126125   1.615   3.943   3.713  0.6973 -0.9782  1.0521
 1570TIP3    H226126   1.520   4.060   3.726  2.0612  0.4017 -0.9135
 1571TIP3   OH226127   1.279   2.756  15.249 -0.3145  0.2361  0.4284
 1571TIP3    H126128   1.348   2.728  15.189  0.1383  1.4301  0.3528
 1571TIP3    H226129   1.215   2.801  15.193 -0.6279  0.0670  0.6469
 1572TIP3   OH226130   2.035   1.694   3.885 -0.0990  0.0164  0.1921
 1572TIP3    H126131   1.963   1.744   3.923  0.5926  0.5106  0.8773
 1572TIP3    H226132   2.043   1.617   3.942 -0.6577 -0.4945 -0.4075
 1573TIP3   OH226133   6.132   3.137  13.998  0.1411 -0.5612 -0.2277
 1573TIP3    H126134   6.179   3.187  14.065  0.0579 -0.9605  0.1285
 1573TIP3    H226135   6.124   3.049  14.035  0.1056 -0.7841 -0.7681
 1574TIP3   OH226136   5.275   0.219  14.617 -0.2332  0.2428  0.0629
 1574TIP3    H126137   5.365   0.202  14.645  0.0046  1.1805 -0.1109
 1574TIP3    H226138   5.257   0.309  14.645 -1.3383 -0.1344  0.6516
 1575TIP3   OH226139   5.691   5.191  13.285 -0.5879 -0.0948 -0.4849
 1575TIP3    H126140   5.678   5.101  13.313  0.7118 -0.0966  0.1647
 1575TIP3    H226141   5.785   5.206  13.294 -0.9280  1.6931  0.5397
 1576TIP3   OH226142   6.485   4.661  12.029 -0.1529 -0.2451 -0.5200
 1576TIP3    H126143   6.576   4.688  12.028  0.2635 -1.5690 -0.1197
 1576TIP3    H226144   6.461   4.659  12.122 -0.8422  0.8494 -0.6542
 1577TIP3   OH226145   2.021   4.338  13.806 -0.0037 -0.2133  0.2117
 1577TIP3    H126146   2.000   4.402  13.738  0.1342 -0.8554 -0.4454
 1577TIP3    H226147   2.095   4.377  13.853  0.4971 -0.1668 -0.5853
 1578TIP3   OH226148   4.101   3.848   0.597 -0.0084 -0.1890  0.1682
 1578TIP3    H126149   4.091   3.753   0.597 -0.0177 -0.2109 -1.3566
 1578TIP3    H226150   4.155   3.866   0.674 -0.3098 -1.3779  0.6869
 1579TIP3   OH226151   2.212   3.561   4.833  0.3788  0.4327  0.2194
 1579TIP3    H126152   2.237   3.549   4.925  1.7670 -1.6318 -0.3648
 1579TIP3    H226153   2.199   3.473   4.800  0.5708  1.0938 -1.7614
 1580TIP3   OH226154   5.627   4.307  11.819 -0.3056  0.7717 -0.2625
 1580TIP3    H126155   5.662   4.393  11.793 -0.3294  2.4138  4.2735
 1580TIP3    H226156   5.686   4.244  11.779  0.5744  2.8743 -2.6076
 1581TIP3   OH226157   1.071   2.397  11.447 -0.2566  0.1105  0.2385
 1581TIP3    H126158   0.979   2.421  11.456 -0.0499  0.6831  0.9052
 1581TIP3    H226159   1.071   2.301  11.454 -0.7313  0.1509  0.8712
 1582TIP3   OH226160   0.745   1.862  12.092 -0.1857  0.5165  0.0570
 1582TIP3    H126161   0.696   1.832  12.015 -0.5003 -2.3676  1.2680
 1582TIP3    H226162   0.685   1.923  12.135 -1.2917 -0.2206 -0.3711
 1583TIP3   OH226163   1.295   2.076  10.381 -0.2900  0.0029 -0.4756
 1583TIP3    H126164   1.206   2.045  10.365 -0.5643  0.3643  0.3168
 1583TIP3    H226165   1.316   2.128  10.303 -0.5134 -0.6437 -0.9736
 1584TIP3   OH226166   2.249   5.356   3.311  0.0670 -0.3689 -0.0238
 1584TIP3    H126167   2.195   5.319   3.381 -0.1651 -0.1688 -0.0963
 1584TIP3    H226168   2.329   5.303   3.312  0.3454  0.0418  0.8251
 1585TIP3   OH226169   0.962   4.112   3.687 -0.5793 -0.8704  0.0985
 1585TIP3    H126170   0.983   4.082   3.598 -0.9650  1.9113 -1.0221
 1585TIP3    H226171   1.013   4.054   3.744  0.2269 -2.2999 -1.9378
 1586TIP3   OH226172   0.311   3.230  11.711  0.2802  0.8986  0.0491
 1586TIP3    H126173   0.294   3.223  11.617  1.0038  0.7117 -0.0734
 1586TIP3    H226174   0.324   3.324  11.726 -2.7676  1.3324  0.5054
 1587TIP3   OH226175   6.268   1.413   1.163 -0.4700  0.4329  0.4239
 1587TIP3    H126176   6.195   1.472   1.180  1.3684  1.8953  5.0894
 1587TIP3    H226177   6.339   1.470   1.135  0.2251 -0.1631  0.9331
 1588TIP3   OH226178   5.307   4.528  14.456 -0.4296  0.3782  0.3470
 1588TIP3    H126179   5.311   4.445  14.409 -1.2472  0.6866 -0.2980
 1588TIP3    H226180   5.302   4.503  14.548  0.2809 -0.2565  0.2182
 1589TIP3   OH226181   2.324   6.075   0.404 -0.3753 -0.1904 -0.6697
 1589TIP3    H126182   2.240   6.041   0.435 -0.9564  0.1032 -1.8361
 1589TIP3    H226183   2.375   6.091   0.483 -2.9085  3.5204  0.5075
 1590TIP3   OH226184   6.292   4.112  11.218  0.2965 -0.3873 -0.1055
 1590TIP3    H126185   6.319   4.050  11.150 -0.9032 -2.6142  1.2909
 1590TIP3    H226186   6.196   4.111  11.214  0.1937 -0.6827  1.6558
 1591TIP3   OH226187   0.667   3.039   3.685  0.3074 -0.0590  0.0913
 1591TIP3    H126188   0.614   2.983   3.742 -0.3015  1.3900  0.9933
 1591TIP3    H226189   0.610   3.060   3.611 -0.0577  0.7370  0.5950
 1592TIP3   OH226190   1.905   4.275  16.262 -0.3519  0.9464 -0.3962
 1592TIP3    H126191   1.919   4.251  16.170  1.1270 -0.0909  0.0640
 1592TIP3    H226192   1.858   4.200  16.299 -2.7370  2.1878 -0.7048
 1593TIP3   OH226193   1.626   5.801   3.991 -0.1150  0.2908  0.3911
 1593TIP3    H126194   1.580   5.829   3.912  0.9861  0.6193 -0.1615
 1593TIP3    H226195   1.562   5.808   4.061  0.0279  4.1944  0.3234
 1594TIP3   OH226196   5.820   0.573   1.679 -0.3819  0.2130  0.2160
 1594TIP3    H126197   5.891   0.630   1.710 -1.0109  1.5764 -0.7188
 1594TIP3    H226198   5.764   0.631   1.626 -0.3422 -1.5594 -1.9438
 1595TIP3   OH226199   5.851   1.937   1.389 -0.8521 -0.5757 -0.0562
 1595TIP3    H126200   5.907   1.939   1.311 -2.3027 -1.2234 -1.1608
 1595TIP3    H226201   5.899   1.988   1.454  2.3801 -3.3196  0.0094
 1596TIP3   OH226202   5.967   4.340   1.058  0.2412 -0.2241  0.1630
 1596TIP3    H126203   5.977   4.249   1.030 -0.4498  0.5340 -2.8796
 1596TIP3    H226204   6.052   4.362   1.096  1.1104 -1.5696 -0.8899
 1597TIP3   OH226205   4.650   5.457  13.623 -0.4699  0.1901 -0.3332
 1597TIP3    H126206   4.555   5.473  13.617 -0.1408  2.1665 -1.0306
 1597TIP3    H226207   4.689   5.544  13.622  1.4185 -0.6068 -1.0808
 1598TIP3   OH226208   6.744   6.550  11.900 -0.0999  0.3603  0.1910
 1598TIP3    H126209   6.835   6.574  11.878  0.0407 -1.2129 -1.1778
 1598TIP3    H226210   6.694   6.577  11.823 -1.0780  2.4519  1.4767
 1599TIP3   OH226211   2.745   4.986   0.195  1.3873 -0.1111 -0.4262
 1599TIP3    H126212   2.826   5.034   0.179  1.7854 -0.5058  0.3550
 1599TIP3    H226213   2.756   4.948   0.282  0.5593 -0.5668 -0.5077
 1600TIP3   OH226214   5.867   3.908   2.973  0.6204 -0.1499  0.2440
 1600TIP3    H126215   5.848   3.939   2.884  0.3327  0.1284  0.3985
 1600TIP3    H226216   5.949   3.952   2.996  1.0569 -0.7572 -0.1383
 1601TIP3   OH226217   2.727   3.934   5.856 -0.0239  0.8299  0.2880
 1601TIP3    H126218   2.745   4.024   5.885  5.3413  0.1861 -0.1053
 1601TIP3    H226219   2.723   3.940   5.761  1.2777  0.5628  0.2095
 1602TIP3   OH226220   0.100   5.785  12.536 -0.5688 -0.5844  0.0812
 1602TIP3    H126221   0.094   5.873  12.574 -0.0432  0.0931 -1.3186
 1602TIP3    H226222   0.027   5.780  12.475 -0.8805 -1.3227  0.4971
 1603TIP3   OH226223   4.065   4.468  13.451 -0.2859  0.3602 -1.2240
 1603TIP3    H126224   4.124   4.537  13.420  1.7854 -0.3497  0.8346
 1603TIP3    H226225   4.061   4.480  13.546 -2.3661 -0.5269 -1.1301
 1604TIP3   OH226226   3.474   4.921   5.159  0.6520 -0.2317 -0.8798
 1604TIP3    H126227   3.469   4.910   5.254  1.3941 -0.1832 -0.8325
 1604TIP3    H226228   3.387   4.952   5.134  0.8268  1.0082 -0.0504
 1605TIP3   OH226229   3.302   5.773  14.249 -0.2255  0.7231  0.4171
 1605TIP3    H126230   3.223   5.724  14.227  0.6542 -1.4354  1.7929
 1605TIP3    H226231   3.369   5.706  14.261  1.4857  2.4040  0.6879
 1606TIP3   OH226232   2.894   4.972   2.920  0.0710  0.3136 -0.2353
 1606TIP3    H126233   2.872   4.930   3.003 -0.6135  0.5053 -0.3068
 1606TIP3    H226234   2.814   4.965   2.868  0.2801  0.7787 -0.6306
 1607TIP3   OH226235   0.677   0.525   3.362  0.0172  0.4586 -0.6013
 1607TIP3    H126236   0.733   0.597   3.334 -0.5345  0.9363 -0.4880
 1607TIP3    H226237   0.628   0.500   3.283  0.4294 -0.0059 -0.7183
 1608TIP3   OH226238   2.556   6.412   3.731 -0.0238 -0.0175  0.1642
 1608TIP3    H126239   2.549   6.416   3.826 -0.6129  0.4548  0.1109
 1608TIP3    H226240   2.485   6.468   3.699  1.3221  1.3669 -0.5364
 1609TIP3   OH226241   0.190   2.430  15.312  0.7178 -0.4523  0.4433
 1609TIP3    H126242   0.147   2.373  15.248  0.6451 -0.9983  0.9695
 1609TIP3    H226243   0.126   2.498  15.331  1.2324  0.5259 -1.0798
 1610TIP3   OH226244   2.791   6.085  12.335 -0.1614 -0.1017 -0.1061
 1610TIP3    H126245   2.738   6.022  12.384  0.0422 -1.2600 -1.2813
 1610TIP3    H226246   2.797   6.046  12.247  1.1094  0.9056 -0.4913
 1611TIP3   OH226247   4.271   3.999  14.400 -0.6372 -0.2371  0.1578
 1611TIP3    H126248   4.281   4.088  14.366  0.1061 -0.1546  0.5733
 1611TIP3    H226249   4.339   3.990  14.466 -2.5614 -0.1220  2.2632
 1612TIP3   OH226250   5.330   5.211  15.870 -0.1759 -0.0581  0.0335
 1612TIP3    H126251   5.254   5.252  15.911 -0.8742 -1.6476  0.3972
 1612TIP3    H226252   5.292   5.152  15.804  0.6192 -2.0745  1.3082
 1613TIP3   OH226253   3.176   2.997  12.616  0.3233  0.1365 -0.1895
 1613TIP3    H126254   3.226   3.048  12.552  0.4336 -0.0871 -0.2828
 1613TIP3    H226255   3.084   3.010  12.590  0.3505  0.2745 -0.2204
 1614TIP3   OH226256   6.168   5.585  15.572 -0.0233 -0.2537  0.3084
 1614TIP3    H126257   6.131   5.586  15.484  2.2768 -1.1188 -0.7368
 1614TIP3    H226258   6.101   5.542  15.626 -1.3846  0.1097 -1.0238
 1615TIP3   OH226259   4.433   4.534   0.561  0.8417  0.2643 -0.2202
 1615TIP3    H126260   4.369   4.523   0.632  0.8411  0.9648 -0.1037
 1615TIP3    H226261   4.511   4.568   0.604  0.8544  0.6593 -0.5464
 1616TIP3   OH226262   3.427   5.646   5.122 -0.4613 -0.1952  0.0493
 1616TIP3    H126263   3.337   5.622   5.100 -0.0822 -1.0371 -0.6302
 1616TIP3    H226264   3.479   5.569   5.098  0.1408 -0.7757  2.9008
 1617TIP3   OH226265   6.187   3.023   3.864 -0.4030 -0.1779  0.4060
 1617TIP3    H126266   6.140   2.945   3.834  1.9290 -1.5269  0.0222
 1617TIP3    H226267   6.209   3.004   3.955  0.9507 -0.4057  0.0509
 1618TIP3   OH226268   3.864   0.478   0.741 -0.2936  0.3107  0.9422
 1618TIP3    H126269   3.958   0.458   0.736 -0.3442  0.3306 -0.4974
 1618TIP3    H226270   3.822   0.392   0.750 -0.2251  0.1653 -0.0865
 1619TIP3   OH226271   2.378   4.686  13.481 -0.5155  0.3914  0.6022
 1619TIP3    H126272   2.472   4.671  13.481 -0.4897  0.4852 -0.6272
 1619TIP3    H226273   2.341   4.603  13.513 -0.1280 -0.7176 -1.6205
 1620TIP3   OH226274   1.438   2.581  11.093 -0.9706  0.0615  0.4321
 1620TIP3    H126275   1.437   2.648  11.161 -1.3275  0.6840 -0.1772
 1620TIP3    H226276   1.407   2.502  11.137 -0.6892  0.3264  1.1188
 1621TIP3   OH226277   3.932   5.919  15.839  0.2377 -0.1099  0.0179
 1621TIP3    H126278   4.026   5.934  15.840  0.3313 -0.6244  1.1266
 1621TIP3    H226279   3.904   5.933  15.930 -0.6445 -0.5661 -0.1639
 1622TIP3   OH226280   3.233   6.550  16.922  0.1218  0.0974 -0.1684
 1622TIP3    H126281   3.186   6.467  16.934 -1.3755  1.0155  0.5900
 1622TIP3    H226282   3.180   6.615  16.969  1.8815  1.2946  0.2564
 1623TIP3   OH226283   4.017   0.947  12.825 -0.0628  0.0917 -0.1625
 1623TIP3    H126284   4.024   0.900  12.741  0.9181  0.2061 -0.1500
 1623TIP3    H226285   3.989   0.879  12.887  0.0536 -0.1866 -0.4094
 1624TIP3   OH226286   6.460   0.074   2.228  0.0146 -0.4814 -0.6925
 1624TIP3    H126287   6.375   0.031   2.228  0.1404 -0.7595 -1.5663
 1624TIP3    H226288   6.520   0.009   2.266 -0.4624  0.4255  1.7797
 1625TIP3   OH226289   3.225   5.356  16.674  0.1042 -0.2489 -0.0208
 1625TIP3    H126290   3.222   5.435  16.621  2.9933 -0.1607 -0.1660
 1625TIP3    H226291   3.196   5.286  16.615 -2.0775  0.5393  0.0028
 1626TIP3   OH226292   1.524   6.328  12.715  0.0200  0.7460 -0.4915
 1626TIP3    H126293   1.445   6.274  12.727  0.2218  0.7698  1.2617
 1626TIP3    H226294   1.492   6.418  12.721 -0.0623  0.7995 -1.6147
 1627TIP3   OH226295   3.921   4.936  12.247 -0.2226 -0.3785 -0.6967
 1627TIP3    H126296   3.890   4.901  12.331 -0.9665 -0.0795 -0.8420
 1627TIP3    H226297   4.016   4.928  12.252 -0.3612 -3.5806 -1.2107
 1628TIP3   OH226298   1.373   0.238  11.318 -0.0151  0.3783  0.1799
 1628TIP3    H126299   1.289   0.234  11.363 -0.1837 -2.0291 -0.2154
 1628TIP3    H226300   1.438   0.227  11.387 -0.2048 -1.4011  0.1186
 1629TIP3   OH226301   5.112   0.137  12.862  0.2376  0.8186  0.8815
 1629TIP3    H126302   5.144   0.106  12.947 -0.7918  0.5861  1.2069
 1629TIP3    H226303   5.068   0.220  12.882  1.3699  1.5705  0.3067
 1630TIP3   OH226304   0.405   4.289  16.945 -0.3653 -0.4327  0.1999
 1630TIP3    H126305   0.331   4.256  16.996 -0.1077 -0.3436  0.6374
 1630TIP3    H226306   0.425   4.219  16.883 -0.9765 -0.3530 -0.0861
 1631TIP3   OH226307   5.557   5.958  15.047  1.0346  0.1125 -0.1608
 1631TIP3    H126308   5.526   6.031  14.994 -0.8276 -0.8682 -0.4905
 1631TIP3    H226309   5.611   5.999  15.115  1.8147  1.5619 -1.5857
 1632TIP3   OH226310   4.797   3.752   3.206 -0.6109  0.4206 -0.1422
 1632TIP3    H126311   4.793   3.759   3.301 -0.5527 -0.1598 -0.0915
 1632TIP3    H226312   4.863   3.816   3.180 -0.5137  0.4700  0.2239
 1633TIP3   OH226313   0.043   0.483   2.152 -0.2432 -0.5776 -0.4867
 1633TIP3    H126314   0.081   0.569   2.165 -0.7714 -0.4479  0.2536
 1633TIP3    H226315   0.024   0.451   2.240 -1.6068 -0.7331 -0.8036
 1634TIP3   OH226316   3.523   3.491  15.836  0.6587  0.0454  0.2488
 1634TIP3    H126317   3.526   3.447  15.751  0.2131 -0.0198  0.2633
 1634TIP3    H226318   3.565   3.576  15.820  1.1705 -0.2269  0.1285
 1635TIP3   OH226319   4.277   5.308  12.956  0.6029 -0.2060 -0.3190
 1635TIP3    H126320   4.193   5.351  12.973  1.2506  0.8633  0.3417
 1635TIP3    H226321   4.337   5.380  12.936  1.9286 -0.6737  1.6286
 1636TIP3   OH226322   5.363   3.250  16.450  0.4059 -0.3194  0.2035
 1636TIP3    H126323   5.413   3.281  16.375 -0.9612  0.7804 -0.3048
 1636TIP3    H226324   5.376   3.155  16.450  0.6046 -0.3174 -1.3057
 1637TIP3   OH226325   2.557   1.972   3.158 -0.2507 -0.0201 -0.0637
 1637TIP3    H126326   2.531   1.898   3.103  1.0638 -0.4201 -0.1818
 1637TIP3    H226327   2.502   2.044   3.129  0.4875 -0.1813 -2.0028
 1638TIP3   OH226328   4.098   6.610  16.821 -0.5339  0.2747 -0.3568
 1638TIP3    H126329   4.028   6.552  16.849 -1.8683  1.2909 -1.4365
 1638TIP3    H226330   4.081   6.693  16.866  0.2308  0.4017 -0.2862
 1639TIP3   OH226331   4.524   3.681   3.160  0.1855 -0.3578 -0.0029
 1639TIP3    H126332   4.513   3.714   3.071  0.1254  1.1380  0.5356
 1639TIP3    H226333   4.606   3.720   3.190 -1.3808  1.8525  1.7119
 1640TIP3   OH226334   4.233   1.202   5.772  0.6693  0.1384 -0.0580
 1640TIP3    H126335   4.193   1.289   5.778 -0.5394 -0.3508 -0.5985
 1640TIP3    H226336   4.170   1.144   5.815  0.1002 -0.8575 -2.0794
 1641TIP3   OH226337   4.833   5.888  13.889  0.4391  0.0404  0.1978
 1641TIP3    H126338   4.779   5.888  13.969 -0.3015 -1.7150 -0.2597
 1641TIP3    H226339   4.918   5.921  13.918 -0.2356  0.7961  1.4031
 1642TIP3   OH226340   6.491   1.314  12.135 -0.3282  0.1129  0.3144
 1642TIP3    H126341   6.552   1.242  12.142 -2.9669 -2.3316 -0.0316
 1642TIP3    H226342   6.521   1.378  12.201  2.0261 -1.2879  0.7082
 1643TIP3   OH226343   0.939   4.655   4.239 -0.7501 -0.4205 -0.2975
 1643TIP3    H126344   0.945   4.637   4.333 -2.5768  2.0742  0.4200
 1643TIP3    H226345   1.030   4.658   4.209 -0.1592 -3.5419  0.8106
 1644TIP3   OH226346   1.071   3.548  12.482 -0.0977  0.7385  0.4920
 1644TIP3    H126347   1.044   3.570  12.393 -0.8925  0.2822  0.6146
 1644TIP3    H226348   1.035   3.619  12.536  0.0342  0.7956  0.5075
 1645TIP3   OH226349   3.755   1.353  15.906 -0.2992 -0.1552  0.2201
 1645TIP3    H126350   3.803   1.270  15.912  0.1385  0.1088  0.4197
 1645TIP3    H226351   3.805   1.414  15.960  0.3541  0.7070 -1.3098
 1646TIP3   OH226352   4.585   6.684  13.488  0.2098 -0.4677 -0.0670
 1646TIP3    H126353   4.492   6.682  13.463 -0.5102  0.5807  2.2440
 1646TIP3    H226354   4.619   6.764  13.447 -0.7725  0.8633  1.5719
 1647TIP3   OH226355   1.373   5.786  11.657  0.3959 -0.4808 -0.3202
 1647TIP3    H126356   1.312   5.822  11.592  1.5835 -0.0183 -1.2128
 1647TIP3    H226357   1.318   5.731  11.713 -0.9041  0.2201 -0.8626
 1648TIP3   OH226358   3.454   0.941  17.085  0.1006  0.2419 -0.4965
 1648TIP3    H126359   3.376   0.992  17.063 -0.7183  0.9591  3.2501
 1648TIP3    H226360   3.441   0.856  17.044 -1.6453  1.0143 -1.6318
 1649TIP3   OH226361   2.174   0.904   3.833 -0.3529  0.5453 -0.3554
 1649TIP3    H126362   2.229   0.877   3.907 -0.9055 -0.4757 -0.3025
 1649TIP3    H226363   2.232   0.959   3.780  0.2238  0.8276  0.5322
 1650TIP3   OH226364   2.417   0.989   2.830 -0.0486  0.4735 -0.6207
 1650TIP3    H126365   2.415   1.085   2.827 -0.8241  0.4855  0.0554
 1650TIP3    H226366   2.495   0.966   2.779  0.1271  1.4582 -0.8295
 1651TIP3   OH226367   4.194   0.900  16.253  0.1633 -0.1684  0.4049
 1651TIP3    H126368   4.146   0.818  16.241  1.6403 -0.8411 -1.4870
 1651TIP3    H226369   4.273   0.874  16.300  0.1539  0.3514  0.7071
 1652TIP3   OH226370   3.895   6.371   0.185  0.7860 -0.8286  0.2230
 1652TIP3    H126371   3.913   6.292   0.133  0.1460 -0.0939 -1.1776
 1652TIP3    H226372   3.800   6.370   0.198  0.8279 -0.5119  0.5778
 1653TIP3   OH226373   6.096   1.026   3.039 -0.5077 -0.0235  0.2876
 1653TIP3    H126374   6.003   1.045   3.046 -0.4989  0.6826 -1.0434
 1653TIP3    H226375   6.100   0.942   2.992 -0.4639 -0.2155  0.6270
 1654TIP3   OH226376   0.776   3.449   0.912  0.3250  0.1608 -0.2568
 1654TIP3    H126377   0.722   3.522   0.882 -0.1428 -0.1957 -0.2944
 1654TIP3    H226378   0.733   3.419   0.992  0.3298 -0.2696 -0.4120
 1655TIP3   OH226379   0.952   3.897   2.851  0.7565 -0.0861  0.4124
 1655TIP3    H126380   1.027   3.859   2.805 -0.5819 -0.3517 -1.6514
 1655TIP3    H226381   0.931   3.834   2.920  0.0265 -2.0098 -1.4880
 1656TIP3   OH226382   4.836   6.323  15.498  0.5177 -0.5774  0.6598
 1656TIP3    H126383   4.793   6.335  15.583  1.1634 -0.9184  1.0416
 1656TIP3    H226384   4.849   6.228  15.491  1.2734 -0.4712  0.5811
 1657TIP3   OH226385   0.068   3.914   2.269  0.3050  0.1954 -0.2191
 1657TIP3    H126386   0.084   3.968   2.347 -0.7353  1.7111 -0.9978
 1657TIP3    H226387   0.139   3.936   2.209  0.0200  0.5205 -0.4408
 1658TIP3   OH226388   3.043   1.411   5.133 -0.0437  0.0812 -0.0848
 1658TIP3    H126389   2.972   1.476   5.140 -0.9662 -0.9715  0.6579
 1658TIP3    H226390   3.065   1.409   5.040 -1.2960  0.1278 -0.3975
 1659TIP3   OH226391   0.609   6.063  13.157 -0.4258 -0.1129 -0.8134
 1659TIP3    H126392   0.538   6.128  13.149 -1.3716 -1.2916 -2.7206
 1659TIP3    H226393   0.641   6.074  13.247 -2.5655  0.9566 -0.0970
 1660TIP3   OH226394   0.756   2.052   1.686 -0.0732 -0.9038 -0.0948
 1660TIP3    H126395   0.791   2.112   1.620  0.9932 -0.8606  0.4823
 1660TIP3    H226396   0.693   1.998   1.639  1.9500 -2.0918 -1.6381
 1661TIP3   OH226397   3.129   6.516   2.847  0.1014 -0.3216  0.1825
 1661TIP3    H126398   3.037   6.506   2.822 -0.2603  0.5381  1.0753
 1661TIP3    H226399   3.138   6.461   2.925  0.3418 -0.4129  0.0892
 1662TIP3   OH226400   2.601   3.041   2.328 -0.4252 -0.2846 -0.2967
 1662TIP3    H126401   2.553   3.044   2.245 -0.5196 -0.8894 -0.2745
 1662TIP3    H226402   2.551   3.097   2.386  1.9250  3.7061 -1.7326
 1663TIP3   OH226403   6.198   0.678  17.163 -0.1055 -0.6091 -0.0589
 1663TIP3    H126404   6.188   0.772  17.153  0.4385 -0.3987  1.1653
 1663TIP3    H226405   6.149   0.640  17.090  0.1395  0.6271 -0.8908
 1664TIP3   OH226406   6.570   0.355  12.531 -0.3598  0.4746  0.0594
 1664TIP3    H126407   6.576   0.438  12.484 -0.9878  0.3318 -0.2905
 1664TIP3    H226408   6.606   0.290  12.471  0.7007  0.5777  0.5762
 1665TIP3   OH226409   4.322   6.689  13.072  0.2782  0.1700  0.1228
 1665TIP3    H126410   4.350   6.599  13.088 -1.3707 -0.5126 -0.6390
 1665TIP3    H226411   4.391   6.726  13.017 -0.6465 -1.7766 -2.5750
 1666TIP3   OH226412   2.227   5.327   4.140 -0.2854 -0.0833 -0.6737
 1666TIP3    H126413   2.152   5.285   4.183  1.8690 -2.7128  0.7714
 1666TIP3    H226414   2.220   5.299   4.049 -0.3243 -1.5526 -0.2551
 1667TIP3   OH226415   4.915   3.851  16.314  0.0865 -0.5965  0.2369
 1667TIP3    H126416   4.820   3.840  16.322 -0.0473  0.5044  0.3567
 1667TIP3    H226417   4.930   3.943  16.337  1.0049 -0.3517 -1.2010
 1668TIP3   OH226418   6.197   2.434  13.917  0.1154  0.3421 -0.6227
 1668TIP3    H126419   6.212   2.524  13.946 -1.2563  0.4577 -0.2067
 1668TIP3    H226420   6.222   2.434  13.825  1.7341  0.7003 -0.2280
 1669TIP3   OH226421   5.494   3.833  17.063 -0.2440  0.3702 -0.2606
 1669TIP3    H126422   5.401   3.826  17.041 -0.3136  2.4974 -0.8554
 1669TIP3    H226423   5.534   3.872  16.985  0.9721  0.4512  0.3836
 1670TIP3   OH226424   5.948   6.101   4.531 -0.3485 -0.3723 -0.4406
 1670TIP3    H126425   6.017   6.075   4.470 -2.6798 -0.2830 -3.4032
 1670TIP3    H226426   5.908   6.177   4.490 -2.3017 -0.5312  1.0316
 1671TIP3   OH226427   6.520   3.428   3.199 -0.1669 -0.0940 -0.9414
 1671TIP3    H126428   6.608   3.449   3.230 -0.7971  1.2620  0.0203
 1671TIP3    H226429   6.470   3.411   3.278 -1.6630  2.8579 -1.1086
 1672TIP3   OH226430   4.948   5.881   2.896  0.2711  0.0364 -0.0690
 1672TIP3    H126431   4.952   5.966   2.940  2.2877 -0.0512 -0.0319
 1672TIP3    H226432   4.991   5.820   2.956 -1.0001 -1.0188 -0.1692
 1673TIP3   OH226433   3.025   3.766  14.952  0.0275  0.5220  0.2572
 1673TIP3    H126434   2.984   3.680  14.959 -1.1920  1.2514  3.7708
 1673TIP3    H226435   2.983   3.806  14.875 -0.2015 -1.5344 -0.7644
 1674TIP3   OH226436   4.131   3.208  11.287  0.0474  0.2329  0.8541
 1674TIP3    H126437   4.178   3.180  11.208 -1.2583  0.8460 -0.1661
 1674TIP3    H226438   4.105   3.298  11.269  0.8538  0.8413  2.5370
 1675TIP3   OH226439   5.101   4.245   3.426  0.4287  0.4113  0.0443
 1675TIP3    H126440   5.087   4.189   3.349  2.6418  1.6815 -1.4031
 1675TIP3    H226441   5.196   4.242   3.440  0.0687  0.0370  2.9447
 1676TIP3   OH226442   0.893   0.135  13.012  0.1161  0.0337  0.1676
 1676TIP3    H126443   0.855   0.149  12.925 -0.4102  0.9111  0.5256
 1676TIP3    H226444   0.818   0.124  13.070  0.4559 -0.1872  0.5770
 1677TIP3   OH226445   4.239   5.759  13.661  0.4707  0.1747  0.1042
 1677TIP3    H126446   4.241   5.803  13.746  0.6610 -1.4427  0.9707
 1677TIP3    H226447   4.324   5.778  13.623  0.4221  0.8303  0.3048
 1678TIP3   OH226448   4.289   5.298  16.442  0.5950 -0.2609 -0.3742
 1678TIP3    H126449   4.257   5.368  16.385 -0.4829 -1.4011 -1.2065
 1678TIP3    H226450   4.309   5.225  16.383  1.1552 -0.8642  0.5283
 1679TIP3   OH226451   5.464   6.029  13.251 -0.0545 -0.8003  0.4197
 1679TIP3    H126452   5.445   6.090  13.322 -1.3569 -2.3432  1.4420
 1679TIP3    H226453   5.511   6.083  13.186  1.2465  0.6282  2.4233
 1680TIP3   OH226454   2.745   2.161   6.695  0.1145  1.2591 -0.5139
 1680TIP3    H126455   2.700   2.239   6.662  0.6854  0.5650 -3.2069
 1680TIP3    H226456   2.838   2.182   6.687  0.2889  0.0668 -2.0814
 1681TIP3   OH226457   3.148   5.117  13.732  0.6479 -0.3516  0.4542
 1681TIP3    H126458   3.174   5.206  13.707  0.0148  0.5942  2.8114
 1681TIP3    H226459   3.147   5.068  13.650  0.0648  2.0402 -1.0765
 1682TIP3   OH226460   5.016   1.847  11.256 -0.1894  0.1304  0.5190
 1682TIP3    H126461   5.031   1.908  11.184 -1.0782 -0.4861 -0.2076
 1682TIP3    H226462   4.949   1.888  11.310  0.5795  0.6593  1.1003
 1683TIP3   OH226463   1.436   6.312  15.008  0.4506 -0.2636  0.1348
 1683TIP3    H126464   1.470   6.258  15.079 -1.0711 -1.2866  0.1496
 1683TIP3    H226465   1.476   6.276  14.929  2.5236  1.1832  0.4501
 1684TIP3   OH226466   1.068   0.637  15.690  0.3437 -0.1103  0.5199
 1684TIP3    H126467   1.066   0.695  15.766  0.4689 -0.1751  0.5745
 1684TIP3    H226468   1.143   0.579  15.707 -0.7786 -1.3937  1.2951
 1685TIP3   OH226469   5.836   3.650   6.456 -0.6929 -0.4545 -0.1820
 1685TIP3    H126470   5.778   3.718   6.422  1.2157  0.4580 -1.7902
 1685TIP3    H226471   5.857   3.678   6.545 -0.4630  0.7004 -0.5927
 1686TIP3   OH226472   2.220   3.635   1.415  1.1219  0.1744 -0.0236
 1686TIP3    H126473   2.222   3.603   1.506  1.9430  1.9400  0.6206
 1686TIP3    H226474   2.127   3.639   1.393  0.9436 -2.1665 -0.0153
 1687TIP3   OH226475   1.178   1.310   0.418 -0.0859  0.0086  0.3040
 1687TIP3    H126476   1.164   1.404   0.415  0.2600  0.0483 -0.0742
 1687TIP3    H226477   1.150   1.278   0.332  2.6688  0.1707 -0.7622
 1688TIP3   OH226478   4.649   1.099   2.058  0.4598  0.2543  0.4327
 1688TIP3    H126479   4.723   1.115   1.999 -2.2595 -1.3495 -3.9090
 1688TIP3    H226480   4.636   1.004   2.055 -1.8116  0.4970  0.9087
 1689TIP3   OH226481   1.292   4.734  13.040  0.4317 -0.5959 -0.0185
 1689TIP3    H126482   1.382   4.703  13.027  0.5688  0.3645 -1.7596
 1689TIP3    H226483   1.237   4.659  13.014  0.7534 -0.5457 -0.8995
 1690TIP3   OH226484   6.403   5.102  10.733  0.1581  0.1086  0.2502
 1690TIP3    H126485   6.471   5.106  10.666 -1.2653 -1.8866 -1.4839
 1690TIP3    H226486   6.330   5.151  10.695 -0.0957  0.4357  1.1368
 1691TIP3   OH226487   4.262   1.266   6.267  0.6833  0.1234  0.0166
 1691TIP3    H126488   4.286   1.266   6.359  0.1538  0.6097  0.1613
 1691TIP3    H226489   4.326   1.208   6.225  0.5131 -0.6290  0.7881
 1692TIP3   OH226490   5.558   3.247  14.810 -0.4863  0.1023  0.2742
 1692TIP3    H126491   5.621   3.224  14.742  1.0029  1.0654  1.2655
 1692TIP3    H226492   5.578   3.187  14.882 -1.5550 -0.4115  0.1658
 1693TIP3   OH226493   6.543   6.217  11.349  0.2283 -0.1246  0.0597
 1693TIP3    H126494   6.581   6.198  11.435  0.3226 -1.2224 -0.2112
 1693TIP3    H226495   6.480   6.147  11.335  0.0001  0.2191 -0.6441
 1694TIP3   OH226496   2.559   2.950  13.483 -0.0198 -0.7838  0.1693
 1694TIP3    H126497   2.481   3.004  13.474 -1.4380 -2.5272  1.3577
 1694TIP3    H226498   2.562   2.898  13.403 -0.3850 -1.0754  0.3422
 1695TIP3   OH226499   5.342   0.321  15.935  0.2332  0.4097 -0.1959
 1695TIP3    H126500   5.289   0.364  16.002  1.4903  2.9992 -0.7112
 1695TIP3    H226501   5.284   0.255  15.897 -1.5768  1.0589  1.2582
 1696TIP3   OH226502   3.325   0.663   0.156  0.3576 -0.0900  0.1483
 1696TIP3    H126503   3.380   0.628   0.086  0.2658  1.5154 -0.7713
 1696TIP3    H226504   3.381   0.727   0.202 -0.3802  0.7792 -0.1302
 1697TIP3   OH226505   1.195   2.782  12.293 -0.1171 -0.0046  0.0209
 1697TIP3    H126506   1.207   2.863  12.342  0.4768 -0.5035  0.7172
 1697TIP3    H226507   1.270   2.728  12.317 -0.8201 -0.9967  0.0298
 1698TIP3   OH226508   2.167   2.787   5.442  0.1009  0.3792  0.2718
 1698TIP3    H126509   2.122   2.871   5.429  0.3120  0.6117  0.9905
 1698TIP3    H226510   2.214   2.798   5.525  1.7705  0.2649 -0.6177
 1699TIP3   OH226511   0.572   3.807  16.693 -0.4434 -0.6063 -0.1742
 1699TIP3    H126512   0.497   3.766  16.738 -0.9597  1.0924  0.5677
 1699TIP3    H226513   0.535   3.839  16.611 -0.7639  0.9240  0.5302
 1700TIP3   OH226514   2.000   1.031  16.798  0.5688  0.0755 -0.2935
 1700TIP3    H126515   1.911   1.055  16.824  0.5053 -0.4038 -0.0572
 1700TIP3    H226516   2.057   1.085  16.854  0.4308 -0.4858  0.3934
 1701TIP3   OH226517   3.408   3.694   5.721  0.1539  0.6091  0.3565
 1701TIP3    H126518   3.336   3.642   5.755 -1.3141  1.4568 -1.3474
 1701TIP3    H226519   3.378   3.784   5.728  1.0583  0.9824 -0.3469
 1702TIP3   OH226520   4.757   0.836  11.461  0.0042  0.2165 -0.1279
 1702TIP3    H126521   4.721   0.895  11.527  1.3358  0.9893 -0.0624
 1702TIP3    H226522   4.851   0.834  11.479  0.1197 -1.1514 -0.7559
 1703TIP3   OH226523   2.058   3.850  14.334  0.1585 -0.5616 -0.7982
 1703TIP3    H126524   2.070   3.839  14.240 -1.6207 -0.2499 -1.0891
 1703TIP3    H226525   2.003   3.929  14.343 -0.9516 -1.4237  0.3948
 1704TIP3   OH226526   0.147   3.753  10.896 -0.2913  0.3138  0.1060
 1704TIP3    H126527   0.131   3.670  10.852 -0.0024  0.4403 -0.2453
 1704TIP3    H226528   0.132   3.819  10.828  1.6701  0.4444 -0.2596
 1705TIP3   OH226529   6.591   0.274   3.416 -0.0847 -0.3503  0.2333
 1705TIP3    H126530   6.512   0.236   3.379  0.2126 -0.6197 -0.1239
 1705TIP3    H226531   6.568   0.366   3.432 -0.2298 -0.2442 -0.5626
 1706TIP3   OH226532   3.083   5.152   1.168 -0.7000 -1.1610 -0.1516
 1706TIP3    H126533   3.154   5.104   1.209 -0.2133 -2.1941 -2.1059
 1706TIP3    H226534   3.012   5.089   1.160 -0.2101 -1.5207 -2.3371
 1707TIP3   OH226535   5.465   5.694   0.571  0.0837 -0.3198  0.1573
 1707TIP3    H126536   5.412   5.764   0.607 -1.6932 -0.7275 -1.5134
 1707TIP3    H226537   5.416   5.614   0.591  0.2372 -0.7394 -1.0665
 1708TIP3   OH226538   0.194   0.913   5.421  0.3573  0.0550  0.1010
 1708TIP3    H126539   0.251   0.904   5.498  0.6841  0.6577 -0.0590
 1708TIP3    H226540   0.117   0.860   5.442  0.0859  0.8245  1.2023
 1709TIP3   OH226541   2.432   1.809   0.598  0.5910  0.3266  0.0491
 1709TIP3    H126542   2.391   1.806   0.684 -1.4020 -0.0913 -0.8585
 1709TIP3    H226543   2.360   1.828   0.538  2.0339  1.2661 -1.4780
 1710TIP3   OH226544   6.521   1.956   1.401  0.0155  0.0762  0.3365
 1710TIP3    H126545   6.427   1.938   1.399  0.0954 -0.4859 -2.1910
 1710TIP3    H226546   6.528   2.048   1.378  0.1017 -0.3216 -1.3533
 1711TIP3   OH226547   1.544   4.119   4.886  0.4400  0.0009 -0.4287
 1711TIP3    H126548   1.482   4.058   4.846  0.6725 -0.3574 -0.2535
 1711TIP3    H226549   1.496   4.158   4.959  0.5288 -0.5496 -0.0661
 1712TIP3   OH226550   0.397   6.141  12.256  0.0043  0.3881  0.6245
 1712TIP3    H126551   0.371   6.049  12.256  1.0388  0.0582 -1.1610
 1712TIP3    H226552   0.434   6.155  12.344  0.6889 -1.1601  0.6138
 1713TIP3   OH226553   4.451   2.395   0.646 -0.0539  0.3125 -0.4964
 1713TIP3    H126554   4.388   2.323   0.656  0.6933 -0.0877  2.0210
 1713TIP3    H226555   4.399   2.467   0.610 -1.5925 -0.4838  0.0146
 1714TIP3   OH226556   5.281   0.276  15.215 -0.1357 -0.8040  0.7192
 1714TIP3    H126557   5.204   0.280  15.272  0.0008 -0.5499  0.8879
 1714TIP3    H226558   5.350   0.317  15.266 -0.2807  0.4782 -0.0713
 1715TIP3   OH226559   1.390   3.735  16.807  0.1314  0.0955  0.2748
 1715TIP3    H126560   1.299   3.707  16.818 -0.3549  1.5741  0.2060
 1715TIP3    H226561   1.402   3.804  16.872  2.3015 -2.3653  2.7135
 1716TIP3   OH226562   1.710   2.660  12.556 -0.2443  0.5961 -0.2323
 1716TIP3    H126563   1.801   2.630  12.554  0.2865  1.7201  2.5346
 1716TIP3    H226564   1.659   2.582  12.536  1.2872 -0.1240 -1.5639
 1717TIP3   OH226565   6.017   3.659   6.240  0.6206 -0.4258  0.0292
 1717TIP3    H126566   5.934   3.650   6.286  1.5052 -2.2444  1.4078
 1717TIP3    H226567   6.021   3.751   6.213 -0.4284  0.4756  2.6867
 1718TIP3   OH226568   1.825   5.027   0.507 -0.7751 -0.2202 -0.7844
 1718TIP3    H126569   1.790   5.115   0.522 -0.8896 -0.3170 -0.4646
 1718TIP3    H226570   1.907   5.025   0.557 -2.6488 -1.5696  2.6274
 1719TIP3   OH226571   3.646   3.652  15.027 -0.2648  0.0770 -0.3510
 1719TIP3    H126572   3.645   3.568  14.980  1.6946 -0.0020 -0.3289
 1719TIP3    H226573   3.728   3.651  15.076 -1.9541  0.3629  2.7722
 1720TIP3   OH226574   2.111   3.348   5.720  0.1988 -0.0654 -0.2286
 1720TIP3    H126575   2.185   3.288   5.710  0.4256  0.2228 -0.2976
 1720TIP3    H226576   2.084   3.367   5.630 -0.0940 -0.3342 -0.1990
 1721TIP3   OH226577   0.312   2.636   1.603  0.0121 -0.1300 -0.1281
 1721TIP3    H126578   0.302   2.620   1.697  1.6726 -0.1697  0.0848
 1721TIP3    H226579   0.347   2.554   1.568 -2.0935 -0.6609 -1.1052
 1722TIP3   OH226580   2.713   0.770   1.680  0.2123  0.4702 -0.1647
 1722TIP3    H126581   2.720   0.739   1.770  0.6345 -1.5657 -0.8283
 1722TIP3    H226582   2.649   0.841   1.684  1.0115  1.1360  1.8780
 1723TIP3   OH226583   4.520   3.634   5.282  0.1034 -0.0946 -0.4155
 1723TIP3    H126584   4.557   3.549   5.259 -0.0826  0.0821 -1.3858
 1723TIP3    H226585   4.462   3.616   5.356  1.5067 -0.5052  0.6536
 1724TIP3   OH226586   0.390   0.246   5.517  0.1666 -0.2740 -0.1390
 1724TIP3    H126587   0.397   0.328   5.468  0.8135 -0.1706  0.1161
 1724TIP3    H226588   0.421   0.267   5.605  0.0441 -0.7172  0.0157
 1725TIP3   OH226589   5.895   3.257   1.207 -0.4676 -0.0289  0.3763
 1725TIP3    H126590   5.819   3.315   1.197 -1.8157 -1.6754  0.5979
 1725TIP3    H226591   5.910   3.253   1.301 -0.0192  0.3791  0.3264
 1726TIP3   OH226592   4.447   5.158   3.959  0.1691 -0.2026  0.4787
 1726TIP3    H126593   4.514   5.217   3.993  0.9198 -0.6542 -0.1805
 1726TIP3    H226594   4.479   5.070   3.981  0.4469 -0.4831 -0.9629
 1727TIP3   OH226595   6.531   2.250  16.521 -0.2123 -0.1764  0.3857
 1727TIP3    H126596   6.540   2.226  16.429 -1.4596 -0.0844  0.2134
 1727TIP3    H226597   6.469   2.186  16.556 -0.7193  0.5472  0.8433
 1728TIP3   OH226598   4.383   1.903  13.273  0.1382 -0.8970 -0.4467
 1728TIP3    H126599   4.344   1.822  13.242 -1.6613 -0.3894  0.3024
 1728TIP3    H226600   4.439   1.933  13.202  0.1218 -2.3275 -1.0767
 1729TIP3   OH226601   6.725   2.332  11.369 -0.5259 -0.1312  0.3514
 1729TIP3    H126602   6.763   2.405  11.418  0.0760 -1.5346  2.0993
 1729TIP3    H226603   6.666   2.373  11.307  0.7606  1.9020  0.3826
 1730TIP3   OH226604   4.300   0.628  16.747  0.0101  0.1790 -0.2695
 1730TIP3    H126605   4.306   0.698  16.682 -1.8990 -0.0654 -0.7582
 1730TIP3    H226606   4.390   0.615  16.777  0.6198  1.7529 -1.3123
 1731TIP3   OH226607   6.544   3.346  14.020  0.2183 -0.1931 -0.4571
 1731TIP3    H126608   6.570   3.262  14.056 -0.5018 -0.0012  0.5477
 1731TIP3    H226609   6.597   3.410  14.067 -1.0876  0.0997  0.7013
 1732TIP3   OH226610   5.973   0.126   4.232  0.3082  0.0597 -0.0171
 1732TIP3    H126611   5.935   0.082   4.155  0.4320  0.2276 -0.1731
 1732TIP3    H226612   6.064   0.096   4.234 -0.4486 -2.4773  1.8885
 1733TIP3   OH226613   1.753   2.348   0.175  0.0840 -0.1104 -0.2118
 1733TIP3    H126614   1.795   2.343   0.089  0.0680  0.4877 -0.2546
 1733TIP3    H226615   1.733   2.257   0.196  1.2756 -0.3943 -0.2533
 1734TIP3   OH226616   3.865   6.577  17.068 -0.4560  0.0661  0.1473
 1734TIP3    H126617   3.813   6.595  17.146  0.3595 -3.1463  1.6194
 1734TIP3    H226618   3.955   6.598  17.093 -0.0184 -2.1234  0.6163
 1735TIP3   OH226619   2.895   5.424  14.762 -0.1235  0.5713 -0.0134
 1735TIP3    H126620   2.951   5.418  14.684 -1.3244  1.5352 -1.0069
 1735TIP3    H226621   2.882   5.518  14.774 -0.8799  0.3876  0.6767
 1736TIP3   OH226622   0.727   4.891   0.794  0.2659  0.3377  0.2123
 1736TIP3    H126623   0.730   4.807   0.841 -0.0442 -0.5173 -1.2233
 1736TIP3    H226624   0.752   4.956   0.859 -1.8682 -0.5634  2.0630
 1737TIP3   OH226625   5.023   5.526   0.145  0.1455  0.1581  0.1264
 1737TIP3    H126626   5.053   5.602   0.095 -0.3732 -0.2813 -0.8750
 1737TIP3    H226627   4.940   5.501   0.105 -0.3121 -0.1895  1.2441
 1738TIP3   OH226628   0.709   2.318   4.118  0.1220  0.0237 -0.3105
 1738TIP3    H126629   0.680   2.263   4.046  2.9056 -1.1470 -0.6731
 1738TIP3    H226630   0.704   2.407   4.084 -1.4228 -0.2443 -0.8524
 1739TIP3   OH226631   2.216   3.926   5.082  0.2349 -0.0264 -0.2206
 1739TIP3    H126632   2.163   3.869   5.139 -0.9000 -1.7775 -2.7983
 1739TIP3    H226633   2.183   4.014   5.099 -0.8097 -0.6131  1.0245
 1740TIP3   OH226634   6.106   0.082  16.092  0.2453  0.4463  0.4249
 1740TIP3    H126635   6.194   0.049  16.110 -0.5089 -1.5821  0.5763
 1740TIP3    H226636   6.052   0.047  16.162 -0.7199  1.6146  0.2920
 1741TIP3   OH226637   3.141   1.746   4.597  0.1667  0.7169 -0.6519
 1741TIP3    H126638   3.139   1.656   4.564  2.5129  0.4811 -0.3147
 1741TIP3    H226639   3.100   1.798   4.527 -0.1783 -0.4586 -1.3514
 1742TIP3   OH226640   0.577   6.052  15.892 -0.2416  0.2004 -0.7532
 1742TIP3    H126641   0.662   6.095  15.894 -0.9945  1.7530 -0.9399
 1742TIP3    H226642   0.583   5.983  15.959  1.5873 -0.6192 -1.7145
 1743TIP3   OH226643   6.330   1.501   1.490  0.4589  0.5831  0.1110
 1743TIP3    H126644   6.370   1.541   1.414  2.7163  0.8535  1.3497
 1743TIP3    H226645   6.308   1.412   1.462  1.4975  0.5895 -0.7880
 1744TIP3   OH226646   2.448   3.968   6.294  0.1125 -0.0698  0.0896
 1744TIP3    H126647   2.411   4.052   6.266  1.6578  0.4962 -0.3658
 1744TIP3    H226648   2.405   3.903   6.238 -0.0037  0.5894 -0.6124
 1745TIP3   OH226649   3.222   6.559   5.515  0.2546  0.7780 -0.0221
 1745TIP3    H126650   3.230   6.626   5.447 -0.2102 -0.2753 -1.1487
 1745TIP3    H226651   3.278   6.590   5.586  0.3487  2.1641 -0.6654
 1746TIP3   OH226652   0.014   1.825  15.978  0.1764  0.1627 -0.3596
 1746TIP3    H126653  -0.037   1.892  15.932 -0.7259  0.7442  1.3841
 1746TIP3    H226654   0.082   1.875  16.024  0.5322 -0.3001 -0.3825
 1747TIP3   OH226655   4.530   2.616   2.458  0.0485  0.3895  0.1411
 1747TIP3    H126656   4.607   2.601   2.513  0.4156  1.5293 -0.0374
 1747TIP3    H226657   4.456   2.590   2.513  0.5420 -0.6694  0.3313
 1748TIP3   OH226658   1.523   2.427   1.306 -0.0154  0.2056  0.4182
 1748TIP3    H126659   1.445   2.378   1.280  1.1334 -0.6511 -1.6285
 1748TIP3    H226660   1.535   2.405   1.398 -0.1375 -2.5939 -0.1380
 1749TIP3   OH226661   0.747   5.525  11.353 -0.2595 -0.0023 -0.5408
 1749TIP3    H126662   0.673   5.557  11.405  0.2352 -1.1658  0.9723
 1749TIP3    H226663   0.805   5.484  11.418  0.6185 -1.1007 -1.9695
 1750TIP3   OH226664   0.235   5.164   5.652  0.4364 -0.2841 -0.0202
 1750TIP3    H126665   0.180   5.135   5.725 -0.5220  0.8828 -0.2271
 1750TIP3    H226666   0.174   5.211   5.594  1.3910 -0.2119 -0.9984
 1751TIP3   OH226667   1.829   1.503   4.674  0.8682 -0.3577  0.5398
 1751TIP3    H126668   1.863   1.480   4.761  1.4133 -2.7395 -0.2390
 1751TIP3    H226669   1.901   1.481   4.614 -0.3240 -0.9382 -0.7180
 1752TIP3   OH226670   1.556   4.782   5.519  0.3128 -0.0524 -0.4362
 1752TIP3    H126671   1.635   4.767   5.570 -0.0690  1.1901  0.5886
 1752TIP3    H226672   1.514   4.697   5.514  0.1419 -0.1649  1.7436
 1753TIP3   OH226673   6.341   2.464   4.044 -0.3322 -0.6103  0.0583
 1753TIP3    H126674   6.314   2.541   3.993 -0.4447 -0.1078  0.8502
 1753TIP3    H226675   6.434   2.477   4.058  0.4255 -2.3284 -2.6422
 1754TIP3   OH226676   1.438   3.815   2.827 -0.5487 -0.1996 -0.2844
 1754TIP3    H126677   1.436   3.910   2.836 -1.2102 -0.2738  0.3753
 1754TIP3    H226678   1.440   3.800   2.732  0.5726  0.4800 -0.3857
 1755TIP3   OH226679   0.560   0.097   2.014 -0.5636 -0.4868  0.4008
 1755TIP3    H126680   0.632   0.039   1.990  0.1355 -0.0876  1.4223
 1755TIP3    H226681   0.510   0.047   2.079 -1.4583 -0.9134 -0.5870
 1756TIP3   OH226682   6.659   5.750  14.091 -0.1180  0.1357 -0.7330
 1756TIP3    H126683   6.570   5.724  14.115  0.4080 -1.1972 -0.0495
 1756TIP3    H226684   6.670   5.720  14.001 -0.3977  0.3794 -0.8448
 1757TIP3   OH226685   2.821   5.257   0.510 -0.1975  0.3627  0.4196
 1757TIP3    H126686   2.739   5.240   0.556  1.5033  0.2020  3.7143
 1757TIP3    H226687   2.865   5.172   0.507  1.4345  1.0468  2.3356
 1758TIP3   OH226688   5.571   6.151   1.309 -0.5018 -0.9094 -0.6287
 1758TIP3    H126689   5.480   6.125   1.296 -0.8684 -2.0336  3.1200
 1758TIP3    H226690   5.566   6.227   1.367  0.9446 -1.7263  0.6282
 1759TIP3   OH226691   5.844   3.697  12.936  0.3458 -0.1360  0.0783
 1759TIP3    H126692   5.825   3.604  12.924 -0.3632  0.0103  0.0248
 1759TIP3    H226693   5.917   3.699  12.999  1.7877 -0.7779 -1.5024
 1760TIP3   OH226694   3.403   3.482  13.806 -0.3199 -0.5096 -0.0414
 1760TIP3    H126695   3.347   3.453  13.735  1.1420 -2.3748 -0.5149
 1760TIP3    H226696   3.488   3.442  13.788  0.4758  0.0816  2.0152
 1761TIP3   OH226697   6.294   0.718   3.251  0.3304  0.1407  1.0522
 1761TIP3    H126698   6.311   0.717   3.157 -1.4292 -2.1151  0.6834
 1761TIP3    H226699   6.249   0.802   3.266 -1.0301 -0.2602 -0.4946
 1762TIP3   OH226700   6.229   6.162  13.119 -0.3723  0.1389  0.2341
 1762TIP3    H126701   6.193   6.227  13.059 -0.2804  0.4072  0.4681
 1762TIP3    H226702   6.323   6.180  13.121 -0.0906 -1.0270 -0.9479
 1763TIP3   OH226703   4.579   6.089  11.495  0.0875 -0.0185 -0.3923
 1763TIP3    H126704   4.529   6.126  11.422 -1.4670  0.6901  0.9675
 1763TIP3    H226705   4.617   6.008  11.459 -1.8053 -0.4561 -1.5890
 1764TIP3   OH226706   0.121   2.549  13.747  0.1295  0.0365  0.3449
 1764TIP3    H126707   0.126   2.641  13.723  0.8681 -0.6476 -2.5388
 1764TIP3    H226708   0.044   2.542  13.803 -1.2990  2.0670 -1.2347
 1765TIP3   OH226709   4.007   0.731  16.558  0.1846  0.1038 -0.1699
 1765TIP3    H126710   4.072   0.783  16.605  2.3715 -0.9188 -1.9102
 1765TIP3    H226711   3.959   0.685  16.626 -0.0228  2.2780  1.2631
 1766TIP3   OH226712   1.372   0.655   1.691 -0.2371  0.1685 -0.1048
 1766TIP3    H126713   1.380   0.745   1.725  0.5540 -0.4150  1.3864
 1766TIP3    H226714   1.372   0.600   1.770 -2.5234 -1.0655 -0.8918
 1767TIP3   OH226715   2.672   5.478  17.047  0.1979  0.1755 -0.6672
 1767TIP3    H126716   2.608   5.507  16.983  0.1455 -1.0918 -1.2142
 1767TIP3    H226717   2.742   5.438  16.995  0.2541 -0.6760  0.0486
 1768TIP3   OH226718   2.752   4.645   2.233 -0.4982 -0.0747 -0.3589
 1768TIP3    H126719   2.723   4.695   2.157  0.2516  0.4696 -0.3049
 1768TIP3    H226720   2.813   4.581   2.198  1.4281  1.4792 -0.0331
 1769TIP3   OH226721   0.102   3.698  14.261  0.1017  0.3498  0.0558
 1769TIP3    H126722   0.159   3.766  14.224  0.4926 -0.6606 -1.2481
 1769TIP3    H226723   0.041   3.676  14.190 -3.2001  2.6132  1.8749
 1770TIP3   OH226724   0.035   5.166  16.033 -0.6323 -0.0425  0.0814
 1770TIP3    H126725   0.025   5.225  15.958 -1.3688 -1.0395 -0.6305
 1770TIP3    H226726  -0.054   5.140  16.055 -0.3517 -0.4832  0.7133
 1771TIP3   OH226727   0.020   6.164   4.266  0.3781  0.3181  0.2930
 1771TIP3    H126728  -0.025   6.195   4.345 -0.7172 -1.2801  0.3423
 1771TIP3    H226729   0.112   6.185   4.282 -0.1469  2.5014  0.7645
 1772TIP3   OH226730   4.031   4.963  15.348  0.0687  0.7227  0.0068
 1772TIP3    H126731   3.996   5.030  15.289 -0.4830  0.3662 -0.0778
 1772TIP3    H226732   4.058   5.012  15.425  1.8421  1.3428 -0.9595
 1773TIP3   OH226733   2.720   1.810  13.758  0.4198  0.1993 -0.9983
 1773TIP3    H126734   2.629   1.791  13.736  0.7716 -1.3690 -1.2791
 1773TIP3    H226735   2.756   1.850  13.679 -0.1526  1.3569 -0.6894
 1774TIP3   OH226736   5.735   0.796   5.820 -0.1134  0.4036 -0.1472
 1774TIP3    H126737   5.778   0.786   5.735  0.1421  0.5096 -0.0283
 1774TIP3    H226738   5.643   0.813   5.798 -0.8133 -3.0064 -0.4054
 1775TIP3   OH226739   0.350   2.677  14.990  0.7627  0.0102 -0.5277
 1775TIP3    H126740   0.293   2.751  14.968  0.4911 -0.6775 -2.3169
 1775TIP3    H226741   0.378   2.695  15.080 -2.0312  0.5350  0.3428
 1776TIP3   OH226742   3.816   6.133   4.204  0.3316 -0.8349 -0.2000
 1776TIP3    H126743   3.822   6.106   4.113 -1.3064  0.8133 -0.8651
 1776TIP3    H226744   3.744   6.082   4.240 -0.1870 -0.2331 -0.3578
 1777TIP3   OH226745   1.808   5.387  15.546 -0.4355  0.5209 -0.3804
 1777TIP3    H126746   1.769   5.462  15.501 -1.5079  1.5660  2.1007
 1777TIP3    H226747   1.758   5.379  15.628  0.3911 -2.2173 -0.0274
 1778TIP3   OH226748   5.956   3.453   5.610 -0.2299  0.3412 -0.2742
 1778TIP3    H126749   5.978   3.394   5.683 -0.8257  1.6702  1.0410
 1778TIP3    H226750   5.933   3.395   5.538 -0.2709 -1.0342  0.8023
 1779TIP3   OH226751   4.976   6.360   5.719  0.1412  0.1892 -0.3445
 1779TIP3    H126752   4.953   6.450   5.743  0.7087  1.0716 -2.7929
 1779TIP3    H226753   4.966   6.357   5.624 -0.7886 -2.6445 -0.2664
 1780TIP3   OH226754   4.889   5.459   2.754  0.2471 -0.0395 -0.7074
 1780TIP3    H126755   4.832   5.405   2.700 -0.5609  2.1372 -2.1822
 1780TIP3    H226756   4.970   5.408   2.762 -0.2801 -1.2257 -2.4306
 1781TIP3   OH226757   0.996   5.950  13.123  0.0555  0.7927  0.5606
 1781TIP3    H126758   1.032   5.953  13.211  0.4240  0.5257  0.4221
 1781TIP3    H226759   1.005   6.040  13.090  1.6835  0.4972  0.1042
 1782TIP3   OH226760   6.651   4.808   3.260 -0.1969 -0.4107  0.6039
 1782TIP3    H126761   6.681   4.849   3.341 -0.0503 -0.7357  0.7153
 1782TIP3    H226762   6.564   4.775   3.281 -0.6522  0.5379  0.2780
 1783TIP3   OH226763   1.885   4.069  14.378  0.5118  0.5370 -0.4095
 1783TIP3    H126764   1.791   4.048  14.381  0.5905  0.1869  2.2503
 1783TIP3    H226765   1.890   4.161  14.401  0.7910  0.9315 -1.9333
 1784TIP3   OH226766   3.373   2.408   2.508 -0.0505 -0.1555 -1.0101
 1784TIP3    H126767   3.453   2.390   2.558 -0.5584  2.3119  0.9016
 1784TIP3    H226768   3.310   2.345   2.542 -0.0068  0.6009  0.6195
 1785TIP3   OH226769   2.248   6.176  12.064  0.2070 -0.1614 -0.2408
 1785TIP3    H126770   2.264   6.237  11.992  0.1264 -1.5153 -1.4709
 1785TIP3    H226771   2.204   6.228  12.131  2.0259  1.6001 -0.3330
 1786TIP3   OH226772   0.468   4.802   0.072 -0.3519  0.4447 -0.4773
 1786TIP3    H126773   0.507   4.865   0.012  0.6610  0.8592  0.5742
 1786TIP3    H226774   0.529   4.729   0.073 -1.5666 -0.6472 -1.7659
 1787TIP3   OH226775   5.902   1.909   5.485 -0.0842  0.1503 -0.3024
 1787TIP3    H126776   5.863   1.867   5.408 -1.0635 -1.0154  0.7891
 1787TIP3    H226777   5.981   1.951   5.451  0.2348 -1.4563 -1.7244
 1788TIP3   OH226778   5.382   1.673  15.802  0.5022  0.2797 -0.0834
 1788TIP3    H126779   5.338   1.672  15.887  1.3650  1.0599  0.3914
 1788TIP3    H226780   5.343   1.600  15.754 -1.5954  1.1886  0.1462
 1789TIP3   OH226781   6.255   4.007   3.341  0.1338 -0.4189  0.4775
 1789TIP3    H126782   6.174   3.981   3.297  0.3377 -1.3760  0.6424
 1789TIP3    H226783   6.270   3.939   3.406 -0.5544  1.3257  2.5832
 1790TIP3   OH226784   2.477   4.538  13.740 -0.3979 -0.5628 -0.2345
 1790TIP3    H126785   2.524   4.512  13.819  0.0225  0.9165  0.0281
 1790TIP3    H226786   2.387   4.512  13.756 -0.3200 -0.2537  0.7500
 1791TIP3   OH226787   3.133   0.092   6.204 -0.3454 -0.4488  0.1267
 1791TIP3    H126788   3.136   0.016   6.146 -0.3513  0.5860 -1.2883
 1791TIP3    H226789   3.208   0.081   6.262  0.3172 -0.9707 -0.8068
 1792TIP3   OH226790   0.246   1.336   3.823  0.3812  0.6203 -0.0860
 1792TIP3    H126791   0.262   1.282   3.900 -0.0982  1.9621  1.0144
 1792TIP3    H226792   0.250   1.276   3.749 -1.4841 -1.1965  1.1686
 1793TIP3   OH226793   3.310   4.666   5.782  0.0240 -0.7406 -0.1630
 1793TIP3    H126794   3.320   4.695   5.873  0.8985 -0.5714 -0.3033
 1793TIP3    H226795   3.376   4.715   5.734  1.9055 -3.2166 -0.3389
 1794TIP3   OH226796   3.541   0.670   2.196 -0.0641  0.2649  0.1429
 1794TIP3    H126797   3.489   0.665   2.276  1.2215 -0.9967  0.9594
 1794TIP3    H226798   3.549   0.579   2.167 -0.0526  0.6541 -1.1250
 1795TIP3   OH226799   2.535   2.329   5.615 -0.4576 -0.2148 -0.2695
 1795TIP3    H126800   2.603   2.397   5.612 -1.5994  0.9481 -0.6611
 1795TIP3    H226801   2.456   2.373   5.584 -1.6993 -1.1676  1.3765
 1796TIP3   OH226802   2.220   0.117   5.379  0.0175  0.3235 -0.2500
 1796TIP3    H126803   2.250   0.066   5.304 -0.6784  1.0881 -1.0736
 1796TIP3    H226804   2.299   0.136   5.430  0.4664 -0.3576 -0.6942
 1797TIP3   OH226805   3.305   6.164  12.143 -0.7182  0.2302  1.0180
 1797TIP3    H126806   3.304   6.252  12.105 -1.0237  0.2931  1.1627
 1797TIP3    H226807   3.254   6.111  12.082 -0.2955  0.0889  0.7859
 1798TIP3   OH226808   6.580   4.588  14.860 -0.9369  0.3512 -0.3706
 1798TIP3    H126809   6.610   4.530  14.929 -1.0345  1.5353  0.7153
 1798TIP3    H226810   6.522   4.534  14.806  0.5196 -1.0662 -0.5780
 1799TIP3   OH226811   2.133   1.917   0.363 -0.3416  0.3682 -0.9292
 1799TIP3    H126812   2.118   1.823   0.352  0.0385  0.1362  0.4304
 1799TIP3    H226813   2.054   1.958   0.328 -0.0864 -0.3889 -2.5060
 1800TIP3   OH226814   3.903   4.192  13.869  0.0226 -0.4867 -0.7794
 1800TIP3    H126815   3.900   4.210  13.775  1.1749 -0.8475 -0.9009
 1800TIP3    H226816   3.972   4.127  13.879 -0.2445 -0.6276  0.2977
 1801TIP3   OH226817   1.728   6.093  15.089  0.1604  0.1872  0.1965
 1801TIP3    H126818   1.674   6.160  15.132  1.4290  0.0579  2.1126
 1801TIP3    H226819   1.757   6.037  15.161  2.2604 -0.1646 -0.8716
 1802TIP3   OH226820   3.960   1.089  16.792  0.2039  0.0753  0.3832
 1802TIP3    H126821   4.031   1.046  16.840  0.4154 -0.8003 -0.6644
 1802TIP3    H226822   3.880   1.058  16.834  0.3737 -1.0665 -0.0928
 1803TIP3   OH226823   5.684   0.957   5.416 -0.1732 -0.1653 -0.8421
 1803TIP3    H126824   5.655   0.877   5.373  0.7934 -1.6690  1.1100
 1803TIP3    H226825   5.604   0.993   5.456 -0.1653 -1.9395  0.9189
 1804TIP3   OH226826   0.465   3.134   5.040  0.2350 -0.2551  0.3318
 1804TIP3    H126827   0.391   3.078   5.065  1.0772 -1.8079 -0.5366
 1804TIP3    H226828   0.477   3.118   4.946  1.3593  0.3591  0.3542
 1805TIP3   OH226829   4.464   4.863   0.703  0.7425  0.0647 -0.0477
 1805TIP3    H126830   4.547   4.839   0.663  0.4989 -2.2931  0.6727
 1805TIP3    H226831   4.469   4.826   0.791 -0.8495  0.3456  0.1888
 1806TIP3   OH226832   2.505   5.705  14.285 -0.4949  0.6367  0.7987
 1806TIP3    H126833   2.471   5.780  14.237  0.0844  0.0952 -0.5121
 1806TIP3    H226834   2.594   5.693  14.252 -0.8432 -1.0924  0.3886
 1807TIP3   OH226835   6.367   6.341  14.270 -0.0284  0.3426 -0.3116
 1807TIP3    H126836   6.427   6.385  14.329 -0.9392 -0.6960  1.4870
 1807TIP3    H226837   6.334   6.410  14.212 -0.8737  1.9305  1.9386
 1808TIP3   OH226838   0.056   0.621  14.719 -0.0349 -0.9330  0.0840
 1808TIP3    H126839   0.014   0.574  14.648 -1.9730 -0.8272  1.0965
 1808TIP3    H226840   0.021   0.581  14.799  0.2865  0.4651  0.9715
 1809TIP3   OH226841   6.188   4.695  16.415  0.2676 -0.2068 -0.0902
 1809TIP3    H126842   6.135   4.651  16.348 -2.8126 -2.1956  3.2813
 1809TIP3    H226843   6.236   4.624  16.457 -0.7286  0.3029  2.0741
 1810TIP3   OH226844   0.549   2.437   2.593 -0.2046 -0.3556 -0.5377
 1810TIP3    H126845   0.595   2.502   2.646  2.0524 -1.7226 -0.7115
 1810TIP3    H226846   0.483   2.400   2.652  0.2431  0.2463  0.3559
 1811TIP3   OH226847   0.904   2.175   5.600 -0.1754 -0.1585  0.2866
 1811TIP3    H126848   0.990   2.143   5.572  0.0694  0.4149  0.3688
 1811TIP3    H226849   0.922   2.235   5.672 -0.3861  1.9566 -1.3013
 1812TIP3   OH226850   1.838   6.359   1.838 -0.0109  0.2041 -0.9268
 1812TIP3    H126851   1.819   6.402   1.754 -2.1479 -1.6402 -1.5058
 1812TIP3    H226852   1.769   6.389   1.896  0.0581 -0.3675 -0.5442
 1813TIP3   OH226853   1.378   0.539  14.521 -0.3380  0.0054  0.6044
 1813TIP3    H126854   1.387   0.500  14.434 -0.5846 -1.5275  1.2337
 1813TIP3    H226855   1.466   0.571  14.542  0.7566 -3.2248  1.4096
 1814TIP3   OH226856   2.136   6.403   5.830 -0.1071 -0.3961  0.4742
 1814TIP3    H126857   2.209   6.359   5.786  0.3019 -0.1049  0.8442
 1814TIP3    H226858   2.145   6.378   5.922  0.6097  1.0621  0.8337
 1815TIP3   OH226859   3.118   0.260  12.761  0.3772  0.2297 -0.4446
 1815TIP3    H126860   3.056   0.233  12.828 -0.9395  1.7221 -1.0006
 1815TIP3    H226861   3.072   0.328  12.711  2.1380  0.7670 -1.4374
 1816TIP3   OH226862   5.400   3.178   3.700  0.1322 -0.1956 -0.0350
 1816TIP3    H126863   5.467   3.110   3.696 -0.1687 -0.6694  2.0283
 1816TIP3    H226864   5.326   3.137   3.744 -0.8409  0.8712 -0.6252
 1817TIP3   OH226865   4.903   0.735  13.036 -0.1556 -0.3652 -0.0937
 1817TIP3    H126866   4.958   0.702  12.964 -1.1297 -0.7990 -0.6677
 1817TIP3    H226867   4.814   0.713  13.009 -0.5839 -0.0163  0.9940
 1818TIP3   OH226868   2.444   4.294   5.390 -0.0049 -0.3749  0.3718
 1818TIP3    H126869   2.431   4.216   5.336  2.9690 -0.4279 -0.4831
 1818TIP3    H226870   2.388   4.280   5.466 -1.4540 -2.1352 -0.9186
 1819TIP3   OH226871   1.425   0.143  13.795  0.5348 -0.3857 -0.0910
 1819TIP3    H126872   1.337   0.105  13.799  0.3884  0.0617  1.3404
 1819TIP3    H226873   1.412   0.236  13.812  1.1736 -0.0951 -1.0688
 1820TIP3   OH226874   2.224   6.586  15.925  0.0490 -0.1261 -0.2458
 1820TIP3    H126875   2.237   6.676  15.895 -2.0787  0.2746 -0.1564
 1820TIP3    H226876   2.238   6.532  15.847 -3.4658  0.7524 -1.6909
 1821TIP3   OH226877   4.784   6.125   0.856 -0.5172  0.3002 -0.9434
 1821TIP3    H126878   4.756   6.042   0.818 -0.4880 -0.8260  1.3566
 1821TIP3    H226879   4.879   6.125   0.848 -0.6628  1.6660 -3.8585
 1822TIP3   OH226880   0.147   1.982   3.520  0.4547  0.2930  0.1329
 1822TIP3    H126881   0.213   1.921   3.486  0.5801  0.6066 -0.1866
 1822TIP3    H226882   0.078   1.982   3.454  0.4422  0.4814  0.1467
 1823TIP3   OH226883   6.374   2.740   1.804 -0.6862  0.2005 -0.5484
 1823TIP3    H126884   6.464   2.730   1.834 -0.6420 -1.4241 -1.1193
 1823TIP3    H226885   6.342   2.650   1.795 -2.0811  0.7364 -1.1972
 1824TIP3   OH226886   6.113   4.411   1.804  0.0989  0.2607 -0.1902
 1824TIP3    H126887   6.095   4.364   1.723  1.1136  0.5281 -0.5914
 1824TIP3    H226888   6.164   4.350   1.856 -2.0874 -0.6089  1.0665
 1825TIP3   OH226889   6.229   1.583  14.975 -0.0131  0.3789  0.1343
 1825TIP3    H126890   6.276   1.551  15.052  1.1347 -1.2464 -1.1586
 1825TIP3    H226891   6.229   1.509  14.915 -1.8656  1.2390 -1.0208
 1826TIP3   OH226892   1.468   1.445   1.444 -0.3138  0.1758 -0.1561
 1826TIP3    H126893   1.414   1.522   1.428  1.0716  1.0611 -0.7735
 1826TIP3    H226894   1.462   1.431   1.539 -0.9957  0.7032 -0.1097
 1827TIP3   OH226895   2.362   1.804  15.326 -0.5784  0.4787 -0.1558
 1827TIP3    H126896   2.269   1.786  15.329 -0.9217  1.9569 -0.8935
 1827TIP3    H226897   2.385   1.799  15.233  0.1783 -0.2645  0.0525
 1828TIP3   OH226898   0.787   4.014  11.852 -0.4130 -0.2916  0.1173
 1828TIP3    H126899   0.770   3.999  11.945 -0.8663  1.0436  0.2709
 1828TIP3    H226900   0.719   3.964  11.807 -1.7566  1.0386  0.5973
 1829TIP3   OH226901   5.894   2.470  12.119 -0.2170  0.8342 -0.2168
 1829TIP3    H126902   5.973   2.470  12.174 -0.7649  1.7748  0.5889
 1829TIP3    H226903   5.925   2.437  12.034  0.5124 -1.2787  0.7880
 1830TIP3   OH226904   2.401   3.164   0.376 -0.9709 -0.0586 -0.1950
 1830TIP3    H126905   2.406   3.087   0.319  0.2828  0.0673 -0.2835
 1830TIP3    H226906   2.491   3.196   0.380 -1.4021  1.1370  0.2161
 1831TIP3   OH226907   0.464   0.259   0.287 -0.0843 -0.0932 -0.2138
 1831TIP3    H126908   0.553   0.229   0.272  0.2601  0.4714  0.6556
 1831TIP3    H226909   0.410   0.181   0.272  0.6535 -0.7494  0.4397
 1832TIP3   OH226910   4.648   0.750  10.487 -0.2591 -0.3986  0.1122
 1832TIP3    H126911   4.579   0.710  10.540  0.6906 -1.2128  0.7369
 1832TIP3    H226912   4.645   0.702  10.404  0.1552 -1.0265  0.4631
 1833TIP3   OH226913   6.617   5.657   5.061 -0.3666 -0.1498  0.3189
 1833TIP3    H126914   6.675   5.733   5.066 -0.1614 -0.3721  3.1788
 1833TIP3    H226915   6.647   5.609   4.984  1.3823  1.1846  0.0882
 1834TIP3   OH226916   0.238   3.047   5.740 -0.0335 -0.4581 -0.3444
 1834TIP3    H126917   0.274   3.067   5.827 -0.1136 -0.4582 -0.3115
 1834TIP3    H226918   0.288   2.970   5.711 -0.4268 -0.8294 -0.0391
 1835TIP3   OH226919   3.230   2.738   4.418 -0.0649 -0.3788  0.1386
 1835TIP3    H126920   3.207   2.646   4.424  1.3743 -0.7955 -0.4545
 1835TIP3    H226921   3.308   2.747   4.473 -0.3273  0.5422  0.3811
 1836TIP3   OH226922   0.756   2.392   2.390 -0.1792 -0.3679 -0.2697
 1836TIP3    H126923   0.700   2.375   2.314  0.0309 -1.2361 -0.2355
 1836TIP3    H226924   0.695   2.415   2.460 -0.3271  1.3121 -0.9080
 1837TIP3   OH226925   0.347   1.590  13.638 -0.6027 -0.3920 -0.5421
 1837TIP3    H126926   0.267   1.539  13.650 -0.0180 -0.8962  1.6380
 1837TIP3    H226927   0.357   1.638  13.721  0.5945  0.7717 -1.3284
 1838TIP3   OH226928   3.270   3.148  14.597  0.1802 -0.6826  0.0410
 1838TIP3    H126929   3.342   3.133  14.536  0.9758  1.1770  0.4687
 1838TIP3    H226930   3.241   3.237  14.579 -1.4612 -1.1023  0.4772
 1839TIP3   OH226931   0.367   0.925   3.631  0.6642 -0.2701  0.2285
 1839TIP3    H126932   0.369   0.897   3.540  3.0082 -0.4635  0.2727
 1839TIP3    H226933   0.383   0.845   3.681 -2.0783 -0.4566  0.9689
 1840TIP3   OH226934   3.674   5.685   0.307  0.0973 -0.0889 -0.0393
 1840TIP3    H126935   3.715   5.599   0.317  0.8959  0.1758 -0.9170
 1840TIP3    H226936   3.640   5.686   0.218  0.4137  0.6326 -0.1581
 1841TIP3   OH226937   3.018   1.879  17.060 -0.1459 -0.0255 -0.0302
 1841TIP3    H126938   3.025   1.954  17.120  1.2034 -0.3387  0.2336
 1841TIP3    H226939   3.028   1.803  17.117 -0.0595 -0.3617 -0.4900
 1842TIP3   OH226940   4.537   4.034  16.199 -0.3936 -0.3890  0.5979
 1842TIP3    H126941   4.504   4.071  16.117 -1.2843  0.1675  1.1851
 1842TIP3    H226942   4.623   4.073  16.211 -0.5343  0.0290  0.2451
 1843TIP3   OH226943   4.875   1.283  13.287  0.6250  0.0766  0.1401
 1843TIP3    H126944   4.800   1.225  13.296  0.5417 -0.0542 -1.1793
 1843TIP3    H226945   4.851   1.362  13.335 -0.7230  0.3865 -1.0026
 1844TIP3   OH226946   2.094   2.706   4.820 -0.8396  0.1014  0.1190
 1844TIP3    H126947   2.010   2.749   4.807  0.5894  3.8782  2.0381
 1844TIP3    H226948   2.140   2.717   4.737 -1.0717  0.9999  0.0981
 1845TIP3   OH226949   5.254   0.368   1.777  0.7304  0.1172  0.1658
 1845TIP3    H126950   5.349   0.365   1.765  0.6539 -1.4511 -0.3927
 1845TIP3    H226951   5.237   0.308   1.850  0.1357 -0.0221 -0.0748
 1846TIP3   OH226952   4.830   4.676   1.366  0.1186  0.5453 -0.1108
 1846TIP3    H126953   4.757   4.625   1.330  0.0625  1.1053 -0.8249
 1846TIP3    H226954   4.862   4.624   1.439 -0.8711  0.1967  0.0922
 1847TIP3   OH226955   6.347   2.413   2.111 -0.3621 -0.0937 -0.3800
 1847TIP3    H126956   6.350   2.428   2.016 -1.3017 -0.6683 -0.5121
 1847TIP3    H226957   6.336   2.501   2.148  0.3074  0.1685 -0.7825
 1848TIP3   OH226958   4.868   3.088   5.485 -0.8489 -0.5578  0.0252
 1848TIP3    H126959   4.866   3.158   5.420 -0.1811 -0.6061 -0.0583
 1848TIP3    H226960   4.951   3.043   5.469 -0.9626 -0.9506  0.5128
 1849TIP3   OH226961   6.531   4.857   6.793 -0.0968 -0.1844  0.5104
 1849TIP3    H126962   6.530   4.762   6.808 -1.4744  0.0540  2.1856
 1849TIP3    H226963   6.496   4.868   6.705 -1.4478 -1.1699  0.8922
 1850TIP3   OH226964   3.810   2.127  16.178 -0.5510 -0.2035 -0.0921
 1850TIP3    H126965   3.784   2.202  16.232 -0.0043  0.0938 -0.2295
 1850TIP3    H226966   3.749   2.128  16.104  0.0343  0.6852 -0.5840
 1851TIP3   OH226967   5.991   4.008  10.782  0.0223  0.7719  0.3524
 1851TIP3    H126968   5.916   4.020  10.724 -1.1055 -1.9463  1.0884
 1851TIP3    H226969   5.957   3.954  10.854  2.4365  0.3143  1.2347
 1852TIP3   OH226970   1.909   2.122   3.469  0.6761  0.2131  0.1121
 1852TIP3    H126971   1.863   2.102   3.387  1.3676  0.6788 -0.3994
 1852TIP3    H226972   1.845   2.103   3.538  0.0119  0.0268 -0.5468
 1853TIP3   OH226973   3.591   2.423  14.942 -0.6684  0.5773  0.7638
 1853TIP3    H126974   3.634   2.341  14.963 -1.5799  0.2973  1.6338
 1853TIP3    H226975   3.657   2.490  14.961 -0.4318  0.1355  1.5936
 1854TIP3   OH226976   0.004   3.491   0.754  0.3071 -0.4040 -0.2757
 1854TIP3    H126977  -0.079   3.457   0.788 -1.2353  2.1389 -1.2414
 1854TIP3    H226978  -0.006   3.489   0.659  1.9241 -1.2732 -0.4662
 1855TIP3   OH226979   3.477   2.732   2.335 -0.5393 -0.2628 -0.4732
 1855TIP3    H126980   3.405   2.673   2.356  1.1163 -1.7393  1.5228
 1855TIP3    H226981   3.556   2.678   2.344  0.9170  1.5588 -1.3992
 1856TIP3   OH226982   3.358   4.807  16.676  0.5438  0.8490  0.3483
 1856TIP3    H126983   3.335   4.717  16.655  1.4582  0.8812 -0.8863
 1856TIP3    H226984   3.404   4.801  16.760 -1.0282  0.4149  1.2080
 1857TIP3   OH226985   3.874   6.062   5.400  0.0657  0.1797 -0.3037
 1857TIP3    H126986   3.967   6.074   5.422 -0.1754  2.4758 -0.2283
 1857TIP3    H226987   3.874   6.055   5.304  0.2956  0.9506 -0.3742
 1858TIP3   OH226988   0.297   5.255   1.051 -0.3282 -0.5647 -0.0012
 1858TIP3    H126989   0.213   5.299   1.066 -0.4343 -0.5117 -0.7173
 1858TIP3    H226990   0.320   5.217   1.136 -1.8521 -1.9188 -0.1466
 1859TIP3   OH226991   6.017   4.883  13.223 -0.1948 -0.1474  0.4810
 1859TIP3    H126992   6.048   4.933  13.147  0.0363  0.3052  0.8696
 1859TIP3    H226993   5.989   4.799  13.186  0.8619 -0.3134  0.0142
 1860TIP3   OH226994   6.475   3.648   4.201  0.0779 -0.8854  0.1606
 1860TIP3    H126995   6.401   3.684   4.152  0.4523  1.3260  1.0902
 1860TIP3    H226996   6.532   3.611   4.134 -0.1212  0.7492 -0.9816
 1861TIP3   OH226997   6.207   6.653  10.331 -0.2697  0.0364 -0.1684
 1861TIP3    H126998   6.297   6.687  10.324 -0.1007 -0.2381  0.5332
 1861TIP3    H226999   6.152   6.732  10.331  0.0060  0.2326 -0.0933
 1862TIP3   OH227000   0.807   5.475  16.930  0.2372  0.6019  0.2197
 1862TIP3    H127001   0.781   5.396  16.883  1.3407  0.7080 -0.6269
 1862TIP3    H227002   0.725   5.518  16.953 -0.3574  0.1469 -0.9618
 1863TIP3   OH227003   2.280   2.557  17.047 -0.2876  0.2656 -0.0690
 1863TIP3    H127004   2.206   2.513  17.090  0.4058 -0.4738  0.4005
 1863TIP3    H227005   2.239   2.617  16.985 -1.2828 -0.4751 -0.1683
 1864TIP3   OH227006   1.417   4.794  14.991  0.2614 -0.4398  0.6633
 1864TIP3    H127007   1.323   4.779  14.999  0.1436  0.1721  0.4696
 1864TIP3    H227008   1.437   4.860  15.057  0.2831  0.5253 -0.2975
 1865TIP3   OH227009   2.746   2.393  14.441  0.0875 -0.4184  0.5738
 1865TIP3    H127010   2.716   2.327  14.378  0.1845 -0.1780  0.2772
 1865TIP3    H227011   2.707   2.475  14.410  0.1069 -0.3061  0.8468
 1866TIP3   OH227012   1.438   5.466  11.814 -0.0494 -0.3109 -0.4857
 1866TIP3    H127013   1.366   5.503  11.762  0.3759  1.9384  0.4029
 1866TIP3    H227014   1.513   5.521  11.794  0.7136 -0.8574  0.7462
 1867TIP3   OH227015   3.911   5.147   5.323  0.4305 -0.0572  0.2081
 1867TIP3    H127016   3.860   5.102   5.256 -1.8298  0.2589  1.6332
 1867TIP3    H227017   4.002   5.131   5.298 -0.2812  0.2054 -3.0179
 1868TIP3   OH227018   4.771   5.597   0.964 -0.4823 -0.2950  0.0620
 1868TIP3    H127019   4.854   5.641   0.944 -1.0262  0.8434  0.2259
 1868TIP3    H227020   4.780   5.510   0.924  0.5768  0.0001 -0.3897
 1869TIP3   OH227021   4.221   5.496   4.274 -0.0709 -0.1712 -0.3356
 1869TIP3    H127022   4.160   5.520   4.204 -0.0308 -0.6634 -0.5384
 1869TIP3    H227023   4.308   5.503   4.235  0.0017  0.3331 -0.1018
 1870TIP3   OH227024   4.131   6.751   1.067 -0.4066  0.6995 -0.7137
 1870TIP3    H127025   4.134   6.847   1.064  0.6221  0.6642 -1.6494
 1870TIP3    H227026   4.067   6.731   1.135 -0.8541  2.0483 -0.7050
 1871TIP3   OH227027   4.677   1.820  16.960  0.2687  0.6036 -0.6693
 1871TIP3    H127028   4.759   1.856  16.994  0.9139 -0.5193 -0.9812
 1871TIP3    H227029   4.616   1.894  16.960  0.6249  0.9651  1.6063
 1872TIP3   OH227030   4.543   3.926   4.331  0.5353 -0.1593 -0.4919
 1872TIP3    H127031   4.632   3.952   4.309  1.4324 -2.7806 -0.3485
 1872TIP3    H227032   4.506   3.896   4.248  0.1064  0.0621 -0.3807
 1873TIP3   OH227033   5.445   6.666   4.802  0.4226  0.1495  0.1372
 1873TIP3    H127034   5.378   6.721   4.762  0.5814 -0.3914 -0.9085
 1873TIP3    H227035   5.396   6.591   4.837  0.4292 -0.0299 -0.2346
 1874TIP3   OH227036   0.841   1.717   1.197 -0.1149  0.0875  0.5380
 1874TIP3    H127037   0.753   1.706   1.161 -0.4819 -1.4842  1.7877
 1874TIP3    H227038   0.898   1.671   1.136 -0.3891 -0.3001  0.5691
 1875TIP3   OH227039   2.801   4.869  10.267  0.1003  0.1139  0.0428
 1875TIP3    H127040   2.882   4.838  10.307  1.5703  1.6811 -1.5107
 1875TIP3    H227041   2.787   4.810  10.193  0.1701  0.1782 -0.0237
 1876TIP3   OH227042   0.520   1.024  12.352 -0.4209 -0.0501 -0.6671
 1876TIP3    H127043   0.581   0.958  12.383 -0.7931 -0.3675 -0.6076
 1876TIP3    H227044   0.576   1.097  12.323 -0.0323 -0.1849 -0.2628
 1877TIP3   OH227045   5.446   2.248  13.430 -0.8924 -0.2857  0.5249
 1877TIP3    H127046   5.535   2.216  13.448 -0.3295  1.6927  1.4865
 1877TIP3    H227047   5.436   2.239  13.335  0.9246  0.8224  0.1776
 1878TIP3   OH227048   2.514   6.043   4.621 -0.2349 -0.0311  0.5616
 1878TIP3    H127049   2.570   6.036   4.698  0.2792  1.2597  0.3258
 1878TIP3    H227050   2.562   5.997   4.552 -0.0997 -0.0880  0.6937
 1879TIP3   OH227051   0.183   4.972   3.283 -0.0696  0.3500 -0.1253
 1879TIP3    H127052   0.158   4.975   3.191 -0.0400 -0.1974 -0.1530
 1879TIP3    H227053   0.117   5.025   3.327 -3.1350 -3.3262  0.1940
 1880TIP3   OH227054   0.523   3.146  12.324  0.3334 -0.2199 -0.1094
 1880TIP3    H127055   0.534   3.059  12.285  1.1023 -0.6418  0.9801
 1880TIP3    H227056   0.489   3.128  12.412 -0.1184  0.6251 -0.1061
 1881TIP3   OH227057   2.511   5.723  15.882 -0.3966 -0.0768 -0.1234
 1881TIP3    H127058   2.487   5.692  15.969 -2.1609 -1.9332 -1.1881
 1881TIP3    H227059   2.430   5.762  15.848  0.4629  1.2538 -0.7022
 1882TIP3   OH227060   5.858   1.932  15.537 -0.0724  0.0799  0.3808
 1882TIP3    H127061   5.764   1.944  15.526 -0.1322 -0.6345  0.1062
 1882TIP3    H227062   5.866   1.866  15.606  0.1880 -1.3302 -0.9629
 1883TIP3   OH227063   6.461   4.280  15.954  0.0251  0.4691  0.3907
 1883TIP3    H127064   6.432   4.207  15.899  2.1964 -1.1234  1.2246
 1883TIP3    H227065   6.550   4.298  15.926 -0.2869  2.4830  0.5858
 1884TIP3   OH227066   5.593   2.040  15.961 -0.0629 -0.6567  0.1087
 1884TIP3    H127067   5.593   1.951  15.998 -0.2915  0.3969  2.8735
 1884TIP3    H227068   5.507   2.075  15.984  0.2286  0.4884 -0.4815
 1885TIP3   OH227069   6.708   6.210  13.188  0.6458 -0.2170 -0.4558
 1885TIP3    H127070   6.713   6.303  13.167  1.4307 -0.3891 -1.0424
 1885TIP3    H227071   6.632   6.178  13.138  0.9997 -0.1041 -1.0749
 1886TIP3   OH227072   5.519   4.178  15.441  0.4880 -0.3642 -0.3495
 1886TIP3    H127073   5.591   4.220  15.488 -0.2540 -0.0980  0.5606
 1886TIP3    H227074   5.506   4.234  15.364  0.1102  0.5806  0.3821
 1887TIP3   OH227075   2.096   6.444  13.591  0.6106  0.4374 -0.3780
 1887TIP3    H127076   2.142   6.364  13.616 -0.0648  0.3105  0.5224
 1887TIP3    H227077   2.149   6.482  13.521  2.5299  0.7042  1.1206
 1888TIP3   OH227078   0.042   4.084   5.901 -0.4679 -0.4882 -0.2072
 1888TIP3    H127079  -0.003   4.160   5.938 -0.7001  0.2552 -1.8967
 1888TIP3    H227080   0.121   4.074   5.954 -0.4499  0.9419  0.0745
 1889TIP3   OH227081   3.843   3.526   5.500  0.2287 -0.3681 -0.1171
 1889TIP3    H127082   3.772   3.568   5.548  0.1839  0.1285 -0.6095
 1889TIP3    H227083   3.880   3.595   5.445 -0.1503 -1.0694 -1.3034
 1890TIP3   OH227084   2.607   4.616  12.207 -0.4533 -0.0796 -0.2311
 1890TIP3    H127085   2.664   4.597  12.132 -0.2119  1.6561 -0.5328
 1890TIP3    H227086   2.549   4.686  12.177 -0.8249  0.1654  0.9827
 1891TIP3   OH227087   6.423   6.098  15.248 -0.3096 -1.0709  0.8355
 1891TIP3    H127088   6.463   6.044  15.317  0.6609 -1.0090  0.3372
 1891TIP3    H227089   6.401   6.035  15.179  0.9958 -0.8365  0.1746
 1892TIP3   OH227090   1.753   6.590   3.072 -0.0141  0.1138  0.0298
 1892TIP3    H127091   1.789   6.509   3.036  0.5793  0.2879  0.2278
 1892TIP3    H227092   1.806   6.660   3.033  0.4201  0.3283  0.9652
 1893TIP3   OH227093   5.811   6.437   2.754  0.4533  0.5029 -0.1114
 1893TIP3    H127094   5.810   6.440   2.850  0.1875  1.5272 -0.1270
 1893TIP3    H227095   5.904   6.432   2.731  0.5074  0.0282  0.2045
 1894TIP3   OH227096   3.187   0.395   2.290  0.4708  0.2213  0.7256
 1894TIP3    H127097   3.238   0.442   2.356 -0.4194  0.1222  1.4956
 1894TIP3    H227098   3.141   0.464   2.242  2.4265  0.4519 -0.9878
 1895TIP3   OH227099   5.901   2.342   1.450  0.9500  0.1156 -0.5011
 1895TIP3    H127100   5.956   2.355   1.527 -0.6496  1.4541  0.5075
 1895TIP3    H227101   5.811   2.343   1.484  0.1873  0.7343 -2.3656
 1896TIP3   OH227102   6.446   4.794  12.708 -0.3311 -0.1003 -0.3804
 1896TIP3    H127103   6.480   4.819  12.622 -0.7244 -0.1935 -0.5664
 1896TIP3    H227104   6.475   4.704  12.720  0.0238  0.0290 -0.2595
 1897TIP3   OH227105   3.323   2.593  11.326  0.4437  0.0992 -0.3066
 1897TIP3    H127106   3.248   2.543  11.292 -0.9381  1.3701  0.7195
 1897TIP3    H227107   3.389   2.526  11.346 -0.2150 -1.0157 -1.6868
 1898TIP3   OH227108   2.553   0.097   1.296 -0.3370 -0.4444 -0.2668
 1898TIP3    H127109   2.600   0.044   1.360 -1.0459 -0.0129  0.6234
 1898TIP3    H227110   2.601   0.083   1.214  0.3755 -1.2682  0.2759
 1899TIP3   OH227111   1.251   0.977  12.240  0.2301  0.1757  0.0166
 1899TIP3    H127112   1.324   1.006  12.293 -0.1670  0.7180  0.2703
 1899TIP3    H227113   1.284   0.978  12.150  0.4668  0.6125  0.1101
 1900TIP3   OH227114   5.833   3.530  11.240 -0.2744 -0.1727  0.1131
 1900TIP3    H127115   5.872   3.599  11.293 -1.0375 -1.2336  2.1322
 1900TIP3    H227116   5.740   3.553  11.236 -0.4582 -0.8238  0.4297
 1901TIP3   OH227117   4.200   0.456  16.528 -0.0799 -0.1613 -0.2196
 1901TIP3    H127118   4.268   0.389  16.536  0.4876  0.2409 -1.4511
 1901TIP3    H227119   4.215   0.514  16.602  0.4199 -0.5275 -0.0288
 1902TIP3   OH227120   5.112   2.046  16.695  0.0464 -0.0071 -0.7464
 1902TIP3    H127121   5.029   2.055  16.648 -1.6027  0.4888  2.0391
 1902TIP3    H227122   5.127   1.952  16.699 -1.3533 -0.2292  0.1601
 1903TIP3   OH227123   2.454   4.629   2.943  0.5142  0.3517  0.5901
 1903TIP3    H127124   2.533   4.668   2.981  1.3320 -0.3772 -0.2975
 1903TIP3    H227125   2.437   4.679   2.864 -0.4101  1.0179  1.1849
 1904TIP3   OH227126   3.652   5.103  14.905  0.2996  0.0182 -0.0117
 1904TIP3    H127127   3.602   5.143  14.976 -1.2519 -2.2519  0.2562
 1904TIP3    H227128   3.728   5.160  14.896 -1.0403  2.1718  1.2896
 1905TIP3   OH227129   0.028   3.682   1.337  0.2912  0.8770 -0.3050
 1905TIP3    H127130  -0.000   3.594   1.364 -0.2241  0.3101 -2.5228
 1905TIP3    H227131   0.015   3.736   1.415 -1.0822 -0.6402  0.5805
 1906TIP3   OH227132   5.658   0.188  13.711 -0.3430  0.7767  0.1742
 1906TIP3    H127133   5.585   0.137  13.676 -0.8399  2.7393 -1.9103
 1906TIP3    H227134   5.622   0.236  13.785 -0.6549  0.2960  0.3311
 1907TIP3   OH227135   4.513   3.915   0.592 -0.2646 -0.8734  0.3976
 1907TIP3    H127136   4.474   3.830   0.574 -3.1823  0.0602  1.6241
 1907TIP3    H227137   4.483   3.971   0.521  1.2423 -0.7384 -0.1509
 1908TIP3   OH227138   4.850   0.389  11.028  0.2257  0.7772  0.1061
 1908TIP3    H127139   4.924   0.333  11.007 -1.1870 -1.0489 -0.2420
 1908TIP3    H227140   4.859   0.408  11.121 -0.5912 -2.2047  0.8875
 1909TIP3   OH227141   1.267   3.867   4.508  0.1740 -0.0482  0.1592
 1909TIP3    H127142   1.205   3.898   4.442  0.1808  0.1816  0.2606
 1909TIP3    H227143   1.346   3.919   4.492 -1.1035  3.1872  3.0403
 1910TIP3   OH227144   3.899   3.103   4.033  0.1308  0.2239 -0.2117
 1910TIP3    H127145   3.857   3.143   4.109  0.0710  3.2298 -1.6693
 1910TIP3    H227146   3.985   3.075   4.065 -0.7441 -0.7301  1.4414
 1911TIP3   OH227147   4.704   3.699  17.081 -0.1730  0.1966  0.6509
 1911TIP3    H127148   4.637   3.690  17.148 -0.4463 -0.3178  0.3180
 1911TIP3    H227149   4.697   3.789  17.051 -0.8445  0.0968  0.4904
 1912TIP3   OH227150   0.444   0.410   0.620 -0.0833 -0.5246  0.3738
 1912TIP3    H127151   0.503   0.337   0.601 -0.0875 -0.1357 -1.2596
 1912TIP3    H227152   0.466   0.477   0.556 -2.2285 -0.3321 -0.2682
 1913TIP3   OH227153   6.603   2.134   5.781 -0.5840  0.7765  0.5655
 1913TIP3    H127154   6.690   2.157   5.747 -1.0406  1.1874 -0.3547
 1913TIP3    H227155   6.592   2.192   5.857 -0.1242  0.8407  0.5924
 1914TIP3   OH227156   2.409   5.828   1.176  0.5109 -0.0339 -0.2786
 1914TIP3    H127157   2.457   5.885   1.117  2.2449 -0.7855  0.3523
 1914TIP3    H227158   2.423   5.866   1.263  0.9359 -0.8843  0.0406
 1915TIP3   OH227159   4.845   2.438   0.989  0.0133 -0.1537 -0.8052
 1915TIP3    H127160   4.807   2.372   0.931  1.6909 -0.7576 -1.2560
 1915TIP3    H227161   4.926   2.465   0.946  0.5175  0.5084  0.5089
 1916TIP3   OH227162   3.637   3.122   1.611  0.0117 -0.3341  0.3180
 1916TIP3    H127163   3.687   3.045   1.635  1.7337  0.7279  0.2718
 1916TIP3    H227164   3.700   3.181   1.571 -1.0795  1.4210  1.0638
 1917TIP3   OH227165   4.385   2.114   0.623  0.5746 -0.2946 -0.0649
 1917TIP3    H127166   4.365   2.111   0.530  2.2594  0.6416 -0.4925
 1917TIP3    H227167   4.476   2.087   0.629  1.1120  1.5796  1.0592
 1918TIP3   OH227168   1.953   2.174   4.856  0.0182 -0.1283 -0.3086
 1918TIP3    H127169   2.019   2.237   4.887  0.3960 -0.4426 -0.4772
 1918TIP3    H227170   1.905   2.150   4.935 -0.8113  1.1568 -0.3914
 1919TIP3   OH227171   1.547   4.002  16.772 -0.3679  0.0556  0.3711
 1919TIP3    H127172   1.639   3.975  16.770 -0.6334 -0.8671 -0.3742
 1919TIP3    H227173   1.523   3.997  16.864  0.0843 -0.6331  0.4647
 1920TIP3   OH227174   6.541   5.558  12.111 -1.1575  0.1403  0.1204
 1920TIP3    H127175   6.577   5.504  12.041 -2.0664  0.9803 -1.0389
 1920TIP3    H227176   6.601   5.546  12.185  0.1483 -0.3210 -0.9863
 1921TIP3   OH227177   4.887   5.845  16.732  0.2554  0.0350  0.3707
 1921TIP3    H127178   4.830   5.770  16.715  0.6276 -0.0498 -0.6194
 1921TIP3    H227179   4.861   5.876  16.818 -1.0551 -0.2068  0.0943
 1922TIP3   OH227180   5.437   1.626  13.538 -0.6515 -0.0814  0.1556
 1922TIP3    H127181   5.491   1.606  13.615 -0.1993  0.2971 -0.0592
 1922TIP3    H227182   5.386   1.703  13.564  0.7489  1.1088 -0.4988
 1923TIP3   OH227183   0.144   6.488   4.969 -0.5547  0.4217 -0.0447
 1923TIP3    H127184   0.104   6.529   5.046 -1.3953 -0.3194 -0.0703
 1923TIP3    H227185   0.154   6.396   4.994 -0.0266  0.3530 -0.5065
 1924TIP3   OH227186   5.941   5.387  16.487 -0.1250 -0.0665 -0.0557
 1924TIP3    H127187   5.965   5.297  16.465  0.1880 -0.1174  0.4558
 1924TIP3    H227188   5.846   5.388  16.487 -0.1318 -0.4980  0.2964
 1925TIP3   OH227189   0.587   2.434   4.836 -0.1934 -0.0303  0.1542
 1925TIP3    H127190   0.562   2.387   4.916  0.9883  0.4383  0.8313
 1925TIP3    H227191   0.667   2.390   4.806  1.1048  1.6376  0.9641
 1926TIP3   OH227192   5.402   5.187  10.660  0.9432 -0.1068 -0.3006
 1926TIP3    H127193   5.321   5.181  10.610 -0.2105  2.3482  1.0929
 1926TIP3    H227194   5.440   5.099  10.654 -2.4029 -1.7520 -0.0539
 1927TIP3   OH227195   1.761   0.569   0.580 -0.1243  0.5550 -0.3896
 1927TIP3    H127196   1.760   0.661   0.605 -0.8542  1.4160 -3.1748
 1927TIP3    H227197   1.848   0.538   0.605  0.0751  1.9317  0.7582
 1928TIP3   OH227198   6.091   4.941   3.698 -0.0137 -0.0394  0.7230
 1928TIP3    H127199   6.077   4.855   3.738  1.8274 -0.0313  1.5135
 1928TIP3    H227200   6.128   4.922   3.612  1.4240 -0.0756  1.3227
 1929TIP3   OH227201   0.257   0.357  13.377 -0.6172 -0.5806 -0.7688
 1929TIP3    H127202   0.321   0.287  13.386 -0.8433 -1.0220 -2.3493
 1929TIP3    H227203   0.308   0.434  13.353 -0.3981 -0.2387  0.7120
 1930TIP3   OH227204   5.129   2.967   5.416  0.0399 -0.0304  0.4014
 1930TIP3    H127205   5.171   2.956   5.501  0.1945  0.7968  0.4417
 1930TIP3    H227206   5.199   2.994   5.358 -0.0059 -0.8914 -0.0696
 1931TIP3   OH227207   4.690   5.325  15.455 -0.0711  0.3932  0.5357
 1931TIP3    H127208   4.612   5.338  15.510  0.7902  0.9850  1.6573
 1931TIP3    H227209   4.731   5.411  15.451 -0.5022  0.5504 -1.7274
 1932TIP3   OH227210   2.431   5.022  16.958  0.0413 -0.3386 -0.3571
 1932TIP3    H127211   2.390   5.086  16.900  1.3144  1.6161  0.7737
 1932TIP3    H227212   2.442   4.944  16.903 -2.4289  0.0308 -1.5161
 1933TIP3   OH227213   2.275   6.666  10.966  0.1717 -0.4611 -0.6398
 1933TIP3    H127214   2.296   6.684  10.874 -1.5842 -0.8752 -1.1539
 1933TIP3    H227215   2.215   6.592  10.963 -2.4642  1.5026  0.5916
 1934TIP3   OH227216   4.189   4.077  10.790  0.9001 -0.4266 -0.4768
 1934TIP3    H127217   4.100   4.111  10.795  1.5934  1.3395  0.8746
 1934TIP3    H227218   4.211   4.082  10.697 -1.3007 -3.5745 -1.3498
 1935TIP3   OH227219   6.167   2.042   3.970 -0.6124  0.0531 -0.2033
 1935TIP3    H127220   6.201   2.120   3.925  0.0558 -0.0502  0.1092
 1935TIP3    H227221   6.155   2.071   4.060  0.7249 -0.5103  0.1744
 1936TIP3   OH227222   3.232   5.403   5.413 -0.5805  0.7369  0.2256
 1936TIP3    H127223   3.307   5.351   5.386  0.4845  1.0364  2.4442
 1936TIP3    H227224   3.172   5.341   5.453  0.0389  0.9649  1.5470
 1937TIP3   OH227225   1.321   2.466   1.785 -0.3522  0.7463  0.0578
 1937TIP3    H127226   1.314   2.370   1.783  0.1451  0.7160 -0.3688
 1937TIP3    H227227   1.242   2.494   1.831 -1.2281  0.2166 -1.0800
 1938TIP3   OH227228   2.087   2.334   0.263 -0.4638  0.2606 -0.0247
 1938TIP3    H127229   2.180   2.321   0.243 -0.4320  1.3120 -0.6323
 1938TIP3    H227230   2.087   2.387   0.343 -0.5587 -0.2873  0.3470
 1939TIP3   OH227231   0.013   3.911  13.205  0.4655  0.2208  0.2100
 1939TIP3    H127232  -0.043   3.879  13.135  1.4285 -0.5882 -0.2223
 1939TIP3    H227233  -0.023   3.996  13.228 -1.0857 -0.3933  0.1409
 1940TIP3   OH227234   4.139   4.685  15.208 -0.4805 -0.5937 -0.4260
 1940TIP3    H127235   4.051   4.723  15.201 -0.4524 -0.4378  0.0828
 1940TIP3    H227236   4.198   4.760  15.201 -0.4463 -0.3203  1.9613
 1941TIP3   OH227237   1.242   0.450   0.545 -0.1529  0.2287 -0.1646
 1941TIP3    H127238   1.230   0.540   0.515 -1.3994  0.0377 -0.2781
 1941TIP3    H227239   1.263   0.458   0.638  0.2273  0.6502 -0.2846
 1942TIP3   OH227240   3.811   2.504  11.195 -0.2541  0.5204  0.5584
 1942TIP3    H127241   3.902   2.477  11.209  0.7367  4.2636  2.6123
 1942TIP3    H227242   3.814   2.561  11.118 -0.5844  1.6286  1.3446
 1943TIP3   OH227243   5.058   3.420   1.258 -0.3272  0.2070  0.4362
 1943TIP3    H127244   5.042   3.492   1.198 -1.2544  0.1086  0.5515
 1943TIP3    H227245   5.046   3.457   1.345 -1.0327 -0.1297  0.4891
 1944TIP3   OH227246   3.234   4.236   5.076 -0.0442 -0.6754 -0.6331
 1944TIP3    H127247   3.230   4.242   5.172  0.9844  2.2141 -0.6614
 1944TIP3    H227248   3.164   4.175   5.053 -3.5492  2.0070  1.7774
 1945TIP3   OH227249   5.246   4.529   2.941  0.0605 -0.1591  0.4036
 1945TIP3    H127250   5.191   4.603   2.964  0.0589  0.3574 -1.1490
 1945TIP3    H227251   5.290   4.505   3.023 -0.0471  1.4504  0.9683
 1946TIP3   OH227252   5.605   5.348   3.099  0.0563  0.0656 -0.5638
 1946TIP3    H127253   5.673   5.281   3.101 -1.4860 -1.6924 -2.3330
 1946TIP3    H227254   5.578   5.352   3.007 -1.1347  1.8632 -0.1902
 1947TIP3   OH227255   1.868   1.565   0.125 -0.2844 -0.2532 -0.0696
 1947TIP3    H127256   1.832   1.539   0.040 -0.3494  1.2976 -0.5496
 1947TIP3    H227257   1.896   1.483   0.165  0.1078 -0.9866 -1.7452
 1948TIP3   OH227258   4.614   4.569  16.394  0.3748 -0.1628  0.4106
 1948TIP3    H127259   4.552   4.631  16.431  1.2209  0.9528  0.0168
 1948TIP3    H227260   4.700   4.610  16.408  1.0241 -1.5935  0.8312
 1949TIP3   OH227261   3.162   5.197  15.317 -0.3536  0.4844 -0.6004
 1949TIP3    H127262   3.160   5.173  15.410 -1.0136 -0.2569 -0.7913
 1949TIP3    H227263   3.105   5.273  15.310  0.2108  0.9434 -0.3013
 1950TIP3   OH227264   4.676   2.402   5.561  0.5424  0.2394  0.2298
 1950TIP3    H127265   4.695   2.364   5.476 -1.6995 -0.3224 -0.0712
 1950TIP3    H227266   4.704   2.493   5.553  0.6468  0.1189 -0.9936
 1951TIP3   OH227267   4.623   3.614  10.401  0.0427  0.6627  0.0707
 1951TIP3    H127268   4.667   3.541  10.357  1.3317  1.2430  0.3404
 1951TIP3    H227269   4.551   3.573  10.448 -0.5136 -0.1573 -1.4257
 1952TIP3   OH227270   0.200   4.417  11.454 -0.0348 -0.4191  0.3344
 1952TIP3    H127271   0.228   4.411  11.363 -2.3135  1.6585 -0.6291
 1952TIP3    H227272   0.242   4.496  11.488 -0.6463 -0.1439  0.4726
 1953TIP3   OH227273   4.200   4.884  12.346 -0.5208 -0.0692  0.2421
 1953TIP3    H127274   4.167   4.811  12.398 -2.9257  0.8061  0.0816
 1953TIP3    H227275   4.229   4.845  12.264 -0.1033 -1.0383  0.8420
 1954TIP3   OH227276   2.151   4.462  11.474 -0.6282  0.0684 -0.2752
 1954TIP3    H127277   2.192   4.381  11.447  0.5995  1.2222 -2.0621
 1954TIP3    H227278   2.064   4.436  11.505 -0.8919 -1.7521 -2.3433
 1955TIP3   OH227279   6.341   3.157  11.454  0.2954  0.1736 -0.1085
 1955TIP3    H127280   6.395   3.147  11.533 -1.5740  1.4211  1.4325
 1955TIP3    H227281   6.252   3.135  11.483 -0.5395  1.2853 -1.6862
 1956TIP3   OH227282   5.245   4.872  13.060  0.1479  0.1030  0.3580
 1956TIP3    H127283   5.178   4.816  13.100 -1.7318  0.8496 -1.5904
 1956TIP3    H227284   5.300   4.811  13.010  0.5978 -0.4458  1.4937
 1957TIP3   OH227285   2.241   1.412   5.409 -0.0147  0.4522  0.4000
 1957TIP3    H127286   2.176   1.354   5.450  0.1387  0.9763  1.4080
 1957TIP3    H227287   2.220   1.409   5.316 -1.0038  0.0037  0.6254
 1958TIP3   OH227288   6.500   3.740   2.130  0.0709  0.1652 -0.5549
 1958TIP3    H127289   6.548   3.704   2.055 -0.5919 -0.1459 -0.8299
 1958TIP3    H227290   6.550   3.711   2.206 -0.2482 -1.0385 -0.7876
 1959TIP3   OH227291   6.339   0.697   0.334  0.1184 -0.1533 -0.1974
 1959TIP3    H127292   6.280   0.760   0.375 -0.6255 -3.0384  3.7577
 1959TIP3    H227293   6.280   0.637   0.286  0.3317 -0.3445 -0.2234
 1960TIP3   OH227294   6.683   1.449   1.131 -0.3690  0.2893 -0.4704
 1960TIP3    H127295   6.713   1.372   1.180  0.1896  1.5423  1.2159
 1960TIP3    H227296   6.744   1.456   1.057  1.3056  0.6828  0.8956
 1961TIP3   OH227297   0.443   3.408   3.525 -0.0583  0.2535 -0.0622
 1961TIP3    H127298   0.369   3.438   3.471 -0.0547 -1.7124 -1.2539
 1961TIP3    H227299   0.517   3.409   3.465  0.4145  0.0606  0.5170
 1962TIP3   OH227300   2.729   5.895   1.651  0.0400 -0.1393  0.3226
 1962TIP3    H127301   2.740   5.936   1.737  2.0986 -0.9798  0.5083
 1962TIP3    H227302   2.685   5.812   1.670  0.8255 -0.4940  0.6291
 1963TIP3   OH227303   4.335   6.069  14.971  1.0717 -0.7985 -0.1367
 1963TIP3    H127304   4.274   6.053  14.899 -0.6789  2.5265  0.4209
 1963TIP3    H227305   4.282   6.062  15.050  1.9156 -0.0168  0.5259
 1964TIP3   OH227306   4.920   4.087  10.629 -0.6224  0.3809  0.3623
 1964TIP3    H127307   5.005   4.044  10.633 -0.4452  0.7972  1.3020
 1964TIP3    H227308   4.937   4.178  10.655 -0.9880  1.0588 -1.5273
 1965TIP3   OH227309   3.620   2.315   4.868 -0.3723  0.4357  0.7754
 1965TIP3    H127310   3.618   2.302   4.963  1.3850 -0.7270  0.6925
 1965TIP3    H227311   3.702   2.361   4.851 -1.4118  2.1203 -0.0755
 1966TIP3   OH227312   4.825   5.076  14.815  0.5807 -0.0585 -0.4591
 1966TIP3    H127313   4.773   5.034  14.883  1.5872  0.0809  0.4379
 1966TIP3    H227314   4.785   5.049  14.732 -1.4347  0.7454  0.1918
 1967TIP3   OH227315   3.947   5.311   3.258 -0.6274 -0.4622 -0.1197
 1967TIP3    H127316   3.947   5.394   3.307  1.6517 -1.4825  1.7916
 1967TIP3    H227317   3.898   5.250   3.314 -0.4437 -0.9435 -0.4800
 1968TIP3   OH227318   4.721   4.943  15.923  0.6024  0.3289  0.2056
 1968TIP3    H127319   4.761   4.997  15.855  0.6318  0.2239  0.1396
 1968TIP3    H227320   4.727   4.854  15.890  2.0308  0.0923  1.0416
 1969TIP3   OH227321   3.054   1.927  15.101  0.3150  0.1826 -0.4751
 1969TIP3    H127322   3.062   2.009  15.149 -0.3852 -0.2289  0.3648
 1969TIP3    H227323   3.057   1.953  15.009  1.7291  0.9783 -0.2348
 1970TIP3   OH227324   5.923   3.101   5.120  0.5766  0.4771 -0.2075
 1970TIP3    H127325   5.982   3.151   5.063  1.0165 -0.3433 -0.4878
 1970TIP3    H227326   5.978   3.071   5.192 -0.1311  2.1116  1.0763
 1971TIP3   OH227327   2.995   6.321   4.195  0.2156  0.2570  0.2926
 1971TIP3    H127328   3.029   6.277   4.117  1.4832 -0.4563  1.1913
 1971TIP3    H227329   2.900   6.308   4.191  0.1897  0.7217 -1.3855
 1972TIP3   OH227330   4.397   4.586   6.227  0.4365 -0.5199 -0.0415
 1972TIP3    H127331   4.476   4.636   6.250  0.7441 -1.1247  0.2235
 1972TIP3    H227332   4.409   4.563   6.135 -0.2438  0.8711 -0.5193
 1973TIP3   OH227333   4.538   0.389  10.309  0.6275 -0.3592  0.0198
 1973TIP3    H127334   4.500   0.303  10.323 -0.2351 -0.2666 -1.5607
 1973TIP3    H227335   4.475   0.450  10.347  0.9779 -0.3801  0.6516
 1974TIP3   OH227336   0.967   1.394  15.295  0.1109 -0.1863 -0.1304
 1974TIP3    H127337   0.921   1.312  15.278 -0.0028 -0.5788  1.8396
 1974TIP3    H227338   1.052   1.383  15.253 -0.6646 -0.4176 -1.7338
 1975TIP3   OH227339   4.529   4.179   3.980  0.1106  0.5342 -0.0269
 1975TIP3    H127340   4.438   4.206   3.987  0.2360  0.9803 -0.1351
 1975TIP3    H227341   4.538   4.146   3.891  0.7004  2.9090 -0.9205
 1976TIP3   OH227342   2.373   3.977  16.571  0.3649  0.4507 -0.0953
 1976TIP3    H127343   2.394   4.013  16.657  3.0108  0.9130 -0.8536
 1976TIP3    H227344   2.447   4.002  16.515 -0.8239 -0.6207 -2.2933
 1977TIP3   OH227345   3.725   4.336   2.796  0.2639  0.0572  0.4346
 1977TIP3    H127346   3.750   4.349   2.887 -0.1232 -1.2890  0.7602
 1977TIP3    H227347   3.640   4.291   2.801  0.6428 -0.8086 -0.5691
 1978TIP3   OH227348   4.224   5.913  13.378  0.1456 -0.0023  0.4557
 1978TIP3    H127349   4.268   5.830  13.397  0.1210 -0.0314  0.3871
 1978TIP3    H227350   4.194   5.904  13.288 -1.2118 -0.5211  0.9348
 1979TIP3   OH227351   4.440   1.762   3.840 -0.0822  0.4003  0.2339
 1979TIP3    H127352   4.454   1.756   3.745 -0.8493 -0.1759  0.1443
 1979TIP3    H227353   4.380   1.690   3.859  2.0983 -1.1310  1.5802
 1980TIP3   OH227354   6.630   1.918  16.322  0.2872  0.3537  0.1284
 1980TIP3    H127355   6.572   1.851  16.286  0.8833 -0.4144  0.5744
 1980TIP3    H227356   6.585   1.949  16.400 -0.8348  1.7609 -1.0224
 1981TIP3   OH227357   0.596   3.246   2.948 -0.3267 -0.1672 -0.2109
 1981TIP3    H127358   0.595   3.330   2.994 -3.3604  0.1632 -0.6962
 1981TIP3    H227359   0.627   3.267   2.860 -0.8928  0.4370 -0.2770
 1982TIP3   OH227360   6.759   4.743  12.091  0.1025  0.2270 -0.2536
 1982TIP3    H127361   6.844   4.708  12.117 -1.2687 -1.5776  2.2309
 1982TIP3    H227362   6.750   4.825  12.139 -0.2115 -0.4053  0.7815
 1983TIP3   OH227363   0.227   2.699  14.635  0.1174 -0.0500  0.0409
 1983TIP3    H127364   0.322   2.716  14.642  0.4025 -0.9503 -1.2658
 1983TIP3    H227365   0.215   2.614  14.675  0.3784 -1.2677 -2.2892
 1984TIP3   OH227366   2.439   1.404  12.851  1.3187  0.0737  0.0647
 1984TIP3    H127367   2.445   1.424  12.944 -0.8646 -0.5228  0.3996
 1984TIP3    H227368   2.432   1.489  12.808  1.4944  0.3227  0.5278
 1985TIP3   OH227369   3.883   5.442  10.448 -0.0387  0.2123 -0.1566
 1985TIP3    H127370   3.882   5.349  10.471 -2.2587 -0.0321 -0.9768
 1985TIP3    H227371   3.931   5.445  10.365  1.3654  0.0390  0.6285
 1986TIP3   OH227372   2.392   5.288   2.230  0.2246 -0.2113  0.4747
 1986TIP3    H127373   2.462   5.278   2.166 -0.4623 -0.2849 -0.2898
 1986TIP3    H227374   2.434   5.274   2.315  1.5151  1.6031  0.1914
 1987TIP3   OH227375   4.122   0.934  16.951  0.4023  0.1764 -0.0505
 1987TIP3    H127376   4.211   0.898  16.951  0.2527 -0.2048 -0.3971
 1987TIP3    H227377   4.077   0.888  17.022  0.4515  0.2880  0.0528
 1988TIP3   OH227378   2.248   4.572   5.599 -0.6677  0.1528 -0.4505
 1988TIP3    H127379   2.249   4.604   5.690 -1.5541 -1.4848  0.1747
 1988TIP3    H227380   2.287   4.644   5.548  0.6013  0.7905  1.3149
 1989TIP3   OH227381   2.782   0.839  16.432  0.7646 -0.5039  0.0564
 1989TIP3    H127382   2.833   0.834  16.351  2.0639  1.9147  0.6258
 1989TIP3    H227383   2.694   0.865  16.403  0.7714 -1.2735 -0.6882
 1990TIP3   OH227384   4.392   2.144  12.679  0.5975 -0.1179  0.0661
 1990TIP3    H127385   4.374   2.225  12.726  1.1549  0.5750 -0.8981
 1990TIP3    H227386   4.345   2.077  12.729 -1.8049  1.1065 -0.3986
 1991TIP3   OH227387   2.742   4.172  11.875 -0.5062 -0.3168 -0.0523
 1991TIP3    H127388   2.696   4.190  11.793 -0.6587  0.0618  0.1150
 1991TIP3    H227389   2.828   4.213  11.864 -0.8253  0.4529  0.2976
 1992TIP3   OH227390   3.546   3.930  15.173  0.7322 -0.2376  0.0747
 1992TIP3    H127391   3.458   3.900  15.153  1.2815 -0.1610 -3.1222
 1992TIP3    H227392   3.554   3.923  15.268 -2.3441 -1.1519  0.3616
 1993TIP3   OH227393   2.124   5.202   1.842 -0.0180 -1.0221  0.3704
 1993TIP3    H127394   2.061   5.185   1.912 -0.2911 -1.5633 -0.0044
 1993TIP3    H227395   2.087   5.160   1.765 -0.0832  0.1996 -0.2958
 1994TIP3   OH227396   3.250   2.011   0.821  0.0445 -0.2462  0.3063
 1994TIP3    H127397   3.245   1.916   0.811 -0.2682 -0.4521  2.1713
 1994TIP3    H227398   3.321   2.025   0.884  0.9368  0.8542 -0.8828
 1995TIP3   OH227399   5.711   2.278  16.933 -0.6798 -0.1324  0.1885
 1995TIP3    H127400   5.760   2.290  17.015  0.2984 -0.1805 -0.3742
 1995TIP3    H227401   5.671   2.363  16.916  1.5497  0.8012 -0.8056
 1996TIP3   OH227402   3.599   4.659   5.915 -0.3145  0.4812 -0.5421
 1996TIP3    H127403   3.536   4.664   5.986  0.1401 -2.3549  0.1536
 1996TIP3    H227404   3.643   4.575   5.927  1.0939  0.7513 -3.0991
 1997TIP3   OH227405   5.001   4.690  13.213  0.0502  0.0521  0.3145
 1997TIP3    H127406   4.910   4.683  13.243  0.2291  0.4275  0.9724
 1997TIP3    H227407   5.009   4.622  13.146 -0.2296 -1.2411  1.5220
 1998TIP3   OH227408   2.306   4.154  14.501 -0.5540 -0.0100  0.3511
 1998TIP3    H127409   2.395   4.189  14.507 -0.0662 -0.9147 -0.9958
 1998TIP3    H227410   2.277   4.177  14.413 -1.2372 -0.6615  0.3969
 1999TIP3   OH227411   0.723   2.209   3.391  0.4109  0.0721 -0.1813
 1999TIP3    H127412   0.740   2.133   3.336  1.5103  0.6786 -0.7075
 1999TIP3    H227413   0.648   2.253   3.349 -0.0214 -0.5364 -0.0551
 2000TIP3   OH227414   6.324   2.316   0.343 -0.6549 -0.0490 -0.1755
 2000TIP3    H127415   6.400   2.356   0.301  0.2133 -0.2220  1.1852
 2000TIP3    H227416   6.315   2.231   0.300 -0.0480 -0.0451 -0.3183
 2001TIP3   OH227417   4.956   2.974   4.153 -0.2056  0.0904  0.4098
 2001TIP3    H127418   4.941   2.955   4.060 -0.8189 -2.0000  0.8925
 2001TIP3    H227419   4.925   3.064   4.163 -2.4321 -0.4267 -0.9430
 2002TIP3   OH227420   6.154   5.883   1.173 -0.3490 -0.1175 -0.4363
 2002TIP3    H127421   6.214   5.902   1.101 -0.8001 -0.1557 -0.8245
 2002TIP3    H227422   6.176   5.948   1.240  1.1223 -1.0533  0.0328
 2003TIP3   OH227423   1.035   3.153  11.274  0.7212  0.0511  0.0116
 2003TIP3    H127424   0.978   3.100  11.329  0.2177 -0.8583 -1.3233
 2003TIP3    H227425   1.117   3.158  11.322  0.4818 -1.1950  0.5964
 2004TIP3   OH227426   5.922   4.205   3.161  0.1984 -0.0368 -0.1628
 2004TIP3    H127427   5.970   4.221   3.242 -0.2087 -0.0635  0.0882
 2004TIP3    H227428   5.964   4.127   3.124 -0.2370 -0.6091  0.5224
 2005TIP3   OH227429   0.150   3.624   4.440  0.0832  0.4213  0.4917
 2005TIP3    H127430   0.068   3.577   4.450 -0.9743  2.1508  0.3330
 2005TIP3    H227431   0.162   3.632   4.345  1.2280 -1.0610  0.4612
 2006TIP3   OH227432   3.129   4.988   0.916 -0.3600 -0.0287  0.5051
 2006TIP3    H127433   3.124   5.067   0.862 -0.2601 -1.0227 -1.0094
 2006TIP3    H227434   3.041   4.951   0.912 -0.4428  0.0571  1.3264
 2007TIP3   OH227435   4.061   4.999  14.858 -0.1078  0.2222 -0.1947
 2007TIP3    H127436   3.973   5.030  14.836 -0.4516 -1.7646 -1.8756
 2007TIP3    H227437   4.120   5.062  14.816 -0.7537  0.3197 -0.9691
 2008TIP3   OH227438   3.215   0.575  10.611  0.0864 -0.1616 -0.4141
 2008TIP3    H127439   3.302   0.606  10.586  0.0224 -0.0059 -0.4474
 2008TIP3    H227440   3.194   0.623  10.691 -0.0679 -0.0239 -0.5368
 2009TIP3   OH227441   5.802   5.933  12.978 -0.8660  0.4022 -0.3775
 2009TIP3    H127442   5.736   6.003  12.975  0.2268  1.4575 -2.4991
 2009TIP3    H227443   5.777   5.875  12.906 -0.8983 -0.6031  0.4304
 2010TIP3   OH227444   3.320   6.486   1.281 -0.6060  0.3747 -0.0538
 2010TIP3    H127445   3.366   6.545   1.341 -0.0578  0.2548 -0.3457
 2010TIP3    H227446   3.382   6.472   1.209 -0.0770 -1.8428  0.7587
 2011TIP3   OH227447   3.157   6.114   4.445  0.6357 -0.0006  0.3236
 2011TIP3    H127448   3.171   6.206   4.466  3.1073  0.0990 -1.3155
 2011TIP3    H227449   3.088   6.115   4.378  1.3551  0.8155 -0.4411
 2012TIP3   OH227450   4.353   5.213   1.775 -0.5773 -0.2646 -0.7561
 2012TIP3    H127451   4.357   5.271   1.699 -0.6261 -0.5453 -0.9735
 2012TIP3    H227452   4.289   5.254   1.833  0.6269  0.8225 -0.1356
 2013TIP3   OH227453   0.288   1.645   0.737 -0.4704 -0.2300 -0.0396
 2013TIP3    H127454   0.382   1.635   0.749 -0.2262  0.5913 -1.1168
 2013TIP3    H227455   0.264   1.575   0.677 -0.6228 -0.6544  0.5052
 2014TIP3   OH227456   3.103   3.310   6.243 -0.2191 -0.1568 -0.4826
 2014TIP3    H127457   3.133   3.373   6.178  0.7848 -1.0592 -0.9371
 2014TIP3    H227458   3.043   3.359   6.299  2.0891  1.7624  0.4576
 2015TIP3   OH227459   1.679   4.903  13.966 -0.7581  0.3076 -0.2521
 2015TIP3    H127460   1.617   4.852  14.017 -2.0283 -0.3565 -2.3332
 2015TIP3    H227461   1.765   4.876  13.998 -1.4942 -0.2191  1.3457
 2016TIP3   OH227462   1.019   5.979  15.521  0.0090 -0.2785 -0.2331
 2016TIP3    H127463   0.992   6.000  15.611  1.0142  3.1539 -0.5952
 2016TIP3    H227464   0.943   5.934  15.483 -1.8059  1.3166  1.3121
 2017TIP3   OH227465   1.764   4.191  12.333  0.1774 -0.4349 -0.5193
 2017TIP3    H127466   1.811   4.145  12.264  1.5431  0.8946 -0.5264
 2017TIP3    H227467   1.701   4.246  12.287  1.1495  0.5203 -0.7529
 2018TIP3   OH227468   5.514   6.757   4.259 -0.1957 -0.7932 -0.2552
 2018TIP3    H127469   5.469   6.713   4.187 -0.5384 -1.1672  0.1761
 2018TIP3    H227470   5.531   6.845   4.227 -0.4869 -0.9090 -0.7350
 2019TIP3   OH227471   0.650   1.341   2.622  0.0818  0.1211  0.6184
 2019TIP3    H127472   0.709   1.404   2.664  1.5966 -1.3488  0.8119
 2019TIP3    H227473   0.698   1.258   2.626  0.4119 -0.1803 -4.1135
 2020TIP3   OH227474   0.444   3.239  16.733 -0.1383 -0.0841 -0.2338
 2020TIP3    H127475   0.538   3.223  16.738  0.0935  1.3439  0.3649
 2020TIP3    H227476   0.418   3.206  16.647  0.2973 -3.3230  0.7564
 2021TIP3   OH227477   1.834   5.648  14.115  0.0014  0.5856 -0.1486
 2021TIP3    H127478   1.901   5.621  14.052 -0.0870  0.5296 -0.2203
 2021TIP3    H227479   1.879   5.653  14.199  0.3391  1.5793 -0.3767
 2022TIP3   OH227480   2.829   5.597   5.754  0.3591 -0.1255 -0.4921
 2022TIP3    H127481   2.813   5.604   5.848  1.3888 -1.1959 -0.2155
 2022TIP3    H227482   2.783   5.518   5.727  0.0345  0.1998 -0.9041
 2023TIP3   OH227483   5.638   0.045   0.486 -0.4976  0.3127 -0.4781
 2023TIP3    H127484   5.594   0.000   0.413 -0.0326 -0.0919 -0.5204
 2023TIP3    H227485   5.624  -0.012   0.561  0.7420 -0.3139 -0.6941
 2024TIP3   OH227486   5.652   3.466  15.549 -0.4706  0.3825 -0.4020
 2024TIP3    H127487   5.608   3.421  15.476  0.0593 -0.0425 -0.4622
 2024TIP3    H227488   5.666   3.555  15.517 -3.2999  1.2373  0.4139
 2025TIP3   OH227489   3.042   3.362   3.707  0.0348  0.6039  0.1878
 2025TIP3    H127490   2.988   3.304   3.653  2.3161 -0.8693 -0.6780
 2025TIP3    H227491   3.072   3.430   3.647  1.1581 -0.0390 -0.0031
 2026TIP3   OH227492   5.475   5.394   5.892 -0.7650 -0.2730 -0.1650
 2026TIP3    H127493   5.457   5.453   5.819 -1.3543 -0.3272 -0.0640
 2026TIP3    H227494   5.506   5.450   5.962  1.0785 -0.3407 -0.8544
 2027TIP3   OH227495   4.151   5.784  10.237 -0.0843  0.6815  0.1783
 2027TIP3    H127496   4.125   5.774  10.329 -0.0133  1.4886  0.2901
 2027TIP3    H227497   4.247   5.785  10.239  0.0335 -1.9545 -0.1998
 2028TIP3   OH227498   4.679   0.495  13.493  0.3016 -0.5711  0.4234
 2028TIP3    H127499   4.706   0.546  13.570  0.4930 -1.3966  0.9204
 2028TIP3    H227500   4.716   0.542  13.419  2.2938 -1.1133  1.0142
 2029TIP3   OH227501   2.875   1.489   0.576  0.0348 -0.1955 -0.3518
 2029TIP3    H127502   2.827   1.408   0.594 -0.8193  0.6716  1.4641
 2029TIP3    H227503   2.875   1.495   0.480 -0.3960 -2.0313 -0.5060
 2030TIP3   OH227504   0.146   3.260  16.257  0.8482  0.2874  0.6738
 2030TIP3    H127505   0.174   3.291  16.171  0.6469  1.2277  0.9344
 2030TIP3    H227506   0.103   3.176  16.240  1.3106  0.2004 -0.0713
 2031TIP3   OH227507   5.100   1.633   5.004 -0.1001  0.1615 -0.0817
 2031TIP3    H127508   5.194   1.634   5.026 -0.3086  0.3207  0.8514
 2031TIP3    H227509   5.063   1.705   5.054 -0.6040  0.5860 -1.0457
 2032TIP3   OH227510   3.772   6.284   1.676  0.6155  0.2076 -0.2537
 2032TIP3    H127511   3.692   6.244   1.642  0.6987 -0.1310 -0.0578
 2032TIP3    H227512   3.842   6.227   1.645  0.7675  0.4121 -0.2868
 2033TIP3   OH227513   0.151   4.022   0.113  0.3390 -0.5240  0.1112
 2033TIP3    H127514   0.200   4.000   0.192  0.7215 -0.0647  0.0081
 2033TIP3    H227515   0.173   3.953   0.051  1.2376 -0.0630 -0.0918
 2034TIP3   OH227516   0.697   5.068  11.880  0.1958  0.0696  0.4430
 2034TIP3    H127517   0.769   5.129  11.895 -0.2809  0.6130  0.5688
 2034TIP3    H227518   0.685   5.067  11.785 -0.6495  1.2067  0.5092
 2035TIP3   OH227519   0.727   0.837   5.135 -0.2018 -0.5188  0.5364
 2035TIP3    H127520   0.795   0.772   5.151  0.8505  0.7494  1.4312
 2035TIP3    H227521   0.720   0.886   5.217 -1.1010  0.3793 -0.0466
 2036TIP3   OH227522   6.319   4.222  14.166 -0.1732  0.1460 -0.4955
 2036TIP3    H127523   6.312   4.214  14.262 -0.1490  0.6409 -0.4512
 2036TIP3    H227524   6.362   4.306  14.152  1.0839 -0.5451 -0.9138
 2037TIP3   OH227525   4.589   0.700   0.599 -0.4104  0.2739 -0.1015
 2037TIP3    H127526   4.524   0.768   0.588 -0.9601 -0.0056  1.2924
 2037TIP3    H227527   4.540   0.624   0.630  0.4311 -0.2429  0.0083
 2038TIP3   OH227528   2.253   0.295  13.729  0.3587 -0.3363  0.5885
 2038TIP3    H127529   2.168   0.292  13.684  0.5508  0.7086  0.1211
 2038TIP3    H227530   2.253   0.218  13.785 -1.3419  0.2099  1.4015
 2039TIP3   OH227531   5.165   3.987   2.016  0.1039  0.5113 -0.0424
 2039TIP3    H127532   5.226   3.913   2.008 -0.2612  0.1757  0.2415
 2039TIP3    H227533   5.216   4.063   1.988 -0.0572 -0.0890 -2.1574
 2040TIP3   OH227534   1.162   5.012  15.322 -0.0461  0.6044  0.0727
 2040TIP3    H127535   1.233   5.017  15.258  0.1931  0.6322  0.3354
 2040TIP3    H227536   1.110   5.091  15.306 -1.5635 -0.7021 -1.8934
 2041TIP3   OH227537   3.049   2.096   0.021  0.3539  0.6495  0.3597
 2041TIP3    H127538   3.137   2.098   0.058  0.3353  0.5938  0.4069
 2041TIP3    H227539   3.016   2.186   0.031  0.2510  0.5724  0.7106
 2042TIP3   OH227540   3.045   1.966  10.029 -0.2846 -0.2919 -0.7507
 2042TIP3    H127541   2.994   2.047  10.028  0.2238  0.0816  0.6457
 2042TIP3    H227542   2.980   1.897  10.041 -0.4662  0.3236  3.1074
 2043TIP3   OH227543   2.122   6.535   0.800  0.9167 -0.0702  0.5324
 2043TIP3    H127544   2.163   6.466   0.748  0.9075  0.6656 -0.4704
 2043TIP3    H227545   2.050   6.491   0.845  0.7414 -0.6666 -0.3000
 2044TIP3   OH227546   3.071   6.726  11.768 -0.7831 -0.3527 -0.1938
 2044TIP3    H127547   3.085   6.642  11.725 -0.0172 -0.6443  0.5792
 2044TIP3    H227548   3.079   6.791  11.698  0.2759 -0.8223 -0.5255
 2045TIP3   OH227549   2.485   3.756  11.000 -0.4435 -0.4443 -0.2991
 2045TIP3    H127550   2.451   3.690  11.060 -0.5033 -0.4521 -0.3416
 2045TIP3    H227551   2.410   3.781  10.946 -1.3451  2.1409  1.9185
 2046TIP3   OH227552   3.033   0.599   2.039 -0.0296 -0.0497  0.6307
 2046TIP3    H127553   3.059   0.514   2.002  1.1426 -0.0649  1.4129
 2046TIP3    H227554   3.048   0.661   1.968 -1.3885 -0.5294 -0.1254
 2047TIP3   OH227555   3.567   1.151   0.393  0.1991 -0.1050  0.8371
 2047TIP3    H127556   3.525   1.097   0.459  0.7616 -0.3293  1.0196
 2047TIP3    H227557   3.562   1.099   0.312  0.2643 -0.2009  0.8947
 2048TIP3   OH227558   6.345   6.410  11.765 -0.0263  0.0685  0.4138
 2048TIP3    H127559   6.339   6.405  11.670 -1.3958 -0.7324  0.5160
 2048TIP3    H227560   6.272   6.356  11.797  0.3623  0.3763  1.9150
 2049TIP3   OH227561   3.909   1.930  16.614 -0.1030  0.3353  0.1518
 2049TIP3    H127562   3.958   1.995  16.564 -0.0315  0.3142  0.1938
 2049TIP3    H227563   3.976   1.886  16.667 -0.3323  1.1962  1.2084
 2050TIP3   OH227564   0.516   2.099  16.362 -0.7459  0.1610 -0.2354
 2050TIP3    H127565   0.589   2.139  16.411 -0.0625 -1.4812  0.1577
 2050TIP3    H227566   0.499   2.161  16.291  0.3047  1.1170  0.2958
 2051TIP3   OH227567   2.076   5.763   0.544  0.3875  0.0823  0.0618
 2051TIP3    H127568   2.060   5.841   0.491 -1.2458  1.3173  2.1916
 2051TIP3    H227569   2.170   5.746   0.534  0.9552  2.7529  0.0410
 2052TIP3   OH227570   3.237   2.191   5.483  0.0081  0.2567 -0.5594
 2052TIP3    H127571   3.144   2.211   5.476 -0.1283  0.3649  1.2286
 2052TIP3    H227572   3.242   2.096   5.486  0.0828  0.1961 -1.7752
 2053TIP3   OH227573   2.648   3.516   5.054 -0.3684 -0.3837 -0.8639
 2053TIP3    H127574   2.619   3.436   5.097 -3.1963  1.4190  0.8918
 2053TIP3    H227575   2.580   3.534   4.989 -0.3904  1.1822 -0.4380
 2054TIP3   OH227576   0.597   4.419   4.522  0.2006 -0.1724 -0.1493
 2054TIP3    H127577   0.522   4.379   4.479  0.0773 -0.1484  0.0440
 2054TIP3    H227578   0.650   4.454   4.450  0.1644 -0.4283 -0.3000
 2055TIP3   OH227579   4.894   5.017   2.111 -0.0049 -0.1766 -0.5453
 2055TIP3    H127580   4.889   5.044   2.019 -1.1139  2.0040  0.0698
 2055TIP3    H227581   4.976   5.055   2.142  0.9957 -1.9557 -0.8780
 2056TIP3   OH227582   1.035   2.258  12.140 -0.4498 -0.0346  0.0979
 2056TIP3    H127583   1.018   2.166  12.160  2.9156 -0.6315  0.7367
 2056TIP3    H227584   1.003   2.305  12.218 -0.1409 -0.9269  0.7856
 2057TIP3   OH227585   1.604   3.555   4.159 -0.0826  0.4254  0.3208
 2057TIP3    H127586   1.625   3.462   4.167 -0.6950  0.2410 -0.1098
 2057TIP3    H227587   1.568   3.563   4.070  1.0269  1.2777 -0.0719
 2058TIP3   OH227588   4.328   3.662  13.264  0.4414 -0.5656  0.2473
 2058TIP3    H127589   4.395   3.694  13.325 -0.1463 -2.9528  2.2708
 2058TIP3    H227590   4.255   3.723  13.275  1.2718  0.5185 -0.0331
 2059TIP3   OH227591   0.113   2.172  11.933 -0.4679  0.0649  0.5237
 2059TIP3    H127592   0.067   2.251  11.962 -1.5576 -0.5165  0.4190
 2059TIP3    H227593   0.044   2.107  11.920  0.0926 -0.1118 -2.0772
 2060TIP3   OH227594   1.077   3.314  12.642  0.3191 -0.4382 -0.0776
 2060TIP3    H127595   1.098   3.394  12.595  0.9670 -0.3641  0.3363
 2060TIP3    H227596   1.039   3.344  12.724  1.7653 -0.5188  0.6519
 2061TIP3   OH227597   1.625   0.697   1.932 -0.7391 -0.5043 -0.0608
 2061TIP3    H127598   1.660   0.783   1.909  0.2967 -0.0419  2.7838
 2061TIP3    H227599   1.691   0.635   1.899  0.1289  0.0374  0.5975
 2062TIP3   OH227600   6.501   5.915   3.330 -0.1045 -0.5074 -0.2928
 2062TIP3    H127601   6.553   5.911   3.410  0.3732  1.8849 -0.4032
 2062TIP3    H227602   6.495   5.824   3.300  0.4544 -1.3400  1.9600
 2063TIP3   OH227603   5.952   1.672  13.527  0.1680 -0.8876  0.3295
 2063TIP3    H127604   5.897   1.600  13.558 -1.0883 -0.6356 -1.2005
 2063TIP3    H227605   5.996   1.637  13.449 -2.2866  0.6410 -1.8778
 2064TIP3   OH227606   1.684   5.288  16.993 -0.1643  0.3690  0.1140
 2064TIP3    H127607   1.716   5.246  17.073 -4.0530 -0.9813  1.1896
 2064TIP3    H227608   1.617   5.349  17.024  0.1923  1.8968 -1.9859
 2065TIP3   OH227609   4.148   6.121   5.392  0.1671  0.0811  0.3848
 2065TIP3    H127610   4.231   6.082   5.368 -0.5206 -1.0853 -0.1804
 2065TIP3    H227611   4.117   6.163   5.312  0.1661  0.4259  0.5641
 2066TIP3   OH227612   0.932   5.293  11.525  0.3537 -0.4938  0.6186
 2066TIP3    H127613   0.945   5.283  11.619 -1.6859  1.9856  1.2719
 2066TIP3    H227614   0.895   5.210  11.497  2.6158 -1.9304  1.5847
 2067TIP3   OH227615   2.723   3.952  14.537  0.0266 -0.3798 -0.2978
 2067TIP3    H127616   2.645   3.991  14.577 -1.7352 -2.6116 -1.3138
 2067TIP3    H227617   2.786   4.023  14.533 -1.2502  1.0464  2.3296
 2068TIP3   OH227618   2.105   1.519  16.359  0.0571 -0.1198  0.6599
 2068TIP3    H127619   2.200   1.526  16.350 -0.0378  0.4132 -0.0094
 2068TIP3    H227620   2.092   1.498  16.451  0.8955 -1.7788  0.4415
 2069TIP3   OH227621   1.583   1.507   3.526  0.4091  0.0681 -0.1243
 2069TIP3    H127622   1.566   1.428   3.474 -0.6933  1.0078 -1.2649
 2069TIP3    H227623   1.518   1.503   3.596 -0.8727  0.7908 -1.2023
 2070TIP3   OH227624   4.410   2.461   5.184 -0.1915 -0.5273  0.4350
 2070TIP3    H127625   4.436   2.369   5.181  1.3110 -0.0834 -1.5140
 2070TIP3    H227626   4.318   2.459   5.210 -1.1454 -2.8103 -2.6255
 2071TIP3   OH227627   3.864   0.973   3.180  0.5373 -0.5132 -0.5128
 2071TIP3    H127628   3.814   1.035   3.127  1.4051 -1.5281 -2.6193
 2071TIP3    H227629   3.934   1.025   3.219 -0.3886  0.3394  0.0658
 2072TIP3   OH227630   6.739   5.338  15.424 -0.0185  0.7912  0.6836
 2072TIP3    H127631   6.742   5.291  15.506  0.0801 -1.4916 -0.5570
 2072TIP3    H227632   6.798   5.289  15.366 -1.4733  1.2442 -1.2661
 2073TIP3   OH227633   6.122   1.401  14.505  0.2185  0.7708 -0.3253
 2073TIP3    H127634   6.188   1.470  14.514 -0.0869  1.0364 -0.0815
 2073TIP3    H227635   6.054   1.425  14.568  0.1726  0.1690 -0.1416
 2074TIP3   OH227636   2.201   3.002   5.659  0.2046  0.3277 -0.4450
 2074TIP3    H127637   2.290   3.025   5.632 -0.0790  0.9734 -0.8509
 2074TIP3    H227638   2.211   2.964   5.746  0.8463  0.6516 -0.3723
 2075TIP3   OH227639   6.210   3.311  16.713 -0.4645 -0.7082 -0.2365
 2075TIP3    H127640   6.118   3.292  16.731 -0.6030  0.7981  0.8411
 2075TIP3    H227641   6.236   3.245  16.649 -1.8807 -2.0668  0.5393
 2076TIP3   OH227642   1.902   3.021   6.150 -0.3774 -0.4158 -0.1502
 2076TIP3    H127643   1.965   3.086   6.180  1.6984 -1.2759 -2.2749
 2076TIP3    H227644   1.838   3.071   6.100  1.1829  0.1306 -1.7436
 2077TIP3   OH227645   0.062   4.304   1.426  0.3995  0.5543  0.1346
 2077TIP3    H127646   0.147   4.269   1.396  1.5899  1.7817  1.9252
 2077TIP3    H227647   0.032   4.357   1.352  0.5548 -0.8612 -1.0067
 2078TIP3   OH227648   3.133   1.786  14.302 -0.1640  0.3417  0.1596
 2078TIP3    H127649   3.067   1.813  14.238 -0.7305 -1.0713  0.1118
 2078TIP3    H227650   3.091   1.716  14.352  0.9695  0.0594  0.7555
 2079TIP3   OH227651   0.995   0.767   3.655  0.1343 -0.0125 -0.3190
 2079TIP3    H127652   0.947   0.850   3.660  1.8778  0.9714  1.5144
 2079TIP3    H227653   0.937   0.704   3.698  0.3823  1.1556  1.8647
 2080TIP3   OH227654   1.267   5.703   2.944 -0.1273  0.2349  0.1705
 2080TIP3    H127655   1.312   5.624   2.914  0.0784 -0.0980  1.3296
 2080TIP3    H227656   1.229   5.679   3.029  0.4004  1.5374  0.7968
 2081TIP3   OH227657   2.984   2.894   2.251  0.0779 -0.2376 -0.5288
 2081TIP3    H127658   2.931   2.882   2.329 -1.1352 -0.4229 -1.3632
 2081TIP3    H227659   3.047   2.822   2.253  3.3347  2.3120  2.7604
 2082TIP3   OH227660   0.951   4.171  16.160 -0.3225 -0.1322  0.3111
 2082TIP3    H127661   0.989   4.177  16.072  1.0622 -1.4708  0.7897
 2082TIP3    H227662   1.024   4.192  16.219 -0.8604 -0.7121  1.1954
 2083TIP3   OH227663   0.865   4.436  11.300 -0.3090  0.0710  0.0751
 2083TIP3    H127664   0.880   4.354  11.252 -0.3681 -0.3232  0.7091
 2083TIP3    H227665   0.848   4.501  11.232 -1.5461 -0.7049 -0.3893
 2084TIP3   OH227666   6.155   1.585  12.230  0.6450 -0.0326  0.2363
 2084TIP3    H127667   6.153   1.620  12.141 -2.7793 -1.3653 -0.3535
 2084TIP3    H227668   6.176   1.492  12.219  0.8882 -0.0618  0.8993
 2085TIP3   OH227669   4.055   0.584  16.844 -0.0992 -0.2888 -0.0184
 2085TIP3    H127670   4.144   0.599  16.812  0.6191  0.0390  1.9743
 2085TIP3    H227671   4.064   0.512  16.907 -0.8185  1.0628  1.7234
 2086TIP3   OH227672   0.819   2.268  13.847  0.4244 -0.5813  0.3408
 2086TIP3    H127673   0.763   2.201  13.885 -0.5000 -0.2688 -0.4500
 2086TIP3    H227674   0.783   2.351  13.879 -0.7878 -0.2628 -1.6580
 2087TIP3   OH227675   1.132   2.720   1.629  0.0901 -0.0150  0.4901
 2087TIP3    H127676   1.168   2.727   1.718  0.4328 -0.0962  0.3604
 2087TIP3    H227677   1.040   2.696   1.642 -0.7382  3.0299  0.8983
 2088TIP3   OH227678   2.092   1.887   5.495  0.4794  0.0161 -0.2123
 2088TIP3    H127679   2.024   1.868   5.560  0.2274  0.6309 -0.2915
 2088TIP3    H227680   2.165   1.920   5.547  0.7977 -0.8265 -0.1079
 2089TIP3   OH227681   6.555   5.430   3.949  0.2663  0.2670  0.4766
 2089TIP3    H127682   6.621   5.473   4.003 -0.4647  2.0665  0.0133
 2089TIP3    H227683   6.592   5.431   3.861  0.1339  0.1733  0.4197
 2090TIP3   OH227684   1.936   4.780  10.838  0.6132  0.1380  0.1626
 2090TIP3    H127685   1.958   4.816  10.752 -0.5070 -1.0529 -0.6599
 2090TIP3    H227686   1.916   4.688  10.821 -3.7393  0.7579  0.9298
 2091TIP3   OH227687   1.664   2.500  11.283  0.1219 -0.2864  0.5630
 2091TIP3    H127688   1.613   2.517  11.203  1.4347 -2.6538 -0.8658
 2091TIP3    H227689   1.647   2.577  11.337  0.5744  2.3460 -2.6823
 2092TIP3   OH227690   4.152   1.530   6.313 -0.2774 -0.0133 -0.0414
 2092TIP3    H127691   4.195   1.444   6.309  0.1606  0.2439 -1.1714
 2092TIP3    H227692   4.192   1.580   6.242 -2.1389  0.3929 -0.8463
 2093TIP3   OH227693   0.380   0.864  12.167  0.0550 -0.4460  0.3812
 2093TIP3    H127694   0.443   0.797  12.141  0.4612 -0.6393  1.7720
 2093TIP3    H227695   0.433   0.932  12.209 -0.4632  0.3086 -0.1621
 2094TIP3   OH227696   3.422   5.453  11.611 -0.3101  0.2513  0.4404
 2094TIP3    H127697   3.327   5.457  11.599 -0.0183  1.8081 -2.0103
 2094TIP3    H227698   3.439   5.361  11.632 -2.3387 -0.0481  1.0688
 2095TIP3   OH227699   4.447   4.198   1.657  0.2292  0.0283  0.2332
 2095TIP3    H127700   4.394   4.136   1.607 -0.1252 -0.7477  1.5268
 2095TIP3    H227701   4.537   4.181   1.629  0.2468 -1.7441  1.2079
 2096TIP3   OH227702   4.156   5.242   4.565 -0.0145 -0.6903  0.0904
 2096TIP3    H127703   4.063   5.261   4.575  0.0798 -0.0118 -0.2343
 2096TIP3    H227704   4.160   5.173   4.499 -0.3053 -0.9821  0.3780
 2097TIP3   OH227705   0.537   3.887  16.441  0.0972  0.5214  0.0098
 2097TIP3    H127706   0.615   3.906  16.390  1.5530 -0.8314  1.6340
 2097TIP3    H227707   0.487   3.826  16.387  0.9069  0.2105 -0.3915
 2098TIP3   OH227708   3.928   3.818   5.824  0.5719  0.2861 -0.2423
 2098TIP3    H127709   3.856   3.762   5.793  0.5632  0.7009 -0.9953
 2098TIP3    H227710   4.005   3.761   5.822  0.2311 -0.2303  0.7982
 2099TIP3   OH227711   3.803   5.050   5.815  0.3327  0.2756 -0.1542
 2099TIP3    H127712   3.778   5.007   5.733 -0.0730  1.1010 -0.4683
 2099TIP3    H227713   3.722   5.054   5.866  0.5006  0.1276  0.1301
 2100TIP3   OH227714   0.532   6.169   5.365 -0.1592  0.0425 -0.2806
 2100TIP3    H127715   0.466   6.133   5.425 -0.8277  0.6357 -0.6357
 2100TIP3    H227716   0.539   6.261   5.390  2.2894 -0.4993  1.2919
 2101TIP3   OH227717   0.849   0.017  10.332 -0.6035 -0.3791 -0.2568
 2101TIP3    H127718   0.896   0.006  10.249 -1.7064 -1.7544 -0.7395
 2101TIP3    H227719   0.842   0.112  10.344  1.9325 -0.1153 -0.3445
 2102TIP3   OH227720   6.717   1.838   4.992  0.0345 -0.2754  0.1739
 2102TIP3    H127721   6.697   1.909   4.931  0.9598 -0.4133 -0.3156
 2102TIP3    H227722   6.778   1.877   5.055 -0.1470 -0.4007  0.4287
 2103TIP3   OH227723   5.211   5.407   5.668 -0.1608 -0.1357 -0.2849
 2103TIP3    H127724   5.218   5.494   5.708  0.5560 -0.2507 -0.1612
 2103TIP3    H227725   5.239   5.420   5.578 -0.1603 -0.2182 -0.2966
 2104TIP3   OH227726   1.459   0.314  15.843 -0.8400 -0.2669  0.3349
 2104TIP3    H127727   1.479   0.297  15.752 -0.9517  1.0153  0.0461
 2104TIP3    H227728   1.544   0.315  15.887 -0.8476 -1.7070  0.4133
 2105TIP3   OH227729   2.204   0.144   1.493 -0.5174  0.0169  0.2227
 2105TIP3    H127730   2.180   0.056   1.465 -2.1358  0.1037  1.2266
 2105TIP3    H227731   2.296   0.136   1.519 -0.3861 -1.1537 -0.5159
 2106TIP3   OH227732   6.174   6.441   4.349  0.0782 -0.0206  0.2355
 2106TIP3    H127733   6.103   6.500   4.326  0.8433  0.0995 -2.1414
 2106TIP3    H227734   6.227   6.435   4.269  1.0479 -2.4825  0.9605
 2107TIP3   OH227735   5.317   3.597  14.767  0.6674 -0.2085 -0.3689
 2107TIP3    H127736   5.307   3.545  14.847  0.1520  0.1123 -0.2173
 2107TIP3    H227737   5.409   3.588  14.744  0.7553 -0.5513  0.0937
 2108TIP3   OH227738   3.371   1.467  15.366  0.5276  0.2814  0.3153
 2108TIP3    H127739   3.393   1.559  15.374  1.8150 -0.0997  1.5522
 2108TIP3    H227740   3.396   1.429  15.450  0.6844 -1.3276 -0.4258
 2109TIP3   OH227741   1.698   6.758  16.489 -0.3334 -0.4849 -0.0442
 2109TIP3    H127742   1.637   6.818  16.446 -0.4491 -1.1191 -0.8161
 2109TIP3    H227743   1.725   6.803  16.568 -1.1203  0.1905 -0.1406
 2110TIP3   OH227744   1.918   2.424  13.600  0.8209  0.5028  0.1991
 2110TIP3    H127745   1.981   2.353  13.611 -0.5040 -0.8665 -0.7127
 2110TIP3    H227746   1.903   2.428  13.506 -1.0745  0.2198  0.4620
 2111TIP3   OH227747   0.608   4.018  13.210  0.3526  0.0567  0.0597
 2111TIP3    H127748   0.663   4.096  13.202 -0.1177  0.4361  0.4776
 2111TIP3    H227749   0.551   4.021  13.134 -2.9504  2.7434  2.3588
 2112TIP3   OH227750   3.468   2.021   1.025 -0.4299 -0.6545  0.0684
 2112TIP3    H127751   3.521   2.078   0.970 -0.2034 -1.2034 -0.2855
 2112TIP3    H227752   3.528   1.952   1.053 -0.5554 -0.4112  0.9626
 2113TIP3   OH227753   2.322   3.390  16.890  0.5910 -0.1314  0.2213
 2113TIP3    H127754   2.410   3.412  16.922  0.0594  2.1672  0.2367
 2113TIP3    H227755   2.268   3.386  16.969  0.3189  0.2404  0.0497
 2114TIP3   OH227756   4.055   3.525  14.986 -0.4561 -0.3358  0.4299
 2114TIP3    H127757   3.986   3.584  14.957  0.5529  0.4371 -0.4415
 2114TIP3    H227758   4.056   3.455  14.921 -0.6091 -0.4956  0.5998
 2115TIP3   OH227759   6.625   1.916   1.033 -0.2311  0.0211  0.3196
 2115TIP3    H127760   6.646   1.971   0.957 -0.3629  1.9366  1.6080
 2115TIP3    H227761   6.544   1.871   1.008  1.5492 -2.2345 -2.0433
 2116TIP3   OH227762   1.742   3.337   3.353 -0.1618  0.2364  0.3759
 2116TIP3    H127763   1.748   3.316   3.446 -0.2065  2.3856  0.9035
 2116TIP3    H227764   1.707   3.426   3.350  0.1590  0.3446 -1.6918
 2117TIP3   OH227765   0.858   5.414   6.374  0.3674  0.1338 -0.7253
 2117TIP3    H127766   0.938   5.365   6.393  0.5035  0.8482  0.6859
 2117TIP3    H227767   0.889   5.503   6.358 -0.0486  0.1565 -1.4271
 2118TIP3   OH227768   0.548   1.332   0.517 -0.4116  0.4472 -0.0014
 2118TIP3    H127769   0.524   1.243   0.490 -1.1529  0.2488  1.2009
 2118TIP3    H227770   0.612   1.361   0.452 -0.5822 -0.7506 -0.7348
 2119TIP3   OH227771   0.415   3.397   6.114  0.2368 -0.4173  0.7135
 2119TIP3    H127772   0.365   3.476   6.093 -0.4064 -0.4342  2.0206
 2119TIP3    H227773   0.430   3.404   6.209 -0.8277 -2.3846  1.0883
 2120TIP3   OH227774   5.455   2.110  14.178 -0.0730 -0.0813  0.4591
 2120TIP3    H127775   5.400   2.090  14.102  1.2419 -1.8278 -0.0704
 2120TIP3    H227776   5.531   2.155  14.142  0.3924 -0.5991  0.7838
 2121TIP3   OH227777   2.513   1.132  11.249 -0.1158  0.3369 -0.4094
 2121TIP3    H127778   2.418   1.119  11.242  0.0233 -0.5384 -0.8438
 2121TIP3    H227779   2.535   1.102  11.338  0.0153 -1.3099 -0.9678
 2122TIP3   OH227780   4.673   1.906  14.657  0.0553  0.3833  0.3035
 2122TIP3    H127781   4.623   1.980  14.692 -2.4887 -0.6135 -0.9351
 2122TIP3    H227782   4.650   1.832  14.714  0.4123 -0.0274 -0.0786
 2123TIP3   OH227783   4.237   0.092   2.056  0.2526  0.0570 -0.5251
 2123TIP3    H127784   4.154   0.120   2.095  0.1038 -0.7467 -0.2530
 2123TIP3    H227785   4.273   0.172   2.017  1.2376  1.3824  2.7139
 2124TIP3   OH227786   5.888   0.384  13.410  0.3561 -0.3764 -0.0432
 2124TIP3    H127787   5.902   0.420  13.497 -2.0902  1.6056 -0.3610
 2124TIP3    H227788   5.919   0.452  13.350 -0.9645 -0.3159 -0.6903
 2125TIP3   OH227789   2.833   1.807   5.568  0.2713 -0.1845  0.1827
 2125TIP3    H127790   2.768   1.759   5.517 -0.1109  0.6312 -0.1116
 2125TIP3    H227791   2.815   1.784   5.659  0.3313 -0.8836  0.0191
 2126TIP3   OH227792   6.486   1.572   1.894 -0.1128  0.4338 -0.3147
 2126TIP3    H127793   6.503   1.547   1.803  1.6635 -0.8671  0.3210
 2126TIP3    H227794   6.477   1.488   1.940 -0.6636  1.0718  0.7729
 2127TIP3   OH227795   6.291   6.123   3.141 -0.2776 -0.5078  0.1842
 2127TIP3    H127796   6.352   6.089   3.207  0.2926  0.8693  0.3976
 2127TIP3    H227797   6.219   6.060   3.141  0.0175 -0.8972  1.6505
 2128TIP3   OH227798   3.080   3.560  11.287 -0.4426  0.3110 -0.1283
 2128TIP3    H127799   3.164   3.538  11.327  0.2202  2.0019 -0.5235
 2128TIP3    H227800   3.058   3.646  11.323 -1.2674  0.5543 -1.1681
 2129TIP3   OH227801   5.338   5.971  11.507 -0.0119  0.0628 -0.0293
 2129TIP3    H127802   5.272   5.981  11.575 -0.3161  1.9056 -0.5180
 2129TIP3    H227803   5.294   6.000  11.427 -0.5850 -4.5958 -1.6958
 2130TIP3   OH227804   3.056   6.168   0.704  0.2609 -0.1812 -0.0279
 2130TIP3    H127805   3.122   6.237   0.707  0.0164  0.0840 -0.4895
 2130TIP3    H227806   3.105   6.087   0.693  0.5008  0.0569 -0.8489
 2131TIP3   OH227807   0.900   3.483   4.159  0.1125 -0.2328  0.2246
 2131TIP3    H127808   0.978   3.431   4.139  0.5486  0.6049 -0.2893
 2131TIP3    H227809   0.930   3.573   4.155 -0.8581  0.0945  0.1487
 2132TIP3   OH227810   1.974   5.954  14.324  0.0319  0.2552 -0.7199
 2132TIP3    H127811   1.940   5.930  14.410 -1.2517 -0.6358 -1.4651
 2132TIP3    H227812   2.066   5.977  14.341 -0.0227 -0.5093  0.7817
 2133TIP3   OH227813   1.594   0.828  12.313 -0.1831  0.6452  0.6184
 2133TIP3    H127814   1.583   0.770  12.238 -0.9977 -0.1058  1.2934
 2133TIP3    H227815   1.571   0.774  12.389  0.2561  1.4908  1.3826
 2134TIP3   OH227816   2.768   2.102   1.336 -0.3408  0.3660  0.4970
 2134TIP3    H127817   2.742   2.011   1.321 -1.4812  0.3905  2.0649
 2134TIP3    H227818   2.746   2.147   1.254  0.8773 -0.8503 -0.5583
 2135TIP3   OH227819   6.719   0.788  13.106  0.0855 -0.2930  0.3739
 2135TIP3    H127820   6.631   0.818  13.126  0.4066  0.9479 -0.0047
 2135TIP3    H227821   6.710   0.740  13.024 -0.5191 -1.7306  1.2426
 2136TIP3   OH227822   4.182   1.477   5.810 -0.0704  0.0680  0.1425
 2136TIP3    H127823   4.250   1.540   5.837  1.0977 -1.4204  0.8657
 2136TIP3    H227824   4.131   1.463   5.890  0.3407 -0.6660  0.2893
 2137TIP3   OH227825   4.223   1.516   0.222  0.3104  0.1632  0.3302
 2137TIP3    H127826   4.147   1.548   0.173 -2.0088 -2.0805  2.1962
 2137TIP3    H227827   4.195   1.431   0.256  2.3531  0.8105  4.0951
 2138TIP3   OH227828   4.673   1.614   3.665 -0.0508  0.0698  0.0412
 2138TIP3    H127829   4.745   1.554   3.645  0.7293  0.6062  1.1462
 2138TIP3    H227830   4.714   1.699   3.676 -1.0091  0.6060 -0.3868
 2139TIP3   OH227831   0.929   2.926  13.339 -0.6959 -0.2623  0.1109
 2139TIP3    H127832   0.851   2.980  13.337 -1.1673 -0.9290 -2.3631
 2139TIP3    H227833   0.975   2.953  13.419 -2.8336  0.9606  1.0021
 2140TIP3   OH227834   6.313   2.073  11.647 -0.8810 -0.3618 -0.0383
 2140TIP3    H127835   6.260   2.153  11.650  0.6869  0.7118  0.6404
 2140TIP3    H227836   6.362   2.074  11.729 -0.0493 -1.4698 -0.5006
 2141TIP3   OH227837   1.403   2.408   0.431 -0.4603  0.0375 -0.2517
 2141TIP3    H127838   1.377   2.493   0.394 -1.3594  1.0752  2.5300
 2141TIP3    H227839   1.499   2.412   0.434 -0.4492  0.5693 -0.9303
 2142TIP3   OH227840   1.642   1.057   0.159  0.3221 -0.0656 -0.3670
 2142TIP3    H127841   1.724   1.105   0.147  0.0507  0.5041  0.0198
 2142TIP3    H227842   1.581   1.123   0.193 -0.3177 -0.4677 -0.7413
 2143TIP3   OH227843   1.742   2.742   0.242 -0.3601 -0.6723 -0.4494
 2143TIP3    H127844   1.701   2.742   0.329 -0.5027 -2.3510 -0.4885
 2143TIP3    H227845   1.763   2.834   0.226  0.8864 -0.4411  1.9477
 2144TIP3   OH227846   1.471   3.172   3.412 -0.7440 -0.0268 -0.0506
 2144TIP3    H127847   1.392   3.219   3.442  0.4423  2.6014 -0.7245
 2144TIP3    H227848   1.492   3.212   3.328  2.3768  0.7907  0.9814
 2145TIP3   OH227849   0.938   1.219   5.652  0.1251  0.2375  0.6064
 2145TIP3    H127850   0.872   1.163   5.693  0.8277 -0.1486  1.2283
 2145TIP3    H227851   0.972   1.273   5.723  1.7040 -0.7823  0.6705
 2146TIP3   OH227852   1.263   1.164  14.568  0.3525  0.1745  0.0487
 2146TIP3    H127853   1.176   1.126  14.582 -0.3363  1.3297 -0.8624
 2146TIP3    H227854   1.309   1.099  14.514 -0.3771  0.0701 -0.4707
 2147TIP3   OH227855   6.759   2.668   6.117  0.1099 -0.6423  0.4487
 2147TIP3    H127856   6.812   2.746   6.102  0.5643 -1.2691 -1.4928
 2147TIP3    H227857   6.822   2.602   6.146  0.3202 -1.1753 -1.1288
 2148TIP3   OH227858   3.442   0.246  14.003  0.3192  0.2971  0.6108
 2148TIP3    H127859   3.351   0.224  13.987 -0.3686  1.9885  1.8877
 2148TIP3    H227860   3.483   0.164  14.029 -1.1265 -0.2665  1.1859
 2149TIP3   OH227861   2.976   3.844  11.055  0.2718 -0.5854  0.3976
 2149TIP3    H127862   3.047   3.858  11.117  1.4073 -2.4128 -0.4138
 2149TIP3    H227863   2.931   3.766  11.088  0.1599 -0.8767 -0.4111
 2150TIP3   OH227864   6.473   5.314  15.351 -0.0114 -0.3812 -0.6395
 2150TIP3    H127865   6.451   5.259  15.427 -0.2430  0.9518  0.2963
 2150TIP3    H227866   6.558   5.352  15.373 -1.2426  2.0864  0.2271
 2151TIP3   OH227867   4.178   4.145  10.129  0.1360 -0.5159 -0.2818
 2151TIP3    H127868   4.230   4.119  10.053 -0.7235 -1.9904 -0.4032
 2151TIP3    H227869   4.226   4.107  10.204 -0.6417 -1.7669 -0.3836
 2152TIP3   OH227870   2.823   6.246   5.455 -0.4370 -0.3712 -0.5512
 2152TIP3    H127871   2.887   6.197   5.404  0.2911  1.2827 -1.2925
 2152TIP3    H227872   2.876   6.299   5.515 -1.1788 -0.1011 -0.1197
 2153TIP3   OH227873   0.055   2.943  14.650 -0.0488 -0.4079 -0.1985
 2153TIP3    H127874   0.053   2.984  14.737 -0.3465  1.7098 -1.1526
 2153TIP3    H227875   0.117   2.871  14.660  1.1254  0.7275  1.3800
 2154TIP3   OH227876   3.037   5.071   3.290  0.2045  0.4529 -0.3401
 2154TIP3    H127877   2.964   5.132   3.284  2.1162  3.1320  1.5059
 2154TIP3    H227878   3.115   5.124   3.274  1.9021 -2.0364 -1.0190
 2155TIP3   OH227879   6.178   5.017   0.068  0.1704  0.1509  0.1634
 2155TIP3    H127880   6.160   5.000   0.161  3.1493  1.1607  1.0300
 2155TIP3    H227881   6.149   4.937   0.024 -1.2403 -0.3953  1.9494
 2156TIP3   OH227882   1.360   0.638   2.358  0.0165 -0.3629  0.6904
 2156TIP3    H127883   1.373   0.612   2.267  1.4909  0.5582  0.5988
 2156TIP3    H227884   1.384   0.731   2.360 -1.6297  0.0732  1.6963
 2157TIP3   OH227885   0.735   2.615  15.133  0.2107  0.2157 -0.3690
 2157TIP3    H127886   0.783   2.697  15.132 -1.7131  1.4042 -0.5554
 2157TIP3    H227887   0.649   2.638  15.168 -0.9017 -1.4176 -1.8584
 2158TIP3   OH227888   5.062   3.707   6.109  0.0544  0.0807 -0.3365
 2158TIP3    H127889   4.999   3.732   6.042  0.5516  0.6026 -0.6206
 2158TIP3    H227890   5.032   3.622   6.140 -0.3827 -0.0038 -0.9718
 2159TIP3   OH227891   4.176   5.539   3.371  0.0269  0.0045 -0.9359
 2159TIP3    H127892   4.193   5.564   3.462  0.5125 -1.3678 -0.6216
 2159TIP3    H227893   4.081   5.547   3.361  0.0380  0.7979 -0.5270
 2160TIP3   OH227894   3.811   2.981  16.926 -0.2123 -0.1714 -0.5652
 2160TIP3    H127895   3.732   2.942  16.961  0.1219 -1.3963 -1.1078
 2160TIP3    H227896   3.804   3.074  16.947 -0.7550 -0.6085  1.3019
 2161TIP3   OH227897   2.876   1.661   5.114  0.2053  0.3328  0.1538
 2161TIP3    H127898   2.933   1.676   5.039 -0.4468 -1.3625 -0.7216
 2161TIP3    H227899   2.840   1.748   5.134  0.8172  0.9160 -1.1374
 2162TIP3   OH227900   2.913   0.749   5.080 -0.3055  0.7135  0.4020
 2162TIP3    H127901   2.835   0.805   5.086 -1.2743 -0.5739  0.4055
 2162TIP3    H227902   2.919   0.708   5.167 -1.6031 -1.6530 -0.5254
 2163TIP3   OH227903   6.233   5.901  12.650  0.0693 -0.1554 -0.5565
 2163TIP3    H127904   6.267   5.908  12.560 -1.4598  0.2978 -1.1226
 2163TIP3    H227905   6.164   5.966  12.655  1.4829  1.3281  1.6451
 2164TIP3   OH227906   3.258   6.311   2.293  0.0996 -1.6051 -0.0433
 2164TIP3    H127907   3.297   6.386   2.338  0.6826 -0.9646 -1.5671
 2164TIP3    H227908   3.216   6.261   2.363 -2.1034  1.1912  0.8467
 2165TIP3   OH227909   0.112   4.823  12.457 -0.3451  0.0673 -0.0692
 2165TIP3    H127910   0.114   4.918  12.466  1.6942  0.1143 -0.5504
 2165TIP3    H227911   0.024   4.798  12.484 -1.2203  2.1617 -0.8074
 2166TIP3   OH227912   4.798   0.880  12.361 -0.2714  0.2204 -0.3679
 2166TIP3    H127913   4.795   0.975  12.376 -1.4367  0.1023  0.2471
 2166TIP3    H227914   4.734   0.844  12.422  1.0213 -1.0975  0.2695
 2167TIP3   OH227915   4.403   0.537  13.242 -0.4292  0.8119 -0.1196
 2167TIP3    H127916   4.452   0.473  13.191  0.7487 -0.7765  2.7616
 2167TIP3    H227917   4.420   0.620  13.197 -0.8755 -0.5980 -3.1814
 2168TIP3   OH227918   5.661   3.236   1.014 -0.2064 -0.3757  0.7162
 2168TIP3    H127919   5.577   3.273   1.043  1.2616  1.0578  3.6918
 2168TIP3    H227920   5.705   3.309   0.970 -0.4125 -1.0593 -0.6519
 2169TIP3   OH227921   0.070   4.177  11.004 -0.0161 -0.5067  0.3796
 2169TIP3    H127922   0.037   4.251  10.952  0.2385 -0.6927 -0.0566
 2169TIP3    H227923  -0.004   4.118  11.012 -0.3371 -0.0133  1.0799
 2170TIP3   OH227924   4.801   0.531  14.492  0.3340 -0.1100 -0.4004
 2170TIP3    H127925   4.867   0.600  14.502 -1.8451  2.0879 -0.2357
 2170TIP3    H227926   4.842   0.453  14.528  2.4563  1.4024  0.6856
 2171TIP3   OH227927   0.810   3.173   2.093 -0.2807  0.1989  0.1099
 2171TIP3    H127928   0.829   3.080   2.110 -0.6621 -0.3121 -2.0316
 2171TIP3    H227929   0.885   3.204   2.043 -0.3011  0.9969  0.5582
 2172TIP3   OH227930   1.229   4.521  12.532  0.4859  0.6261 -0.4729
 2172TIP3    H127931   1.160   4.464  12.567  0.6284  0.7935  0.0840
 2172TIP3    H227932   1.309   4.490  12.574  0.3292  2.3643  1.2468
 2173TIP3   OH227933   0.873   6.065  12.011 -0.1866  0.0464 -0.4193
 2173TIP3    H127934   0.942   6.105  12.065 -0.1291 -1.8158  0.9747
 2173TIP3    H227935   0.792   6.091  12.054 -0.1169 -2.2887  1.3452
 2174TIP3   OH227936   3.608   4.396  16.326 -0.2091 -0.0636  0.2837
 2174TIP3    H127937   3.538   4.354  16.276  0.0776 -0.8618  0.5411
 2174TIP3    H227938   3.686   4.389  16.271 -0.2430  0.4980  0.1555
 2175TIP3   OH227939   5.019   2.328   4.150  0.3269 -0.7201  0.0370
 2175TIP3    H127940   4.941   2.345   4.096 -0.4384 -1.4847  0.8603
 2175TIP3    H227941   5.086   2.300   4.088  0.4496  1.4214 -0.8817
 2176TIP3   OH227942   2.252   5.316  14.801 -0.1468  0.2417  0.6164
 2176TIP3    H127943   2.288   5.404  14.813  0.7848 -0.1816  1.0568
 2176TIP3    H227944   2.157   5.329  14.800 -0.0228  1.2587  0.6004
 2177TIP3   OH227945   0.300   6.498   3.521 -0.8874  0.1158 -0.2437
 2177TIP3    H127946   0.207   6.520   3.513 -1.5216 -1.4373  1.8644
 2177TIP3    H227947   0.326   6.532   3.607 -0.0382 -1.0842  0.0115
 2178TIP3   OH227948   2.033   0.270   3.186  0.1506  0.6879 -0.3407
 2178TIP3    H127949   1.978   0.291   3.262  1.0153 -0.1847  0.5524
 2178TIP3    H227950   2.014   0.178   3.168  1.2521  0.3914 -0.0519
 2179TIP3   OH227951   0.359   5.561  16.827  0.2510  0.9350  0.5523
 2179TIP3    H127952   0.319   5.609  16.754  0.9874  5.3404  2.7113
 2179TIP3    H227953   0.424   5.504  16.786 -1.0507  1.3479 -2.3164
 2180TIP3   OH227954   6.390   1.493   3.008  0.6218  0.0020  0.0162
 2180TIP3    H127955   6.433   1.481   3.093  0.0917 -0.6869  0.1954
 2180TIP3    H227956   6.352   1.407   2.988  0.3294  0.2891 -0.6911
 2181TIP3   OH227957   6.465   5.224   6.447 -0.5198 -0.0832  0.4276
 2181TIP3    H127958   6.416   5.305   6.461 -2.5244 -0.5833 -2.6911
 2181TIP3    H227959   6.554   5.252   6.428 -0.9183  1.3031  0.5200
 2182TIP3   OH227960   1.540   5.428  16.775  0.1703 -0.1666 -0.1533
 2182TIP3    H127961   1.459   5.398  16.816  0.6814 -1.2512  0.1113
 2182TIP3    H227962   1.519   5.514  16.739 -0.5654  0.4173  1.5546
 2183TIP3   OH227963   1.397   1.733  12.012 -0.5407  0.5869  0.6314
 2183TIP3    H127964   1.347   1.680  11.950 -1.3043  0.4247  1.3529
 2183TIP3    H227965   1.337   1.804  12.036 -0.5897  0.1820  1.8045
 2184TIP3   OH227966   0.946   5.014   0.381  0.0882 -0.0131  0.0612
 2184TIP3    H127967   0.870   4.963   0.408 -1.1497  1.0815 -1.2045
 2184TIP3    H227968   0.913   5.071   0.312  1.9671  0.8238 -0.1972
 2185TIP3   OH227969   1.046   4.326  13.366  0.0822 -0.0318  0.4971
 2185TIP3    H127970   1.082   4.237  13.362 -0.8880 -0.4585  0.8902
 2185TIP3    H227971   1.119   4.383  13.342  0.5159 -0.9868 -0.5636
 2186TIP3   OH227972   0.764   5.957   5.510 -0.1602 -0.0944 -0.2900
 2186TIP3    H127973   0.822   6.027   5.539  0.1504 -0.2812 -0.4625
 2186TIP3    H227974   0.684   5.970   5.561  1.2492 -1.9540  2.7158
 2187TIP3   OH227975   1.978   1.848  14.972 -0.6564  0.0485 -0.0349
 2187TIP3    H127976   2.034   1.770  14.971 -1.2904 -0.4163 -0.5554
 2187TIP3    H227977   1.936   1.848  14.886  0.8756  2.1180 -0.8613
 2188TIP3   OH227978   4.165   2.676   2.874 -0.2823 -0.5504 -0.5149
 2188TIP3    H127979   4.232   2.613   2.851 -1.3492 -2.8686  2.1142
 2188TIP3    H227980   4.213   2.756   2.896  1.5159 -1.7082 -0.0562
 2189TIP3   OH227981   1.232   3.049   5.018 -0.2608 -0.1278 -0.4389
 2189TIP3    H127982   1.269   2.974   5.065 -2.4394 -1.2183 -0.3478
 2189TIP3    H227983   1.295   3.067   4.948  1.6840 -0.2248  1.1861
 2190TIP3   OH227984   2.663   0.884  10.092 -0.2498 -0.3434  0.2902
 2190TIP3    H127985   2.726   0.856  10.158  1.0342 -0.5497 -0.9661
 2190TIP3    H227986   2.623   0.963  10.128  1.7477  0.6020  0.5273
 2191TIP3   OH227987   0.805   6.276   0.134  0.1253 -0.1873 -0.2383
 2191TIP3    H127988   0.846   6.343   0.079 -0.6659  0.7873  0.3284
 2191TIP3    H227989   0.754   6.223   0.073  2.2801 -1.5169 -0.9819
 2192TIP3   OH227990   5.473   4.920  11.285 -0.7320 -0.4675  0.6084
 2192TIP3    H127991   5.493   4.981  11.214 -1.1357 -0.3653  0.5798
 2192TIP3    H227992   5.386   4.887  11.265 -1.0813 -0.0250  1.3428
 2193TIP3   OH227993   1.800   1.642  10.932 -0.0857  0.1784  0.2904
 2193TIP3    H127994   1.850   1.662  11.011 -0.0105  0.1001  0.2626
 2193TIP3    H227995   1.771   1.552  10.943  1.4909 -0.4816 -0.5913
 2194TIP3   OH227996   4.221   0.929   2.564 -0.0888  0.6992 -0.1479
 2194TIP3    H127997   4.207   0.853   2.622  1.6123  0.5378  0.1015
 2194TIP3    H227998   4.140   0.979   2.570 -1.4937 -1.3650 -0.7434
 2195TIP3   OH227999   4.296   3.940   2.249 -0.0933  0.2851 -0.5093
 2195TIP3    H128000   4.305   3.954   2.155  1.3858 -0.1905 -0.4665
 2195TIP3    H228001   4.274   4.026   2.284 -1.8763  0.2359 -1.3918
 2196TIP3   OH228002   5.190   2.140   1.045  0.6669  0.4899 -0.3286
 2196TIP3    H128003   5.103   2.151   1.007  0.8371 -0.4182 -1.0291
 2196TIP3    H228004   5.245   2.201   0.996  0.7347 -0.1205 -1.0220
 2197TIP3   OH228005   6.401   4.249   3.380  0.3187 -0.1530 -0.2479
 2197TIP3    H128006   6.329   4.187   3.364  0.5960 -0.0738 -2.0080
 2197TIP3    H228007   6.460   4.202   3.439  0.1898 -1.3280 -1.0171
 2198TIP3   OH228008   1.487   6.076   2.730 -0.0146  0.0029 -0.6554
 2198TIP3    H128009   1.415   6.063   2.791  0.4061  0.5066 -0.0391
 2198TIP3    H228010   1.504   5.990   2.693  0.2488 -0.4634  0.5278
 2199TIP3   OH228011   3.864   0.479  17.170  0.4413 -0.1639 -0.0787
 2199TIP3    H128012   3.854   0.511  17.260  1.2272 -0.6652  0.1974
 2199TIP3    H228013   3.893   0.556  17.121 -0.6977  0.2925 -0.0659
 2200TIP3   OH228014   0.870   0.268   5.711  0.0525  0.3564 -0.6910
 2200TIP3    H128015   0.777   0.283   5.724  0.2112  0.4266  0.3961
 2200TIP3    H228016   0.874   0.201   5.643 -0.8316 -0.7211  0.2845
 2201TIP3   OH228017   4.973   5.812   4.065 -0.2076  0.6165 -0.5679
 2201TIP3    H128018   4.906   5.771   4.010 -0.3160  1.2429 -0.9175
 2201TIP3    H228019   5.027   5.740   4.095 -1.6149 -0.0314  0.5419
 2202TIP3   OH228020   1.599   6.410  14.098  0.4203 -0.6952  0.5098
 2202TIP3    H128021   1.639   6.412  14.011  1.6918 -1.3349  1.0653
 2202TIP3    H228022   1.654   6.350  14.149 -0.6390 -0.7748  1.5999
 2203TIP3   OH228023   4.828   1.823   2.473  0.1969  0.1346 -0.0368
 2203TIP3    H128024   4.914   1.818   2.514  0.4599 -0.3796 -0.6266
 2203TIP3    H228025   4.787   1.739   2.495  0.4798 -0.2983 -1.1026
 2204TIP3   OH228026   3.540   6.381  10.366  0.6168  0.1305 -0.1421
 2204TIP3    H128027   3.562   6.291  10.390 -0.0689 -0.4878 -1.7023
 2204TIP3    H228028   3.597   6.435  10.421 -1.4522 -1.0745  3.5874
 2205TIP3   OH228029   6.597   1.646   3.607  0.1415 -0.0425  0.7264
 2205TIP3    H128030   6.625   1.557   3.628 -1.0433 -0.4157  0.7877
 2205TIP3    H228031   6.564   1.640   3.517  1.5449  0.7016  0.1234
 2206TIP3   OH228032   1.911   2.079   5.105  0.6746  0.7709  0.0143
 2206TIP3    H128033   1.999   2.043   5.104  1.1339  1.3980  3.8325
 2206TIP3    H228034   1.920   2.165   5.145 -1.4664  1.7090 -1.2951
 2207TIP3   OH228035   5.764   6.009  15.297  0.5740  0.2157  0.8515
 2207TIP3    H128036   5.746   5.965  15.380  2.3339  1.2000  1.8146
 2207TIP3    H228037   5.730   6.097  15.309  0.6790  0.3102  0.4653
 2208TIP3   OH228038   0.896   2.672  12.795  0.1950  0.4704 -0.1382
 2208TIP3    H128039   0.944   2.642  12.873 -0.3790 -1.1421 -0.3684
 2208TIP3    H228040   0.812   2.703  12.828  0.1370  0.2422 -0.0755
 2209TIP3   OH228041   4.003   5.033   0.225 -0.6692  0.1942  0.2426
 2209TIP3    H128042   4.056   5.024   0.146 -2.5375 -1.3647 -0.9517
 2209TIP3    H228043   4.023   4.955   0.277 -0.5580  0.4399  0.5689
 2210TIP3   OH228044   5.441   0.535  15.795  0.1466  0.2211 -0.0265
 2210TIP3    H128045   5.394   0.461  15.834  2.6782  0.1103  3.3291
 2210TIP3    H228046   5.372   0.590  15.758 -2.1771 -1.9540  0.7545
 2211TIP3   OH228047   1.738   3.194   0.386  0.0496 -0.3145 -0.1957
 2211TIP3    H128048   1.768   3.114   0.342  3.0328  0.8215 -0.4482
 2211TIP3    H228049   1.717   3.254   0.314  0.5268  0.0420 -0.0396
 2212TIP3   OH228050   5.699   1.805   2.109  0.1227  0.1649 -0.0477
 2212TIP3    H128051   5.701   1.709   2.107  2.4336  0.1098  1.4328
 2212TIP3    H228052   5.606   1.826   2.117 -0.3423 -2.0790  1.9626
 2213TIP3   OH228053   1.984   1.492  14.341 -0.5011 -0.4066 -0.1065
 2213TIP3    H128054   2.005   1.461  14.429 -0.9458  0.0269  0.1622
 2213TIP3    H228055   2.068   1.495  14.296 -0.4040 -1.6808 -0.0504
 2214TIP3   OH228056   2.582   5.349  12.762 -0.2398  0.2614 -0.1253
 2214TIP3    H128057   2.526   5.273  12.748 -1.7853  1.5301 -1.0563
 2214TIP3    H228058   2.529   5.410  12.813  0.8081  0.9353  0.2062
 2215TIP3   OH228059   4.493   0.063  14.268 -0.3968 -0.2261 -0.1576
 2215TIP3    H128060   4.547  -0.001  14.223  1.5532  0.9868  0.3473
 2215TIP3    H228061   4.538   0.081  14.350 -2.4287 -0.3334  1.0651
 2216TIP3   OH228062   5.714   6.267  15.340  0.0579 -0.6088 -0.1507
 2216TIP3    H128063   5.767   6.308  15.409 -0.5510  1.5567 -0.9047
 2216TIP3    H228064   5.625   6.267  15.376 -0.1164 -0.2867 -0.5805
 2217TIP3   OH228065   2.967   0.929   6.219  0.0928 -0.9785  0.2127
 2217TIP3    H128066   2.994   0.911   6.309  1.3544 -3.4994 -0.5662
 2217TIP3    H228067   2.972   0.844   6.175 -0.5078  0.1605 -2.2454
 2218TIP3   OH228068   3.811   5.024   1.344 -0.9893  0.1351 -0.2418
 2218TIP3    H128069   3.869   5.063   1.278 -1.0675 -1.4103 -1.2909
 2218TIP3    H228070   3.723   5.035   1.308 -1.1050  0.0395  0.0100
 2219TIP3   OH228071   5.233   6.129   0.222 -0.0045  0.0595  0.3939
 2219TIP3    H128072   5.282   6.132   0.140  1.3846 -1.2458  1.1214
 2219TIP3    H228073   5.163   6.066   0.206  0.5470 -0.5518  0.3233
 2220TIP3   OH228074   5.024   6.154   4.805  0.1542  0.3636  0.0386
 2220TIP3    H128075   4.945   6.208   4.814  1.0032  1.8078 -0.8229
 2220TIP3    H228076   4.990   6.064   4.800 -1.2874  0.7488  1.6581
 2221TIP3   OH228077   1.209   1.113   3.560  0.5424  0.5445  0.4857
 2221TIP3    H128078   1.162   1.072   3.633 -0.8865  1.3500  0.0657
 2221TIP3    H228079   1.225   1.042   3.499  2.3691 -0.2791  1.8511
 2222TIP3   OH228080   2.729   1.361  16.334 -0.4210 -0.1085 -0.6375
 2222TIP3    H128081   2.695   1.272  16.319 -0.7161  0.1575 -1.6265
 2222TIP3    H228082   2.797   1.372  16.267  1.0081 -0.2931  0.7273
 2223TIP3   OH228083   0.227   3.593  13.952 -0.2956  0.5393  0.2941
 2223TIP3    H128084   0.136   3.566  13.940 -0.7036  2.1549 -0.6003
 2223TIP3    H228085   0.255   3.551  14.033 -1.5898 -0.5912  0.1789
 2224TIP3   OH228086   3.840   6.080   0.309 -0.6063 -0.3885  0.4816
 2224TIP3    H128087   3.869   6.081   0.218 -2.0248 -2.2521 -0.0572
 2224TIP3    H228088   3.921   6.083   0.360  0.5653 -3.3220 -0.9285
 2225TIP3   OH228089   6.362   2.489   5.784  0.7246 -0.0187 -0.4241
 2225TIP3    H128090   6.291   2.519   5.841  1.8660  0.6927  0.6629
 2225TIP3    H228091   6.352   2.393   5.783 -0.3742  0.0872 -0.4656
 2226TIP3   OH228092   3.039   4.317   1.076  0.6974  0.1558  0.3157
 2226TIP3    H128093   3.078   4.376   1.011  0.4566  0.4347  0.4219
 2226TIP3    H228094   2.990   4.254   1.023  0.0374  0.7155  0.2388
 2227TIP3   OH228095   3.562   6.328   3.916  0.4481  0.2247  0.0220
 2227TIP3    H128096   3.545   6.321   4.010 -0.1730 -0.8393 -0.1543
 2227TIP3    H228097   3.644   6.279   3.903 -1.2507 -2.7870 -0.4489
 2228TIP3   OH228098   1.896   3.301  10.344  0.5049  0.1380  0.0648
 2228TIP3    H128099   1.953   3.376  10.328 -0.3448  0.8009  0.0557
 2228TIP3    H228100   1.829   3.335  10.404 -0.0905 -0.5223 -0.2189
 2229TIP3   OH228101   0.082   6.747   4.439  0.4727 -0.1351  0.1292
 2229TIP3    H128102   0.018   6.814   4.463 -0.4923 -1.6125  1.9040
 2229TIP3    H228103   0.167   6.789   4.454 -0.0928  0.2067  2.9904
 2230TIP3   OH228104   1.236   0.633  13.301  0.3812 -0.1067 -0.4353
 2230TIP3    H128105   1.179   0.595  13.234  1.8645 -1.2777 -1.0916
 2230TIP3    H228106   1.303   0.566  13.316  0.7108  0.5888  1.4426
 2231TIP3   OH228107   0.904   4.463   3.980 -0.3699 -0.3117 -0.2564
 2231TIP3    H128108   0.928   4.501   4.065 -0.5384 -1.5690  0.3762
 2231TIP3    H228109   0.988   4.434   3.943 -0.4240 -0.7730 -0.0158
 2232TIP3   OH228110   1.104   4.750  15.020  0.2192  0.3407 -0.3261
 2232TIP3    H128111   1.022   4.788  14.988 -0.3826 -0.2001  0.5481
 2232TIP3    H228112   1.078   4.693  15.092  1.4099  0.4797  0.2373
 2233TIP3   OH228113   4.666   0.322   0.439 -0.6236 -0.8913  0.1421
 2233TIP3    H128114   4.615   0.319   0.520  1.4026 -1.1078  1.4658
 2233TIP3    H228115   4.730   0.392   0.452 -0.7118 -0.4209 -1.5886
 2234TIP3   OH228116   0.624   4.440  15.121 -0.0219  0.4543 -0.1106
 2234TIP3    H128117   0.710   4.445  15.079  0.6196 -0.3038  1.0350
 2234TIP3    H228118   0.585   4.526  15.107  0.7491  0.6807 -1.0004
 2235TIP3   OH228119   0.718   2.744   4.664  0.2699  0.0034  0.1783
 2235TIP3    H128120   0.785   2.679   4.687  0.2017  0.4431  1.7953
 2235TIP3    H228121   0.727   2.757   4.570 -0.3312 -3.0035 -0.3740
 2236TIP3   OH228122   6.299   1.432  11.849 -0.0452  0.3276 -0.4107
 2236TIP3    H128123   6.306   1.375  11.925  0.0102  2.0609  0.9417
 2236TIP3    H228124   6.210   1.417  11.816 -0.0353 -0.5009 -0.0938
 2237TIP3   OH228125   0.952   0.924   5.783 -0.5261 -0.3586  0.3220
 2237TIP3    H128126   0.872   0.967   5.753  0.3218 -0.1657 -1.8695
 2237TIP3    H228127   0.988   0.884   5.704  2.5696  1.2061  0.8003
 2238TIP3   OH228128   2.255   1.567  11.332 -0.1768  0.0917  0.0594
 2238TIP3    H128129   2.223   1.655  11.316 -0.3635 -0.1428 -0.9118
 2238TIP3    H228130   2.182   1.509  11.309  0.3211 -0.3584 -0.4360
 2239TIP3   OH228131   5.570   5.254   4.101  0.0242 -0.1527  0.1337
 2239TIP3    H128132   5.500   5.310   4.134 -0.1248 -0.1310 -0.2104
 2239TIP3    H228133   5.635   5.252   4.171 -1.7974 -2.8821  1.8902
 2240TIP3   OH228134   0.765   6.780   0.027 -0.0211  0.2128  0.6497
 2240TIP3    H128135   0.718   6.697   0.037 -0.3836  0.0863 -1.5456
 2240TIP3    H228136   0.724   6.839   0.091 -2.8585 -0.0497 -0.7614
 2241TIP3   OH228137   4.367   2.700   0.763 -0.4647  0.2862  0.0689
 2241TIP3    H128138   4.381   2.793   0.779 -2.7506  0.6703  0.2898
 2241TIP3    H228139   4.421   2.656   0.828 -0.3283  1.5079  0.8148
 2242TIP3   OH228140   3.897   4.861   2.541 -0.3268  0.1214  0.1009
 2242TIP3    H128141   3.976   4.908   2.514 -0.3939  1.3192  1.8291
 2242TIP3    H228142   3.827   4.926   2.537 -0.7472 -0.2622  0.9301
 2243TIP3   OH228143   3.699   5.983  14.420  0.3675  0.2901  0.1422
 2243TIP3    H128144   3.654   5.972  14.337  0.7315  1.2592 -0.2023
 2243TIP3    H228145   3.792   5.980  14.399  0.4644  0.6183  0.4948
 2244TIP3   OH228146   2.002   3.335  14.673  0.3446 -0.4861 -0.5940
 2244TIP3    H128147   1.947   3.389  14.728 -0.1197 -0.5709 -0.9701
 2244TIP3    H228148   2.092   3.357  14.700  0.1468  0.0472 -0.3530
 2245TIP3   OH228149   4.240   2.034   1.425 -0.0627  0.2361  0.5581
 2245TIP3    H128150   4.236   2.018   1.330  0.8239  0.6254  0.4450
 2245TIP3    H228151   4.150   2.021   1.455 -0.7849  2.0694 -0.6472
 2246TIP3   OH228152   6.511   5.397   4.687  0.2789  0.1529  0.1237
 2246TIP3    H128153   6.578   5.440   4.634 -0.3577 -0.3859 -1.1630
 2246TIP3    H228154   6.479   5.326   4.632 -1.4213  0.4584  0.6681
 2247TIP3   OH228155   0.271   3.487   3.336  0.5205  0.1024 -0.1551
 2247TIP3    H128156   0.178   3.469   3.352  0.5510 -0.7165 -0.8377
 2247TIP3    H228157   0.273   3.579   3.312 -0.3838 -0.3117 -2.0082
 2248TIP3   OH228158   4.331   1.156  16.135 -0.2310  0.2412 -0.2664
 2248TIP3    H128159   4.391   1.163  16.209 -0.3624  1.1656 -0.2356
 2248TIP3    H228160   4.290   1.070  16.145 -0.3785  0.4247  0.8349
 2249TIP3   OH228161   0.162   6.216  16.112  0.0147 -0.0646  0.6272
 2249TIP3    H128162   0.220   6.155  16.067 -1.7984 -0.7111 -0.9464
 2249TIP3    H228163   0.075   6.195  16.080 -1.0436  1.3207  2.4074
 2250TIP3   OH228164   0.919   0.551   2.303 -0.2551  0.4635  0.2946
 2250TIP3    H128165   0.958   0.636   2.285  0.3891  0.6071  2.1041
 2250TIP3    H228166   0.992   0.490   2.296 -0.3067  0.3309  0.8784
 2251TIP3   OH228167   3.897   0.878  14.508 -0.1160 -0.6535  0.2436
 2251TIP3    H128168   3.922   0.863  14.600 -0.2680 -0.6451  0.2856
 2251TIP3    H228169   3.814   0.926  14.513 -0.4464 -1.2028  0.0943
 2252TIP3   OH228170   5.190   1.447  12.032  0.0062 -0.4341 -0.0100
 2252TIP3    H128171   5.191   1.466  12.126  0.2159  0.3291 -0.1606
 2252TIP3    H228172   5.231   1.360  12.025 -1.9900 -1.5149  0.7930
 2253TIP3   OH228173   4.305   2.114   1.683  0.0154  0.0551  0.2013
 2253TIP3    H128174   4.222   2.150   1.713 -1.7871 -2.7491 -1.0249
 2253TIP3    H228175   4.294   2.101   1.589  1.0721 -2.0898  0.2989
 2254TIP3   OH228176   2.107   3.763   1.904  0.4988  0.5203  0.4638
 2254TIP3    H128177   2.128   3.687   1.851 -1.7373  0.5977 -0.6439
 2254TIP3    H228178   2.132   3.738   1.993 -1.8789 -2.3285  0.4880
 2255TIP3   OH228179   0.566   5.988   5.945  0.1695  0.3586  0.2333
 2255TIP3    H128180   0.497   5.961   6.006 -1.3142  0.4775 -1.3125
 2255TIP3    H228181   0.634   5.921   5.954 -0.4143 -0.1013  1.3569
 2256TIP3   OH228182   0.564   3.908   4.002  0.2979 -0.0326 -0.2004
 2256TIP3    H128183   0.573   3.909   3.907 -1.7485 -1.5521 -0.4768
 2256TIP3    H228184   0.589   3.819   4.028 -1.4243 -0.3939  0.3549
 2257TIP3   OH228185   2.074   4.460   2.948 -0.2638 -0.9961 -0.3435
 2257TIP3    H128186   2.096   4.456   2.855  1.3301 -4.2135  0.0313
 2257TIP3    H228187   2.157   4.475   2.992 -1.1716  1.8246  0.6185
 2258TIP3   OH228188   4.177   4.570  10.770  0.0931  0.1403 -0.3095
 2258TIP3    H128189   4.103   4.527  10.814  1.7180 -2.3338  0.2147
 2258TIP3    H228190   4.190   4.518  10.691  0.6261  1.1992 -0.9301
 2259TIP3   OH228191   1.492   0.775   5.260 -0.6751  0.2437  0.7279
 2259TIP3    H128192   1.538   0.704   5.215 -0.8946  1.7136 -2.0581
 2259TIP3    H228193   1.553   0.849   5.255 -1.3705  0.8813  1.4815
 2260TIP3   OH228194   5.217   6.185  16.486 -0.1442 -0.3519  0.2771
 2260TIP3    H128195   5.132   6.178  16.443  0.4672 -1.8401 -0.8212
 2260TIP3    H228196   5.201   6.238  16.564 -1.7362  0.7192 -0.7137
 2261TIP3   OH228197   2.171   4.413  13.291 -0.5992 -0.1955 -0.5108
 2261TIP3    H128198   2.081   4.422  13.261  0.1214  0.9808 -2.5620
 2261TIP3    H228199   2.214   4.494  13.263  1.5337 -1.5074 -1.3424
 2262TIP3   OH228200   5.072   0.354   4.865  0.2744  0.6447 -0.6445
 2262TIP3    H128201   4.984   0.389   4.866  0.0912  0.2163 -1.1828
 2262TIP3    H228202   5.129   0.430   4.877 -0.2036  0.7420  1.1872
 2263TIP3   OH228203   5.375   4.446   5.590 -0.9421  0.5931  0.4975
 2263TIP3    H128204   5.390   4.359   5.553 -2.9738  0.2610  0.3496
 2263TIP3    H228205   5.332   4.495   5.520 -2.1258  0.8854  1.3860
 2264TIP3   OH228206   3.706   1.654  11.880 -0.4834  0.0578  0.8630
 2264TIP3    H128207   3.684   1.731  11.933 -0.3107  2.1183 -1.8018
 2264TIP3    H228208   3.698   1.685  11.790  1.8992 -2.4283 -0.3438
 2265TIP3   OH228209   3.607   6.242  11.611 -0.6782 -0.6632 -0.3728
 2265TIP3    H128210   3.694   6.205  11.624  0.0912  0.5235 -1.7374
 2265TIP3    H228211   3.576   6.204  11.529 -1.5723 -1.2613  0.2196
 2266TIP3   OH228212   6.391   0.564  16.315 -0.3863  0.0981 -0.7818
 2266TIP3    H128213   6.405   0.500  16.245  0.4595 -0.4949 -0.0863
 2266TIP3    H228214   6.385   0.648  16.270 -0.9915 -0.4080 -1.6629
 2267TIP3   OH228215   4.098   4.055   5.939 -0.5007 -0.3221 -0.1473
 2267TIP3    H128216   4.174   4.109   5.916  1.0640 -2.5180 -0.5280
 2267TIP3    H228217   4.126   4.006   6.016 -1.5361 -1.1724 -0.2868
 2268TIP3   OH228218   0.662   1.856  12.805  0.1398  0.2206  0.7789
 2268TIP3    H128219   0.622   1.847  12.718  0.6990 -0.9599  0.6260
 2268TIP3    H228220   0.756   1.845  12.790  0.4801  1.9720  1.2780
 2269TIP3   OH228221   4.255   5.010   3.500 -0.0895 -0.1107  0.3430
 2269TIP3    H128222   4.234   5.099   3.529  0.3516  0.1868 -0.2205
 2269TIP3    H228223   4.346   5.015   3.471 -0.6341 -0.2738 -1.5115
 2270TIP3   OH228224   6.506   3.129  15.705 -0.3005 -0.5156 -0.6685
 2270TIP3    H128225   6.552   3.046  15.721 -2.4150 -1.5211  0.5059
 2270TIP3    H228226   6.479   3.124  15.613  0.0735 -0.8459 -0.7658
 2271TIP3   OH228227   2.282   6.639  14.248  0.0654 -0.5917  0.7516
 2271TIP3    H128228   2.229   6.587  14.307 -0.9049  0.0319  0.4635
 2271TIP3    H228229   2.219   6.695  14.202  0.8593 -0.5764 -0.3703
 2272TIP3   OH228230   3.190   4.789  17.037 -0.4900 -0.1691  0.1422
 2272TIP3    H128231   3.193   4.859  16.972 -0.6827 -0.0131  0.2973
 2272TIP3    H228232   3.140   4.719  16.996  1.1217 -0.8987 -0.6656
 2273TIP3   OH228233   2.273   1.822   4.067  0.2976  0.5421 -0.0123
 2273TIP3    H128234   2.219   1.756   4.024 -0.5671  0.7054  0.7782
 2273TIP3    H228235   2.356   1.778   4.085 -0.7205 -0.8010  1.7033
 2274TIP3   OH228236   6.435   1.133   2.124 -0.0336 -0.3026  0.0036
 2274TIP3    H128237   6.394   1.175   2.200 -1.0788 -1.1825 -0.0332
 2274TIP3    H228238   6.449   1.043   2.152 -2.4451 -1.2555 -1.4795
 2275TIP3   OH228239   5.088   2.596   0.604 -0.0065  0.1722 -0.3161
 2275TIP3    H128240   5.165   2.627   0.557 -0.0953  0.4657 -0.2685
 2275TIP3    H228241   5.017   2.654   0.576 -0.1559  0.0648 -0.1643
 2276TIP3   OH228242   0.465   6.521   2.280 -0.0941  0.0345 -0.3092
 2276TIP3    H128243   0.417   6.476   2.350  1.3097  0.2069  0.8116
 2276TIP3    H228244   0.456   6.614   2.302  0.1067  0.1024 -0.5206
 2277TIP3   OH228245   3.684   0.191   0.167  0.1454 -0.0283  1.0265
 2277TIP3    H128246   3.771   0.230   0.173  0.2593  0.0896 -0.7648
 2277TIP3    H228247   3.637   0.225   0.243  2.0974 -1.3314  2.9318
 2278TIP3   OH228248   4.539   4.303   9.952 -0.7957 -0.4415  0.0658
 2278TIP3    H128249   4.482   4.377   9.974  0.8627  0.9387 -0.0571
 2278TIP3    H228250   4.555   4.259  10.035  0.1251  0.8175  0.5952
 2279TIP3   OH228251   3.661   6.722  11.926 -0.1307 -0.5707  0.0712
 2279TIP3    H128252   3.619   6.778  11.992 -0.3267  0.1513 -0.6526
 2279TIP3    H228253   3.649   6.769  11.844  3.2040  0.3348 -0.0343
 2280TIP3   OH228254   1.425   5.919  15.092 -0.9897 -0.0994 -0.7662
 2280TIP3    H128255   1.489   5.928  15.022 -1.1154  3.4596 -0.5839
 2280TIP3    H228256   1.350   5.972  15.064 -2.1562 -0.7678  0.8787
 2281TIP3   OH228257   1.196   3.338   5.975 -0.3088  0.1341 -0.1329
 2281TIP3    H128258   1.235   3.272   6.032  0.3312  0.2453 -0.4405
 2281TIP3    H228259   1.159   3.402   6.035 -1.7291 -0.9378  0.1898
 2282TIP3   OH228260   1.238   4.069  13.052 -0.5565  0.2294  0.4084
 2282TIP3    H128261   1.271   4.110  13.132  1.0643 -1.6568  0.7735
 2282TIP3    H228262   1.238   3.976  13.070 -3.0341 -0.0866 -0.8094
 2283TIP3   OH228263   1.237   1.837   5.032  0.1073  0.3586 -0.2609
 2283TIP3    H128264   1.175   1.840   5.105 -0.9768 -0.8089 -1.0918
 2283TIP3    H228265   1.184   1.849   4.954  1.0195 -0.0307 -0.9639
 2284TIP3   OH228266   2.776   3.463   0.981  0.4386 -0.7399  0.1436
 2284TIP3    H128267   2.682   3.447   0.977  0.2415  0.0120  1.1682
 2284TIP3    H228268   2.788   3.548   0.938  1.1210 -2.2401 -2.8875
 2285TIP3   OH228269   1.740   4.569   4.985 -0.6471  0.2017  0.4751
 2285TIP3    H128270   1.788   4.635   5.035  0.1003  0.9060 -1.1274
 2285TIP3    H228271   1.766   4.486   5.025  2.6366  0.4743 -0.8406
 2286TIP3   OH228272   6.586   6.200  11.611 -0.0746  0.9667 -0.0925
 2286TIP3    H128273   6.500   6.171  11.641  0.2461  0.2569  0.1604
 2286TIP3    H228274   6.594   6.289  11.646 -1.4152  1.7184 -1.5918
 2287TIP3   OH228275   2.552   3.799  16.304 -0.1448 -0.2203 -0.8522
 2287TIP3    H128276   2.595   3.725  16.260  0.8484 -0.5441  0.6033
 2287TIP3    H228277   2.624   3.857  16.329 -0.6303 -0.2646  0.7183
 2288TIP3   OH228278   0.453   4.595  13.635  0.2037 -0.4901  0.4767
 2288TIP3    H128279   0.424   4.520  13.583 -0.1633  0.3941 -0.6291
 2288TIP3    H228280   0.493   4.654  13.571  2.4433 -0.6524  1.6173
 2289TIP3   OH228281   2.529   4.355   2.594 -0.7634 -0.1187 -0.1709
 2289TIP3    H128282   2.585   4.293   2.546  0.4314  0.0652  0.9132
 2289TIP3    H228283   2.455   4.371   2.536 -1.1319 -2.5911 -0.4668
 2290TIP3   OH228284   2.869   1.143  14.930 -0.1045 -0.2591 -0.2435
 2290TIP3    H128285   2.916   1.093  14.996 -1.3388  2.5598  3.0977
 2290TIP3    H228286   2.923   1.221  14.916 -0.8542  0.1374 -1.0667
 2291TIP3   OH228287   3.025   4.732  13.249 -0.9931  0.0431  0.1051
 2291TIP3    H128288   2.969   4.809  13.238  0.3318  1.3158  1.7634
 2291TIP3    H228289   2.964   4.658  13.253 -2.4832  1.2607  0.8146
 2292TIP3   OH228290   4.705   5.664   2.741 -0.5059 -0.0924 -0.3484
 2292TIP3    H128291   4.784   5.610   2.745  0.4951  1.2463 -1.1607
 2292TIP3    H228292   4.665   5.655   2.828  1.2427  0.2073  0.5304
 2293TIP3   OH228293   3.754   5.414  16.707 -0.0955 -0.4634  0.0433
 2293TIP3    H128294   3.675   5.364  16.688 -0.0034 -0.1380 -1.2634
 2293TIP3    H228295   3.723   5.501  16.730 -0.1147 -0.1035 -1.2494
 2294TIP3   OH228296   0.611   2.502   3.643  0.7405 -0.0272  0.0055
 2294TIP3    H128297   0.558   2.454   3.579  0.9807 -0.2231 -0.0482
 2294TIP3    H228298   0.645   2.434   3.701 -0.9479  0.2960  1.4685
 2295TIP3   OH228299   1.501   1.782  10.326 -0.6463  0.2056  0.0255
 2295TIP3    H128300   1.507   1.747  10.415  1.1126 -1.2533 -0.5951
 2295TIP3    H228301   1.429   1.733  10.286 -0.0274 -0.7127  0.0139
 2296TIP3   OH228302   2.136   3.194   0.398 -0.1466 -0.7459  0.0036
 2296TIP3    H128303   2.122   3.243   0.478  0.7325 -1.8494  0.8692
 2296TIP3    H228304   2.231   3.177   0.397  0.0988  0.3398 -1.9343
 2297TIP3   OH228305   3.640   6.096  16.380 -0.2437 -0.1858 -0.6582
 2297TIP3    H128306   3.652   6.182  16.420  0.3995 -1.0335  1.1021
 2297TIP3    H228307   3.630   6.113  16.286  0.7203  1.7262 -0.4501
 2298TIP3   OH228308   0.401   4.673  13.179 -0.2676  0.2360 -0.0270
 2298TIP3    H128309   0.453   4.752  13.169 -0.2734  0.1026 -1.1932
 2298TIP3    H228310   0.310   4.704  13.184 -0.5591  0.1984 -3.3094
 2299TIP3   OH228311   6.247   0.707  12.308 -0.1967  0.1271 -0.6622
 2299TIP3    H128312   6.325   0.727  12.359 -0.1355 -0.1915 -0.6288
 2299TIP3    H228313   6.199   0.789  12.304 -0.6823 -0.0639  0.7151
 2300TIP3   OH228314   2.293   1.295  13.242 -0.1982 -0.0833 -0.7594
 2300TIP3    H128315   2.316   1.202  13.246  1.0199  0.2217  0.1131
 2300TIP3    H228316   2.363   1.338  13.292 -1.1072  1.2350 -0.5902
 2301TIP3   OH228317   0.691   3.652  16.219  0.2863 -0.0006 -0.0101
 2301TIP3    H128318   0.744   3.724  16.185  2.8203 -1.3655  0.7561
 2301TIP3    H228319   0.714   3.648  16.312 -0.4450 -1.2751  0.1410
 2302TIP3   OH228320   3.346   3.976   3.683  0.7818 -0.0722  0.4049
 2302TIP3    H128321   3.270   3.926   3.714  0.5326 -0.4676 -0.7669
 2302TIP3    H228322   3.364   3.939   3.596  1.7782  0.6103  0.3103
 2303TIP3   OH228323   5.061   2.350   1.858  0.8983  0.3028  0.3605
 2303TIP3    H128324   5.072   2.367   1.952  0.8630 -1.4737  0.7351
 2303TIP3    H228325   5.103   2.265   1.845 -1.5780 -0.8568 -0.6467
 2304TIP3   OH228326   0.115   1.765  16.393 -0.0709 -0.6009 -0.5827
 2304TIP3    H128327   0.170   1.800  16.464 -0.9384 -0.4454  0.0265
 2304TIP3    H228328   0.070   1.842  16.358  0.6209 -0.6167 -1.5695
 2305TIP3   OH228329   4.067   2.809   5.750  0.2311  0.3098  0.6267
 2305TIP3    H128330   3.975   2.829   5.737  0.2070 -0.5580 -0.7232
 2305TIP3    H228331   4.067   2.738   5.814 -0.2121 -1.1693 -0.9375
 2306TIP3   OH228332   1.956   2.515   4.959 -0.4111  0.5273 -0.1062
 2306TIP3    H128333   2.005   2.575   4.903 -0.6487  0.0856 -0.8050
 2306TIP3    H228334   2.008   2.435   4.960 -0.7917  0.2767 -0.3166
 2307TIP3   OH228335   2.582   5.552  12.006 -0.1545 -0.4600  0.4169
 2307TIP3    H128336   2.675   5.530  12.002  0.0966  0.6689 -1.9424
 2307TIP3    H228337   2.541   5.496  11.940 -1.0794 -0.5975  1.0884
 2308TIP3   OH228338   3.244   1.011   0.097 -0.4397 -0.5533  0.0399
 2308TIP3    H128339   3.229   0.990   0.189  0.3905  0.6180  0.4594
 2308TIP3    H228340   3.157   1.034   0.064 -0.8601 -1.6471  0.3251
 2309TIP3   OH228341   1.767   4.561  11.983  0.3513  0.4551 -0.4538
 2309TIP3    H128342   1.768   4.567  12.079  1.0527  0.2428 -0.4394
 2309TIP3    H228343   1.822   4.634  11.954 -1.7398  1.9544 -0.8029
 2310TIP3   OH228344   2.135   5.420   0.323 -0.3212  0.3531 -0.7229
 2310TIP3    H128345   2.148   5.326   0.314  1.9349  0.2993  1.8085
 2310TIP3    H228346   2.064   5.429   0.386 -1.2744  0.4060 -1.7764
 2311TIP3   OH228347   6.542   4.849  17.180 -0.0847  0.0753 -0.1381
 2311TIP3    H128348   6.569   4.893  17.261  1.6598  0.1209 -0.7063
 2311TIP3    H228349   6.624   4.826  17.136 -0.9855 -0.7946 -1.4543
 2312TIP3   OH228350   2.723   6.110  14.464 -0.3714 -0.7275 -0.1009
 2312TIP3    H128351   2.779   6.178  14.502  0.6722 -0.2780 -2.2818
 2312TIP3    H228352   2.777   6.032  14.462  0.6440 -0.0757 -3.0349
 2313TIP3   OH228353   0.813   3.741   1.376  0.6005  0.1133 -0.1662
 2313TIP3    H128354   0.882   3.774   1.317 -0.4915  1.2174 -0.8780
 2313TIP3    H228355   0.848   3.756   1.464  0.9685  1.4073 -0.4999
 2314TIP3   OH228356   6.760   1.434  16.634 -0.6273 -0.0535 -0.0531
 2314TIP3    H128357   6.717   1.443  16.719  0.3566 -0.7572  0.5429
 2314TIP3    H228358   6.852   1.455  16.651 -0.4135 -0.2269 -0.9326
 2315TIP3   OH228359   5.765   3.730  12.032 -0.6124  0.2416 -0.6693
 2315TIP3    H128360   5.752   3.733  11.938 -2.0554  0.8288 -0.4752
 2315TIP3    H228361   5.769   3.822  12.059 -0.5775  0.0812 -0.1169
 2316TIP3   OH228362   6.408   4.259  16.219 -0.2557 -0.4436  0.2608
 2316TIP3    H128363   6.449   4.172  16.223  1.0120  0.1013 -0.2161
 2316TIP3    H228364   6.406   4.279  16.125  0.8869  0.6691  0.4480
 2317TIP3   OH228365   5.912   1.509   4.910 -0.1562 -0.3633 -0.2497
 2317TIP3    H128366   5.963   1.566   4.967  0.5865 -0.4142 -0.8532
 2317TIP3    H228367   5.839   1.563   4.881 -0.4703 -0.2980  0.6444
 2318TIP3   OH228368   4.013   4.204  12.308  0.1830  0.4711  0.4064
 2318TIP3    H128369   3.973   4.284  12.274 -0.9125 -0.0073  0.4965
 2318TIP3    H228370   4.025   4.148  12.231 -0.6006  0.0943  0.5459
 2319TIP3   OH228371   1.639   5.280  11.863  0.1847 -0.8234 -0.3592
 2319TIP3    H128372   1.566   5.342  11.859  1.1169  0.3736  0.4628
 2319TIP3    H228373   1.684   5.289  11.779 -1.1941 -2.3717 -1.3287
 2320TIP3   OH228374   4.377   5.443  14.883 -0.1215  0.1170 -0.4912
 2320TIP3    H128375   4.397   5.351  14.866 -1.4832 -0.1321 -0.9000
 2320TIP3    H228376   4.341   5.444  14.972 -2.9558 -0.2802 -1.5301
 2321TIP3   OH228377   3.045   0.531   4.507 -0.0087 -0.1947  0.2862
 2321TIP3    H128378   3.077   0.550   4.595  1.5806  0.7169 -0.4538
 2321TIP3    H228379   3.066   0.439   4.493  0.4347 -0.1408  0.5779
 2322TIP3   OH228380   0.492   6.477  14.376  0.6357 -0.1764 -0.0143
 2322TIP3    H128381   0.495   6.437  14.463 -0.1787  1.4942  0.8417
 2322TIP3    H228382   0.555   6.549  14.380  0.9135 -0.3573 -0.9603
 2323TIP3   OH228383   3.943   5.420  16.498  0.4027 -0.6581 -0.4160
 2323TIP3    H128384   3.960   5.326  16.503 -0.5549 -0.8339 -0.1957
 2323TIP3    H228385   3.883   5.438  16.570  0.5902  0.1280 -0.4430
 2324TIP3   OH228386   0.322   0.001  13.234  0.4831 -0.1367  0.2698
 2324TIP3    H128387   0.392   0.053  13.272  1.6996 -1.8121  0.4190
 2324TIP3    H228388   0.283  -0.045  13.308  0.8692 -1.1092 -0.1276
 2325TIP3   OH228389   5.657   1.534   4.520 -0.3036 -0.0620  0.0577
 2325TIP3    H128390   5.650   1.531   4.425 -1.0005 -0.8839  0.1198
 2325TIP3    H228391   5.567   1.534   4.551 -0.1410  2.0399  0.7120
 2326TIP3   OH228392   4.466   4.800  15.049  0.1261  0.1067  0.7243
 2326TIP3    H128393   4.400   4.798  14.980  0.1170 -2.5863  0.7014
 2326TIP3    H228394   4.416   4.800  15.131  0.0843 -0.2100  0.7026
 2327TIP3   OH228395   4.759   1.761  13.801 -0.1410 -0.5702  0.9554
 2327TIP3    H128396   4.668   1.734  13.809 -0.3537  0.4141  2.4438
 2327TIP3    H228397   4.773   1.771  13.707 -1.5822 -0.6786  0.6991
 2328TIP3   OH228398   0.666   4.969  13.315  0.4093  0.2517 -0.1757
 2328TIP3    H128399   0.633   5.059  13.313 -0.4930 -0.0067  1.3043
 2328TIP3    H228400   0.726   4.964  13.241  0.1985  1.9602 -0.5119
 2329TIP3   OH228401   5.022   5.390  15.406  0.2313  0.5140 -0.3051
 2329TIP3    H128402   5.010   5.451  15.333  1.8297 -0.2750 -1.2820
 2329TIP3    H228403   5.047   5.446  15.480  2.9974  1.0607 -1.4969
 2330TIP3   OH228404   4.127   4.880   5.028  0.3317  0.4960  0.1770
 2330TIP3    H128405   4.053   4.820   5.032 -0.9446  2.0371  0.7422
 2330TIP3    H228406   4.140   4.897   4.934 -1.3703  1.7377  0.1242
 2331TIP3   OH228407   6.533   4.542   6.023 -0.1633 -0.6246  0.0432
 2331TIP3    H128408   6.485   4.613   5.979 -1.1192 -0.8882  0.6275
 2331TIP3    H228409   6.470   4.506   6.086  1.1032 -0.3406  1.5504
 2332TIP3   OH228410   4.898   2.360   2.921 -0.2609 -0.7625 -0.0914
 2332TIP3    H128411   4.881   2.363   3.015 -0.6531 -0.8629 -0.1600
 2332TIP3    H228412   4.814   2.339   2.881 -0.2831  0.1252 -0.5288
 2333TIP3   OH228413   5.000   5.210  14.622  0.5330  0.3046 -0.7011
 2333TIP3    H128414   5.060   5.194  14.695 -0.4000 -0.4521 -0.0793
 2333TIP3    H228415   4.918   5.169  14.648  0.0783  0.2858 -2.0508
 2334TIP3   OH228416   4.164   2.997   4.117  0.3751  0.5024  0.2782
 2334TIP3    H128417   4.242   3.035   4.157  0.3644  2.3255 -1.3188
 2334TIP3    H228418   4.197   2.946   4.043  0.2059 -0.8726  1.1096
 2335TIP3   OH228419   2.607   3.894   2.183 -0.2986  0.3312  0.5894
 2335TIP3    H128420   2.638   3.807   2.207 -2.1301  0.0096  1.9639
 2335TIP3    H228421   2.642   3.952   2.251 -2.1070  0.0611  1.7933
 2336TIP3   OH228422   6.635   5.047   2.409  0.0925  0.8103  0.8866
 2336TIP3    H128423   6.684   5.101   2.471  0.3489  1.5626  0.0313
 2336TIP3    H228424   6.696   5.032   2.337 -1.2998  2.8478 -0.8199
 2337TIP3   OH228425   6.506   3.803   4.422 -0.3456 -0.1910  0.2884
 2337TIP3    H128426   6.498   3.755   4.340 -1.9147  1.5838 -0.6558
 2337TIP3    H228427   6.589   3.850   4.415  0.7685 -1.9490  0.8521
 2338TIP3   OH228428   2.552   3.220   3.176  0.1815 -0.6560  0.3491
 2338TIP3    H128429   2.472   3.169   3.159  0.3360 -0.5563 -0.7713
 2338TIP3    H228430   2.528   3.309   3.152  0.3787 -0.4789  0.8150
 2339TIP3   OH228431   2.995   2.284  10.809  0.1675 -0.2339  0.1038
 2339TIP3    H128432   3.065   2.328  10.761  0.0172 -1.5177 -1.3720
 2339TIP3    H228433   3.024   2.286  10.900  1.3223  0.6930 -0.2498
 2340TIP3   OH228434   0.980   3.275  16.316  0.1169 -0.1333  0.3456
 2340TIP3    H128435   0.930   3.243  16.390 -1.6437  1.0393 -0.2681
 2340TIP3    H228436   0.922   3.338  16.273  1.7239  0.4896 -1.0439
 2341TIP3   OH228437   4.129   5.604   4.739  0.2558 -0.1395 -0.4862
 2341TIP3    H128438   4.056   5.662   4.761  1.6452  1.6076 -0.2831
 2341TIP3    H228439   4.109   5.573   4.650  0.0791  1.6839 -1.1141
 2342TIP3   OH228440   0.042   4.004  14.834 -0.7334 -0.1510 -0.2581
 2342TIP3    H128441   0.042   3.967  14.745  3.3558  0.2063 -0.5894
 2342TIP3    H228442   0.015   3.932  14.890  3.1906 -2.7643 -1.2776
 2343TIP3   OH228443   4.463   3.270  14.276 -0.7447 -0.2519  0.2966
 2343TIP3    H128444   4.389   3.228  14.232 -0.0971  2.2475 -3.5959
 2343TIP3    H228445   4.540   3.238  14.229  0.4241 -0.3026  2.1408
 2344TIP3   OH228446   2.946   1.649  16.794 -0.2855  0.1240 -0.7396
 2344TIP3    H128447   2.934   1.593  16.717 -1.5162  1.3473 -1.4889
 2344TIP3    H228448   2.859   1.653  16.834 -0.3897  1.9045 -1.0358
 2345TIP3   OH228449   2.085   2.095   5.732  0.2392  0.6231  0.3893
 2345TIP3    H128450   2.061   2.154   5.803 -1.0799  0.5819  0.0031
 2345TIP3    H228451   2.012   2.034   5.725  0.4871  0.4295 -0.7936
 2346TIP3   OH228452   0.544   3.575   1.455  0.1603 -0.0483 -0.0562
 2346TIP3    H128453   0.474   3.624   1.498  0.8785 -0.4352  1.6088
 2346TIP3    H228454   0.540   3.487   1.492  1.5727 -0.0543  0.1532
 2347TIP3   OH228455   1.527   3.037   4.867 -0.4138  0.2397 -0.5847
 2347TIP3    H128456   1.487   3.037   4.780 -0.5642 -0.2924 -0.5197
 2347TIP3    H228457   1.498   2.955   4.906 -0.5893  0.6135  0.0816
 2348TIP3   OH228458   6.066   0.890   2.286 -0.1343  0.4170 -0.4662
 2348TIP3    H128459   6.107   0.936   2.359 -0.0061  0.7006 -0.7126
 2348TIP3    H228460   6.032   0.959   2.230 -0.7920  0.1851 -0.3607
 2349TIP3   OH228461   3.745   4.944  15.665 -0.7501  0.0431  0.3034
 2349TIP3    H128462   3.724   4.921  15.574  2.1185 -0.8279 -0.2424
 2349TIP3    H228463   3.765   4.861  15.707  4.3579  0.6596 -0.1897
 2350TIP3   OH228464   2.290   5.331   4.415 -0.2875  0.4809  0.4036
 2350TIP3    H128465   2.365   5.278   4.386 -1.8646 -1.4489 -0.3526
 2350TIP3    H228466   2.258   5.373   4.335 -0.4588  0.7032  0.5890
 2351TIP3   OH228467   0.531   4.051  12.679  0.9801  0.0630  0.5052
 2351TIP3    H128468   0.452   4.028  12.630  0.7883 -0.6450  1.1232
 2351TIP3    H228469   0.597   3.989  12.649  0.8945 -0.2975  1.0418
 2352TIP3   OH228470   0.375   1.501   2.928  0.0917  0.0719  0.0420
 2352TIP3    H128471   0.284   1.506   2.955  0.1879  1.4902  0.1739
 2352TIP3    H228472   0.399   1.409   2.940 -0.4060  0.2606  3.0016
 2353TIP3   OH228473   6.611   5.037   4.262  0.6134 -0.2706  0.0727
 2353TIP3    H128474   6.702   5.015   4.245  0.5556  0.0769 -0.7637
 2353TIP3    H228475   6.581   5.078   4.181 -1.3403 -3.6218 -1.0690
 2354TIP3   OH228476   1.267   2.949  11.420 -0.5290 -0.1541  0.6995
 2354TIP3    H128477   1.202   2.881  11.435  1.5432 -1.7125  3.5671
 2354TIP3    H228478   1.267   3.001  11.501  1.8294 -0.3300  0.9023
 2355TIP3   OH228479   0.265   2.969  12.001  0.4657  0.1682  0.1393
 2355TIP3    H128480   0.290   3.062  12.009 -0.5221  0.4292  0.2988
 2355TIP3    H228481   0.313   2.939  11.924  1.5477  0.5469  0.6353
 2356TIP3   OH228482   3.668   3.992   1.940 -0.6594 -0.9639  0.1988
 2356TIP3    H128483   3.601   4.024   2.000 -0.4336  0.1481 -0.1129
 2356TIP3    H228484   3.751   4.009   1.986 -0.5461 -1.4555  0.1820
 2357TIP3   OH228485   6.582   3.525  14.297  0.6484 -0.1673 -0.6888
 2357TIP3    H128486   6.500   3.552  14.339  1.4481 -0.7361  1.3608
 2357TIP3    H228487   6.592   3.586  14.224 -0.6341  1.1514  0.1674
 2358TIP3   OH228488   5.173   5.832  12.864  0.1157 -0.6998  0.4782
 2358TIP3    H128489   5.173   5.747  12.820  0.4201 -0.7863  0.6433
 2358TIP3    H228490   5.081   5.855  12.872  0.0550  0.2219 -1.9717
 2359TIP3   OH228491   5.260   6.443   2.629  0.3654 -0.0295 -0.1050
 2359TIP3    H128492   5.354   6.427   2.638  0.7170  1.3799 -0.9377
 2359TIP3    H228493   5.248   6.532   2.662 -0.8144 -0.4654  0.6851
 2360TIP3   OH228494   4.575   4.198  14.265  0.2641  0.0438 -0.0269
 2360TIP3    H128495   4.571   4.112  14.224 -0.3267 -0.3384  0.8185
 2360TIP3    H228496   4.663   4.230  14.245  0.3896 -0.6337 -0.5828
 2361TIP3   OH228497   1.200   3.615   4.301  0.1750  0.2405 -0.1421
 2361TIP3    H128498   1.260   3.682   4.267 -0.0879  1.2292  1.2183
 2361TIP3    H228499   1.246   3.577   4.375  0.0296 -0.5903 -0.4760
 2362TIP3   OH228500   1.558   5.622  12.997  0.2036  0.0058 -0.2869
 2362TIP3    H128501   1.565   5.706  13.043 -2.2797  0.3041 -0.3307
 2362TIP3    H228502   1.551   5.646  12.905 -1.3686 -0.1490 -0.2308
 2363TIP3   OH228503   2.466   2.670  14.131  0.2748  0.1624 -0.3803
 2363TIP3    H128504   2.462   2.607  14.059 -0.7802 -1.2409  0.8425
 2363TIP3    H228505   2.375   2.691  14.150  0.6024  1.9180 -0.5977
 2364TIP3   OH228506   2.946   6.734   5.552 -0.2006 -0.0108 -0.2505
 2364TIP3    H128507   2.998   6.672   5.501  0.9477  0.2670  0.5534
 2364TIP3    H228508   2.885   6.772   5.488 -0.7075 -1.6925 -0.8296
 2365TIP3   OH228509   2.060   5.707   1.681  0.3246  0.2852  0.6580
 2365TIP3    H128510   2.092   5.759   1.608  0.0319  1.0532  1.0743
 2365TIP3    H228511   2.101   5.745   1.759  1.3394 -1.0689  0.8430
 2366TIP3   OH228512   1.305   4.134   1.403 -0.1147  0.5308  0.0858
 2366TIP3    H128513   1.356   4.064   1.445 -0.8741  0.5235  1.0405
 2366TIP3    H228514   1.320   4.122   1.309 -1.4639 -1.9573  0.0952
 2367TIP3   OH228515   6.455   1.949  16.598 -0.0990 -0.3411 -0.2433
 2367TIP3    H128516   6.389   1.907  16.542  0.5786 -1.6303 -0.0994
 2367TIP3    H228517   6.480   1.881  16.660  1.6387  0.0084 -0.5305
 2368TIP3   OH228518   2.618   4.180  12.841  0.2729 -0.0213  0.0228
 2368TIP3    H128519   2.558   4.254  12.849  0.8032  0.5854 -1.2728
 2368TIP3    H228520   2.561   4.106  12.818 -0.3237 -0.1820  1.8317
 2369TIP3   OH228521   4.516   4.349   1.972 -0.7430 -0.6351  0.3787
 2369TIP3    H128522   4.582   4.314   2.031  1.6003  1.7208 -0.6538
 2369TIP3    H228523   4.529   4.301   1.890 -0.9073 -0.7679  0.4300
 2370TIP3   OH228524   2.997   0.266   4.910  1.1328  0.1394  0.3045
 2370TIP3    H128525   2.919   0.232   4.868  0.7850 -1.2637  1.9966
 2370TIP3    H228526   3.065   0.200   4.893  1.7312  0.8861 -0.3315
 2371TIP3   OH228527   0.185   1.307   5.232 -0.4006  0.0999 -0.4103
 2371TIP3    H128528   0.142   1.239   5.179 -3.1323  1.2220  0.1971
 2371TIP3    H228529   0.244   1.350   5.172 -1.1509 -0.6336 -1.7360
 2372TIP3   OH228530   6.227   1.332  12.187  0.7215  0.1761 -0.0274
 2372TIP3    H128531   6.182   1.276  12.124  2.3397 -2.5267  1.0661
 2372TIP3    H228532   6.318   1.304  12.184  1.1899  1.2501  2.1918
 2373TIP3   OH228533   3.339   0.270   4.743 -0.4767 -0.1352 -0.1150
 2373TIP3    H128534   3.377   0.183   4.749  1.0273  0.5171  0.2926
 2373TIP3    H228535   3.355   0.309   4.829  2.3606  1.8879 -1.3992
 2374TIP3   OH228536   0.416   0.660   3.429  0.3522 -0.3049  0.4673
 2374TIP3    H128537   0.501   0.703   3.434  1.3409 -2.1860  0.6423
 2374TIP3    H228538   0.435   0.567   3.440 -1.8546 -0.6805  1.8120
 2375TIP3   OH228539   4.028   2.392   4.608 -0.3809 -0.0981 -0.3295
 2375TIP3    H128540   4.080   2.394   4.688 -3.2447 -0.1540  1.6815
 2375TIP3    H228541   4.014   2.298   4.592 -1.4547 -0.0570  0.2972
 2376TIP3   OH228542   4.930   0.892  16.511  0.6827  0.3261  0.3903
 2376TIP3    H128543   4.912   0.811  16.463  0.4080  0.3963  0.3776
 2376TIP3    H228544   4.932   0.866  16.603  0.7872  0.2683  0.3716
 2377TIP3   OH228545   4.463   2.208  13.342 -0.1987  0.1997 -0.2919
 2377TIP3    H128546   4.555   2.182  13.349 -0.2462  0.3247  0.9689
 2377TIP3    H228547   4.463   2.277  13.276  0.9495  1.5700  1.0543
 2378TIP3   OH228548   6.562   0.805   1.530  0.1181 -0.1994 -0.1566
 2378TIP3    H128549   6.531   0.728   1.483 -0.7583 -0.2659  0.5186
 2378TIP3    H228550   6.519   0.801   1.615 -0.7194  1.5506 -0.4561
 2379TIP3   OH228551   6.636   3.532   5.566  0.1015 -0.2216  0.0100
 2379TIP3    H128552   6.673   3.560   5.482 -0.7198 -0.0101 -0.2888
 2379TIP3    H228553   6.694   3.572   5.632  1.0843 -0.8566 -0.4448
 2380TIP3   OH228554   0.995   1.390   2.652  0.4042 -0.0979 -0.6312
 2380TIP3    H128555   0.934   1.463   2.649  0.3023 -0.1546  0.0614
 2380TIP3    H228556   1.015   1.372   2.560 -0.0451  0.3973 -0.8283
 2381TIP3   OH228557   4.714   0.761   1.367  0.0365 -0.4011 -0.7928
 2381TIP3    H128558   4.725   0.713   1.448  0.5105 -0.1145 -0.6878
 2381TIP3    H228559   4.795   0.748   1.319  0.5543  1.0391 -0.3608
 2382TIP3   OH228560   0.820   2.172  11.121  0.1172  0.1190 -0.0318
 2382TIP3    H128561   0.911   2.143  11.125 -0.6035 -2.3867  0.1513
 2382TIP3    H228562   0.795   2.164  11.029 -0.1057  0.1069  0.0271
 2383TIP3   OH228563   1.446   5.519  16.427  0.2073  0.2080 -0.0062
 2383TIP3    H128564   1.447   5.581  16.500  0.8072 -1.0615  1.1245
 2383TIP3    H228565   1.535   5.483  16.425 -0.4804 -1.6161  0.2980
 2384TIP3   OH228566   6.213   5.947  11.539  0.2109 -0.2012 -0.5864
 2384TIP3    H128567   6.266   5.921  11.464 -0.3894  1.7240 -1.7406
 2384TIP3    H228568   6.132   5.896  11.530  1.1929 -2.0095  0.3360
 2385TIP3   OH228569   6.454   4.591   3.942 -0.3115 -0.6111 -0.6850
 2385TIP3    H128570   6.542   4.571   3.973  0.2385 -0.8875 -2.3503
 2385TIP3    H228571   6.435   4.678   3.977  0.5651 -0.5986 -0.2183
 2386TIP3   OH228572   3.726   3.494   6.256 -0.5273 -0.2902  0.1738
 2386TIP3    H128573   3.800   3.446   6.293 -0.6757 -1.0774 -0.5182
 2386TIP3    H228574   3.666   3.426   6.227 -1.7576  0.3435  1.1618
 2387TIP3   OH228575   2.904   5.368   1.024  0.3215 -0.6606 -0.2063
 2387TIP3    H128576   2.866   5.284   0.998  0.1869 -0.5316 -0.4311
 2387TIP3    H228577   2.984   5.345   1.071  2.5418 -0.8748 -3.7193
 2388TIP3   OH228578   4.857   3.541  16.916 -0.3987  0.1699  0.0088
 2388TIP3    H128579   4.948   3.571  16.916 -0.6855  1.0792 -0.3959
 2388TIP3    H228580   4.814   3.595  16.983 -0.3132 -1.3594  1.3492
 2389TIP3   OH228581   1.913   4.908  10.147 -0.0842  0.1058 -0.1457
 2389TIP3    H128582   1.950   4.931  10.232 -0.3944 -1.6278  0.4991
 2389TIP3    H228583   1.820   4.928  10.155 -0.3852 -1.4259  0.4747
 2390TIP3   OH228584   6.432   5.166  15.949  0.7367 -0.3217 -0.0127
 2390TIP3    H128585   6.499   5.204  15.892  0.0851 -2.1341 -2.1248
 2390TIP3    H228586   6.349   5.200  15.915  0.3902 -0.5308  0.6078
 2391TIP3   OH228587   3.745   0.327   0.448  0.0803 -0.3337  0.4860
 2391TIP3    H128588   3.808   0.293   0.384  0.5226 -1.1591  1.3300
 2391TIP3    H228589   3.730   0.253   0.507 -0.9668  0.1525  0.8394
 2392TIP3   OH228590   5.409   0.362  14.919 -0.0181  0.3868 -0.0691
 2392TIP3    H128591   5.320   0.382  14.950 -0.0289 -0.2134  0.3089
 2392TIP3    H228592   5.452   0.447  14.916 -0.1210  0.5252  1.3215
 2393TIP3   OH228593   3.071   5.079   0.502  0.0829 -0.0157  0.5545
 2393TIP3    H128594   3.152   5.048   0.460  1.2570  1.0958  1.8914
 2393TIP3    H228595   3.006   5.012   0.482  0.7731  0.0352 -2.2837
 2394TIP3   OH228596   0.557   0.851   2.964  0.0006  0.1879  0.7307
 2394TIP3    H128597   0.528   0.900   2.887 -1.4893 -1.0381  0.4741
 2394TIP3    H228598   0.484   0.794   2.985  1.5266 -1.6676  1.2582
 2395TIP3   OH228599   4.081   2.850  11.918  0.0605 -0.4157  0.8376
 2395TIP3    H128600   4.158   2.876  11.867 -0.2316 -0.5858  0.3000
 2395TIP3    H228601   4.102   2.762  11.950 -0.3212 -0.9066 -0.1915
 2396TIP3   OH228602   1.065   1.704  11.380 -0.0674 -0.9070 -0.5865
 2396TIP3    H128603   1.047   1.654  11.300 -1.9979 -0.3884 -0.5376
 2396TIP3    H228604   0.980   1.740  11.405  0.8942  0.7610  0.4901
 2397TIP3   OH228605   3.040   2.532  11.772 -0.9147  0.6846  0.0332
 2397TIP3    H128606   3.054   2.615  11.818 -0.4711  0.3862  0.4406
 2397TIP3    H228607   3.055   2.553  11.680 -0.9006  1.0814  0.1244
 2398TIP3   OH228608   1.479   1.964  11.096 -0.2264  0.4046 -0.1784
 2398TIP3    H128609   1.512   1.902  11.161 -0.5095  0.6796  0.2345
 2398TIP3    H228610   1.423   1.911  11.040 -0.6459  0.3213  0.3084
 2399TIP3   OH228611   0.264   1.261  10.274 -0.0033  0.2520  0.0596
 2399TIP3    H128612   0.270   1.273  10.369  3.7088 -1.1271  0.1718
 2399TIP3    H228613   0.352   1.280  10.242 -0.6736 -1.0552 -2.8785
 2400TIP3   OH228614   6.390   0.965   4.224 -0.0902 -0.2955  0.1495
 2400TIP3    H128615   6.396   0.876   4.258  0.7625 -0.1440  0.4239
 2400TIP3    H228616   6.372   1.019   4.301 -0.6957 -0.2310 -0.0289
 2401TIP3   OH228617   3.881   3.338   4.731 -0.5362  0.5101  0.1165
 2401TIP3    H128618   3.971   3.306   4.726  0.1962  2.3607  0.6123
 2401TIP3    H228619   3.831   3.277   4.676  0.6979 -1.4983  1.0800
 2402TIP3   OH228620   6.244   4.485   2.647  0.1857  0.5212  0.8715
 2402TIP3    H128621   6.314   4.420   2.640 -0.7027 -0.2972 -1.5003
 2402TIP3    H228622   6.288   4.565   2.675  1.6400 -0.5723  1.8367
 2403TIP3   OH228623   1.634   0.843  15.432 -0.0233 -0.0335 -0.2421
 2403TIP3    H128624   1.663   0.840  15.523  0.5275 -0.3311 -0.4266
 2403TIP3    H228625   1.616   0.936  15.417 -0.9383 -0.0848  0.4148
 2404TIP3   OH228626   3.373   0.964   3.246 -0.1140  0.4639  0.3901
 2404TIP3    H128627   3.415   0.883   3.216  0.9031  0.7180  1.0993
 2404TIP3    H228628   3.404   1.031   3.185  0.9757  0.7522  1.2349
 2405TIP3   OH228629   3.723   3.710   3.956 -0.1953 -0.4947  0.3372
 2405TIP3    H128630   3.756   3.681   3.871  3.6991  0.2741  1.4089
 2405TIP3    H228631   3.676   3.791   3.937  0.7662 -0.2378 -1.0752
 2406TIP3   OH228632   1.814   4.976  12.512 -0.1195 -0.5006  0.4577
 2406TIP3    H128633   1.772   4.921  12.578 -2.1089 -1.4351 -1.4549
 2406TIP3    H228634   1.874   4.917  12.466 -0.3821 -0.4279  0.0208
 2407TIP3   OH228635   1.626   0.141  13.625 -0.4451 -0.1253 -0.2077
 2407TIP3    H128636   1.598   0.145  13.534  0.2863  1.7744 -0.3990
 2407TIP3    H228637   1.547   0.118  13.674 -0.7374 -1.6986 -1.3276
 2408TIP3   OH228638   0.038   4.666   3.643 -0.1023  0.0116  0.0268
 2408TIP3    H128639   0.082   4.600   3.696 -0.7301  0.1495  0.7389
 2408TIP3    H228640   0.091   4.673   3.564 -1.1075 -2.8573 -1.0441
 2409TIP3   OH228641   5.978   0.354   1.528  0.4286 -0.8630  0.5000
 2409TIP3    H128642   5.909   0.395   1.476 -1.0394 -0.9030  2.3171
 2409TIP3    H228643   5.938   0.337   1.613  2.0111 -2.9860  0.9187
 2410TIP3   OH228644   2.276   1.284   2.204 -0.2234  0.1657 -0.7795
 2410TIP3    H128645   2.302   1.347   2.271 -0.1312 -0.8549  0.1670
 2410TIP3    H228646   2.181   1.278   2.212 -0.4691  1.5362 -2.1241
 2411TIP3   OH228647   6.415   0.032   6.099  0.5966  0.6724  0.1694
 2411TIP3    H128648   6.443   0.082   6.175 -1.3124 -0.2007  1.5496
 2411TIP3    H228649   6.380   0.097   6.038 -0.2889  1.2131  1.2087
 2412TIP3   OH228650   6.313   0.867   2.691  0.0198  0.3503  0.0121
 2412TIP3    H128651   6.279   0.935   2.633  1.1904  0.1955 -0.9184
 2412TIP3    H228652   6.247   0.857   2.759  0.3631  3.2984  0.9007
 2413TIP3   OH228653   0.852   5.568  12.433 -0.2639 -0.1445 -1.1982
 2413TIP3    H128654   0.766   5.606  12.417 -0.1484 -0.1294 -1.8121
 2413TIP3    H228655   0.836   5.497  12.495 -0.7252 -0.1638 -1.3364
 2414TIP3   OH228656   2.291   2.723   0.885 -0.3615 -0.2944  0.3607
 2414TIP3    H128657   2.368   2.765   0.848 -1.4817  0.4485 -1.2173
 2414TIP3    H228658   2.219   2.783   0.866 -1.1720 -0.2975  3.0044
 2415TIP3   OH228659   5.652   4.519   2.524  0.4341 -0.1891 -0.7123
 2415TIP3    H128660   5.677   4.589   2.584  1.0078  0.4538 -1.6642
 2415TIP3    H228661   5.728   4.462   2.518  0.4824 -0.0957 -1.0338
 2416TIP3   OH228662   6.447   2.812  16.198 -0.0889  0.1733  1.2025
 2416TIP3    H128663   6.389   2.844  16.267 -0.0788 -0.2322  1.4036
 2416TIP3    H228664   6.390   2.761  16.140  0.0570 -0.2158  1.3929
 2417TIP3   OH228665   3.929   4.547   3.995  0.0904 -0.0911 -0.1271
 2417TIP3    H128666   3.868   4.619   3.984 -0.4486 -0.5471 -0.1820
 2417TIP3    H228667   3.959   4.527   3.906 -1.0097 -0.9897 -0.3198
 2418TIP3   OH228668   3.284   3.354   2.104  0.6318  0.0335 -0.4249
 2418TIP3    H128669   3.258   3.269   2.068  0.2552  0.3599 -0.9269
 2418TIP3    H228670   3.353   3.333   2.168  0.9039 -0.5935 -0.9197
 2419TIP3   OH228671   2.180   4.608  12.919  0.5540 -0.3539  0.5107
 2419TIP3    H128672   2.176   4.514  12.903  0.4792 -0.3768  0.6562
 2419TIP3    H228673   2.274   4.629  12.917  0.4640  0.0237 -2.0528
 2420TIP3   OH228674   0.522   6.592  16.442  0.0989 -0.7899 -0.2583
 2420TIP3    H128675   0.505   6.498  16.439 -0.2614 -0.7113 -2.2475
 2420TIP3    H228676   0.436   6.632  16.428  0.3278 -0.1729  0.0716
 2421TIP3   OH228677   5.098   1.013  16.983 -0.4877  0.7153 -0.0805
 2421TIP3    H128678   5.091   0.922  16.955  0.3516  0.7513 -0.4750
 2421TIP3    H228679   5.163   1.012  17.053 -2.5375  0.6437  1.9057
 2422TIP3   OH228680   6.624   6.040  13.841  0.8186  0.1334 -0.3951
 2422TIP3    H128681   6.545   6.083  13.807  0.3019 -0.4179  0.0923
 2422TIP3    H228682   6.629   5.959  13.791 -0.2335 -0.9327  1.1410
 2423TIP3   OH228683   1.249   2.802   0.854 -0.4964  0.0283  0.0072
 2423TIP3    H128684   1.221   2.711   0.847 -0.5934  0.0724 -0.1782
 2423TIP3    H228685   1.306   2.804   0.931  1.1208 -0.6138 -1.1015
 2424TIP3   OH228686   2.740   6.095   2.580  0.2868  0.2602 -0.0503
 2424TIP3    H128687   2.750   6.026   2.514 -1.6688  0.3664 -0.5291
 2424TIP3    H228688   2.734   6.176   2.529 -0.7817  0.3912  0.2428
 2425TIP3   OH228689   5.778   4.131   1.201  0.0363  0.5035  0.0022
 2425TIP3    H128690   5.789   4.187   1.278 -0.2033  0.8906 -0.2432
 2425TIP3    H228691   5.867   4.117   1.169  0.1261  0.4512  0.2710
 2426TIP3   OH228692   5.438   4.854  14.747 -0.1598 -0.0333  0.0759
 2426TIP3    H128693   5.478   4.767  14.743 -3.5647 -1.8468  1.3561
 2426TIP3    H228694   5.389   4.853  14.829 -0.1103  3.2736  0.2603
 2427TIP3   OH228695   6.081   6.108  12.521  0.3298 -0.3287  0.2720
 2427TIP3    H128696   6.068   6.055  12.443  0.3652 -0.9407  0.6679
 2427TIP3    H228697   6.163   6.155  12.505  0.3864 -0.5253 -0.0200
 2428TIP3   OH228698   4.137   1.418  16.347 -0.0841 -0.1599 -0.3930
 2428TIP3    H128699   4.183   1.422  16.263 -1.7148  1.7331 -1.2683
 2428TIP3    H228700   4.051   1.382  16.325 -1.0102  1.6224  0.1844
 2429TIP3   OH228701   3.523   1.166  13.903  0.4974  0.2336  0.6629
 2429TIP3    H128702   3.618   1.168  13.891  0.4620  0.1049  0.3403
 2429TIP3    H228703   3.494   1.252  13.872  0.4309 -0.0113  0.0327
 2430TIP3   OH228704   2.081   0.827   0.082 -0.1471  0.7320  0.4785
 2430TIP3    H128705   2.036   0.910   0.065  0.9645  1.3892  0.6616
 2430TIP3    H228706   2.028   0.784   0.149 -1.2970  0.8103 -0.3422
 2431TIP3   OH228707   2.109   6.478   5.389  0.2652 -0.4975 -0.1606
 2431TIP3    H128708   2.020   6.442   5.386 -1.4157  3.2370 -0.7317
 2431TIP3    H228709   2.114   6.525   5.472  1.5508 -0.2415 -0.3503
 2432TIP3   OH228710   1.635   5.456  13.818 -0.4917 -0.5136  0.3813
 2432TIP3    H128711   1.675   5.388  13.872 -1.1209 -1.2564 -0.0738
 2432TIP3    H228712   1.693   5.465  13.742  2.0754  2.6209  2.4348
 2433TIP3   OH228713   0.237   3.643  15.301  0.0879  0.6123  0.3630
 2433TIP3    H128714   0.144   3.653  15.280 -0.1724  0.0279  1.1753
 2433TIP3    H228715   0.267   3.732  15.318 -0.0843  0.9104 -0.8476
 2434TIP3   OH228716   2.672   5.174   1.845  0.2306  0.4675  0.2520
 2434TIP3    H128717   2.708   5.139   1.763 -1.2283 -0.0565 -0.1803
 2434TIP3    H228718   2.579   5.152   1.843  0.0147  1.1042  1.7160
 2435TIP3   OH228719   4.198   0.475  11.540 -0.0394 -0.1986 -0.3898
 2435TIP3    H128720   4.171   0.403  11.483  0.4748 -1.0103  0.3563
 2435TIP3    H228721   4.121   0.493  11.594 -0.6731  0.8683 -1.5926
 2436TIP3   OH228722   4.859   0.478  11.290  0.4677 -0.4975 -0.1539
 2436TIP3    H128723   4.786   0.527  11.329  0.2962 -1.5865  0.9264
 2436TIP3    H228724   4.928   0.480  11.356  0.4526 -1.7223 -0.0901
 2437TIP3   OH228725   0.620   0.191   5.230  0.9038  0.0446  0.0261
 2437TIP3    H128726   0.574   0.272   5.212 -1.3134 -1.0208  0.6295
 2437TIP3    H228727   0.559   0.122   5.206  1.6590 -1.4508  2.0950
 2438TIP3   OH228728   1.061   4.932   2.539 -0.1923  0.4811  0.3064
 2438TIP3    H128729   0.998   4.965   2.604 -0.2006  0.7632  0.1564
 2438TIP3    H228730   1.146   4.940   2.582  0.0035  2.2791 -0.3238
 2439TIP3   OH228731   1.756   4.200  11.052  0.0636 -0.4452  0.0115
 2439TIP3    H128732   1.779   4.110  11.028 -1.2262 -0.6080 -0.6918
 2439TIP3    H228733   1.756   4.248  10.969  0.3386  0.1240  0.3306
 2440TIP3   OH228734   5.769   1.790   0.566 -0.1814  0.5895 -0.2716
 2440TIP3    H128735   5.760   1.864   0.626 -0.2025 -0.6760  1.3427
 2440TIP3    H228736   5.809   1.721   0.619  0.0066 -0.5082 -1.7872
 2441TIP3   OH228737   3.275   0.183  16.907  0.1372  1.0173 -0.2125
 2441TIP3    H128738   3.363   0.221  16.907 -0.0653  1.5174  0.8628
 2441TIP3    H228739   3.279   0.114  16.973  0.5906 -1.1360 -2.3253
 2442TIP3   OH228740   3.996   4.514   2.045  0.0927 -0.6806  0.1965
 2442TIP3    H128741   3.972   4.527   2.137  1.8144  2.2694  0.3528
 2442TIP3    H228742   4.091   4.499   2.047 -0.2161 -3.5706 -0.9933
 2443TIP3   OH228743   1.340   3.487  12.574 -0.1977  0.1404  0.0025
 2443TIP3    H128744   1.388   3.511  12.654 -2.7316  3.3352  0.7785
 2443TIP3    H228745   1.261   3.542  12.576 -0.1879  0.7775 -4.9574
 2444TIP3   OH228746   5.605   0.945   2.733  0.1363 -0.3429 -0.1450
 2444TIP3    H128747   5.699   0.947   2.752  0.1599 -0.7573 -0.2128
 2444TIP3    H228748   5.578   0.856   2.756 -0.2050 -0.2761 -0.2899
 2445TIP3   OH228749   1.135   4.149  10.987 -0.2511 -0.4160  0.4914
 2445TIP3    H128750   1.171   4.087  11.051 -0.2381 -0.5253  0.3803
 2445TIP3    H228751   1.134   4.100  10.904  1.2435  0.2270  0.0505
 2446TIP3   OH228752   0.255   4.478   6.023  0.0408  0.1471 -0.2147
 2446TIP3    H128753   0.278   4.531   5.947  0.4319 -0.6685 -0.6812
 2446TIP3    H228754   0.164   4.501   6.041  0.3090  1.2335 -0.1771
 2447TIP3   OH228755   5.349   1.274  15.922 -0.1188  0.1550  1.0524
 2447TIP3    H128756   5.261   1.306  15.902 -0.6149 -0.2487  2.4629
 2447TIP3    H228757   5.363   1.202  15.861  0.8865  2.7023 -1.9558
 2448TIP3   OH228758   3.140   4.627  14.209 -0.0437 -0.4184 -0.3522
 2448TIP3    H128759   3.216   4.684  14.195 -0.7664  0.3689 -1.1467
 2448TIP3    H228760   3.165   4.572  14.284 -0.5341  3.1197  2.7280
 2449TIP3   OH228761   4.819   2.765  17.018 -0.9011 -0.5361  0.1848
 2449TIP3    H128762   4.789   2.855  17.026 -0.5328 -0.4501  0.5996
 2449TIP3    H228763   4.785   2.736  16.933  2.0989  1.1738 -1.7766
 2450TIP3   OH228764   2.140   1.938   2.758  0.0133  0.3760 -0.1982
 2450TIP3    H128765   2.070   1.947   2.822  1.3893 -0.0069  1.4243
 2450TIP3    H228766   2.160   1.845   2.757  1.0605  0.5882 -0.0109
 2451TIP3   OH228767   3.937   4.600  12.500  0.1632 -0.2099 -0.1711
 2451TIP3    H128768   3.932   4.579  12.593  2.1184 -0.5418 -0.0984
 2451TIP3    H228769   4.025   4.572  12.474 -0.7955 -1.4042 -2.4386
 2452TIP3   OH228770   4.136   0.787  15.403  0.3816  0.2473  0.1043
 2452TIP3    H128771   4.046   0.821  15.406  0.6675  1.0093  0.2305
 2452TIP3    H228772   4.126   0.698  15.369 -0.2235  1.0532 -2.0513
 2453TIP3   OH228773   3.774   6.543  16.265 -0.3616  0.3734  0.6357
 2453TIP3    H128774   3.842   6.607  16.284 -2.2062  2.3215  0.9791
 2453TIP3    H228775   3.755   6.554  16.172  0.3706 -0.7846  0.3343
 2454TIP3   OH228776   3.100   4.175   0.700 -0.7860 -0.4092 -0.5960
 2454TIP3    H128777   3.189   4.210   0.705 -1.2217  0.7401 -0.3720
 2454TIP3    H228778   3.110   4.085   0.669  0.5305 -0.6873  0.5466
 2455TIP3   OH228779   2.559   3.733   5.963 -0.0224  0.0330 -0.0398
 2455TIP3    H128780   2.595   3.787   5.892 -3.3295  1.2737 -0.9513
 2455TIP3    H228781   2.528   3.796   6.028  3.0002 -1.0857  2.7441
 2456TIP3   OH228782   0.956   6.502   1.070 -0.3108 -0.2610 -0.5115
 2456TIP3    H128783   0.989   6.418   1.037  0.0794 -0.0051 -0.7745
 2456TIP3    H228784   1.028   6.563   1.056 -0.7640  0.2197 -0.7320
 2457TIP3   OH228785   1.039   4.775  14.554 -0.1491  0.1378  0.6852
 2457TIP3    H128786   1.060   4.698  14.501 -2.5335 -0.4349  0.4609
 2457TIP3    H228787   1.083   4.760  14.638 -2.0666 -2.4629  1.3381
 2458TIP3   OH228788   6.021   5.796   0.815  0.1656  0.0440 -0.2384
 2458TIP3    H128789   5.980   5.807   0.900  1.2365 -0.1140  0.3118
 2458TIP3    H228790   5.949   5.798   0.753 -0.6011  0.3881  0.6527
 2459TIP3   OH228791   3.682   1.736  16.937 -0.0203 -0.7357  0.2504
 2459TIP3    H128792   3.727   1.781  17.009 -2.4990  0.4620  1.1398
 2459TIP3    H228793   3.723   1.650  16.934  2.0550  0.1456  1.2231
 2460TIP3   OH228794   4.405   0.884   1.839  0.2809 -0.3240 -0.2542
 2460TIP3    H128795   4.350   0.963   1.841 -0.6154 -0.8361 -1.9890
 2460TIP3    H228796   4.375   0.831   1.913  0.6478  0.7833  0.7132
 2461TIP3   OH228797   4.419   4.132  11.527  0.3133  0.0803 -0.5371
 2461TIP3    H128798   4.394   4.155  11.437 -2.0871 -0.8668 -0.1894
 2461TIP3    H228799   4.438   4.038  11.523 -2.0780 -0.5132  0.2883
 2462TIP3   OH228800   3.678   4.028   5.081  0.0284  0.3940  0.6641
 2462TIP3    H128801   3.629   3.975   5.143  1.6442  0.6415  2.2397
 2462TIP3    H228802   3.697   3.969   5.008  0.5414 -0.7869  1.7181
 2463TIP3   OH228803   3.938   2.449  13.475  0.3456 -0.9749 -0.1918
 2463TIP3    H128804   3.920   2.459  13.568  3.5076  0.3264  0.4147
 2463TIP3    H228805   3.913   2.359  13.454 -0.9775 -1.1067  1.7384
 2464TIP3   OH228806   0.276   3.959   0.358  0.0718 -0.6897  0.6375
 2464TIP3    H128807   0.227   4.031   0.399  2.3427  0.9546  0.6270
 2464TIP3    H228808   0.365   3.969   0.391  0.8471 -2.4439 -0.7926
 2465TIP3   OH228809   3.653   3.971   5.778 -0.7666  0.3038 -0.3336
 2465TIP3    H128810   3.607   3.992   5.859 -0.4681  1.8440 -0.5287
 2465TIP3    H228811   3.589   3.988   5.709 -0.7582 -0.2059 -0.4729
 2466TIP3   OH228812   1.472   1.635  15.461 -0.2188  0.1087 -0.8199
 2466TIP3    H128813   1.525   1.677  15.528  1.1253 -1.5507 -0.7682
 2466TIP3    H228814   1.386   1.622  15.502 -1.0611  3.5174 -1.1629
 2467TIP3   OH228815   5.028   5.927   5.444 -0.6502 -0.2319 -0.2468
 2467TIP3    H128816   5.035   5.976   5.362 -0.1611 -1.9247 -1.2690
 2467TIP3    H228817   5.113   5.885   5.455 -0.9631 -0.6449  0.7247
 2468TIP3   OH228818   6.763   5.348  12.775  0.5935 -0.3612  0.0980
 2468TIP3    H128819   6.752   5.347  12.680 -1.8582 -1.0819  0.3262
 2468TIP3    H228820   6.731   5.263  12.804  1.7939 -0.3622  1.5544
 2469TIP3   OH228821   4.898   1.097  15.241 -0.4692 -0.3112 -0.0310
 2469TIP3    H128822   4.956   1.030  15.205 -0.5980 -0.6389  0.3638
 2469TIP3    H228823   4.956   1.159  15.284 -0.4890 -1.5951  1.9638
 2470TIP3   OH228824   4.171   2.921   3.566 -0.1094 -0.5028  0.3489
 2470TIP3    H128825   4.082   2.956   3.567 -0.4659 -1.4274  1.2253
 2470TIP3    H228826   4.166   2.843   3.511  0.4938  0.2468 -0.8250
 2471TIP3   OH228827   1.258   1.304  10.451  0.2717  0.4781 -0.0375
 2471TIP3    H128828   1.247   1.322  10.545 -0.4339  0.7834 -0.1696
 2471TIP3    H228829   1.270   1.391  10.412  3.0735  0.1935  0.0496
 2472TIP3   OH228830   1.522   6.437  10.721  0.2924 -0.9781  0.1851
 2472TIP3    H128831   1.540   6.398  10.806 -1.0419  0.1173  1.0161
 2472TIP3    H228832   1.534   6.365  10.659  4.1941 -1.1518  0.8640
 2473TIP3   OH228833   0.260   5.575   1.663 -0.2842 -1.0499 -0.2958
 2473TIP3    H128834   0.192   5.524   1.707  0.6728 -1.4115  0.7958
 2473TIP3    H228835   0.310   5.510   1.613 -0.9619 -0.7307 -1.4173
 2474TIP3   OH228836   4.601   0.155   3.252 -0.1291  0.4148 -0.6641
 2474TIP3    H128837   4.520   0.132   3.297  0.4701 -0.0781  0.1863
 2474TIP3    H228838   4.586   0.244   3.218 -1.4035 -0.0633 -1.4468
 2475TIP3   OH228839   2.078   0.332   0.452 -0.0886  0.1041  0.2965
 2475TIP3    H128840   2.057   0.245   0.487 -0.5153 -0.2198 -0.7410
 2475TIP3    H228841   2.055   0.327   0.359  1.7120  0.7257 -0.2221
 2476TIP3   OH228842   3.177   5.565   5.042  0.2174 -0.2464  0.0703
 2476TIP3    H128843   3.137   5.480   5.061 -0.1230 -0.0607  0.1921
 2476TIP3    H228844   3.106   5.628   5.055  0.2897 -0.0065 -0.6632
 2477TIP3   OH228845   0.768   6.732   4.414  0.5652  0.2448 -0.1134
 2477TIP3    H128846   0.806   6.659   4.365  1.5039  0.8402 -0.3067
 2477TIP3    H228847   0.740   6.795   4.347  0.0145  0.1898  0.0586
 2478TIP3   OH228848   5.703   4.400  13.751 -0.3143 -0.3732  0.6826
 2478TIP3    H128849   5.648   4.477  13.770 -0.5311 -0.5397  0.7298
 2478TIP3    H228850   5.769   4.433  13.690  1.2023  0.5093  2.6600
 2479TIP3   OH228851   6.183   0.150  11.408 -0.2862  0.0216  0.0160
 2479TIP3    H128852   6.260   0.096  11.391 -0.6277 -0.4678  0.0042
 2479TIP3    H228853   6.206   0.236  11.372 -0.1152 -0.3805 -0.8741
 2480TIP3   OH228854   2.716   3.765  11.340  0.0378 -0.1468 -0.1298
 2480TIP3    H128855   2.753   3.707  11.273  0.1314 -1.1545  0.7590
 2480TIP3    H228856   2.621   3.754  11.332  0.0620 -2.1727  1.4398
 2481TIP3   OH228857   2.068   2.873  15.316 -0.4440  0.3348  0.3890
 2481TIP3    H128858   2.030   2.905  15.398 -0.4050 -1.2175  1.0508
 2481TIP3    H228859   2.054   2.944  15.253 -0.3850  1.5994  1.7563
 2482TIP3   OH228860   1.397   4.130   4.204 -0.2002 -0.0735  0.3703
 2482TIP3    H128861   1.363   4.218   4.222 -0.7429 -0.1501 -0.2505
 2482TIP3    H228862   1.416   4.131   4.110  0.1107 -0.5111  0.4278
 2483TIP3   OH228863   3.820   6.596   5.031  0.5058  0.2223 -0.3446
 2483TIP3    H128864   3.776   6.512   5.015 -0.0121  0.5919 -0.8707
 2483TIP3    H228865   3.855   6.588   5.120 -1.2892  0.2102  0.3854
 2484TIP3   OH228866   6.386   5.839  15.417  0.2590 -0.5280 -0.2847
 2484TIP3    H128867   6.414   5.793  15.338 -0.8244 -0.1464 -0.9220
 2484TIP3    H228868   6.293   5.815  15.427  0.6518 -1.4677  1.5316
 2485TIP3   OH228869   5.946   6.354   1.400  0.0897 -0.3362 -0.0322
 2485TIP3    H128870   5.874   6.292   1.395 -0.4847  0.2362  0.8453
 2485TIP3    H228871   5.933   6.412   1.324 -0.1722 -0.4334 -0.0611
 2486TIP3   OH228872   2.255   2.949  15.921  0.0596  0.1844  0.9643
 2486TIP3    H128873   2.234   2.925  15.830  0.2033  2.7895  0.1764
 2486TIP3    H228874   2.331   3.006  15.914 -0.3279  0.9586  2.6820
 2487TIP3   OH228875   5.195   5.709  14.418  0.6537 -0.0271  0.2169
 2487TIP3    H128876   5.247   5.727  14.496 -0.5526  2.0430  0.6218
 2487TIP3    H228877   5.249   5.739  14.345  0.9059  0.0964  0.4553
 2488TIP3   OH228878   1.076   6.762  11.952 -1.0817 -0.8635 -0.5298
 2488TIP3    H128879   1.157   6.762  12.004  0.5820 -2.3989 -2.8879
 2488TIP3    H228880   1.025   6.834  11.988  0.8172 -0.5446  1.8259
 2489TIP3   OH228881   0.374   1.502  14.775  0.2569 -0.5065  0.1368
 2489TIP3    H128882   0.397   1.593  14.792 -0.4065 -0.3788  0.3700
 2489TIP3    H228883   0.354   1.466  14.862  1.9477 -1.2895  0.2557
 2490TIP3   OH228884   2.915   4.312  10.784 -0.5946  0.6066  0.3188
 2490TIP3    H128885   2.948   4.241  10.839 -2.1396 -0.0479  0.4347
 2490TIP3    H228886   2.970   4.309  10.705  0.9433  0.8795  1.3307
 2491TIP3   OH228887   0.345   0.551   0.151  0.3004  0.4392 -0.0405
 2491TIP3    H128888   0.315   0.464   0.176  1.7904  0.1937  1.0287
 2491TIP3    H228889   0.285   0.611   0.196  1.3343 -0.0388  2.1334
 2492TIP3   OH228890   5.381   1.157  14.036  0.2943  0.1496 -0.2137
 2492TIP3    H128891   5.294   1.118  14.044  0.8649 -1.0755  0.2093
 2492TIP3    H228892   5.413   1.128  13.951  1.0766 -1.0970  0.4749
 2493TIP3   OH228893   1.448   0.961  14.477 -0.8430  0.2098 -0.6418
 2493TIP3    H128894   1.381   0.897  14.452 -0.2668 -0.4964 -0.4131
 2493TIP3    H228895   1.530   0.911  14.477 -0.5894  0.5811  1.0588
 2494TIP3   OH228896   4.263   2.604  11.032  0.1247  0.3851  0.2962
 2494TIP3    H128897   4.239   2.546  10.959 -0.6025 -0.9185  1.5264
 2494TIP3    H228898   4.358   2.611  11.027  0.2117 -0.8326  0.0412
 2495TIP3   OH228899   4.947   3.750  10.394 -0.3238 -0.3654 -0.4786
 2495TIP3    H128900   4.983   3.732  10.481 -0.4849 -1.1099 -0.5605
 2495TIP3    H228901   4.991   3.688  10.336 -0.2411  0.1061 -0.9288
 2496TIP3   OH228902   4.929   3.258  16.383  0.3932 -0.4043 -0.0617
 2496TIP3    H128903   4.952   3.172  16.349  0.6282 -0.3472 -0.0446
 2496TIP3    H228904   5.006   3.287  16.432 -0.3487 -1.0120  1.5620
 2497TIP3   OH228905   0.545   1.030  14.176 -0.4167  0.0481 -0.8322
 2497TIP3    H128906   0.637   1.004  14.170 -0.5323 -0.8666  0.7082
 2497TIP3    H228907   0.542   1.090  14.250 -1.1822 -0.6400 -0.2911
 2498TIP3   OH228908   0.378   5.059   0.871  0.3667  0.1541 -0.6472
 2498TIP3    H128909   0.325   5.106   0.935  0.5598  0.4356 -0.6936
 2498TIP3    H228910   0.465   5.098   0.878  0.3100  0.4179 -1.3161
 2499TIP3   OH228911   6.393   1.714  11.741  0.0047  0.3551  0.3559
 2499TIP3    H128912   6.375   1.620  11.752  1.1310  0.1927  1.0011
 2499TIP3    H228913   6.468   1.730  11.799 -1.1311  1.9814  1.4383
 2500TIP3   OH228914   4.278   1.979  12.853 -0.4763 -0.2661 -0.0611
 2500TIP3    H128915   4.225   2.018  12.922  0.8221 -0.7942  1.2760
 2500TIP3    H228916   4.218   1.920  12.807 -1.4813  0.4578  0.3036
 2501TIP3   OH228917   1.648   6.185   3.730 -0.0759  0.0452 -0.1479
 2501TIP3    H128918   1.626   6.186   3.823  1.9070 -2.5170  0.4643
 2501TIP3    H228919   1.740   6.158   3.727  0.6901  2.4425 -2.7951
 2502TIP3   OH228920   1.754   1.321   2.407 -0.1657 -0.1911 -0.0226
 2502TIP3    H128921   1.803   1.274   2.474 -0.1130 -0.6888 -0.4063
 2502TIP3    H228922   1.798   1.405   2.400 -0.4950  0.0792  0.9432
 2503TIP3   OH228923   6.329   4.290   0.522 -0.0044  0.6923 -0.1899
 2503TIP3    H128924   6.364   4.378   0.534  0.8742  0.3975 -0.5171
 2503TIP3    H228925   6.319   4.281   0.427 -0.3886  0.5519 -0.1359
 2504TIP3   OH228926   6.429   3.672  12.942 -0.1049 -0.1758 -0.3183
 2504TIP3    H128927   6.509   3.678  12.889 -0.0400 -2.4516 -0.5580
 2504TIP3    H228928   6.461   3.663  13.032 -0.1780  1.2632 -0.1202
 2505TIP3   OH228929   0.539   4.862  14.834 -0.4416 -0.3617 -0.2923
 2505TIP3    H128930   0.598   4.884  14.762  1.2273 -0.6669  0.9271
 2505TIP3    H228931   0.485   4.791  14.799 -0.2877  0.1130 -1.5392
 2506TIP3   OH228932   3.745   3.802  11.143  0.3999 -0.5160 -0.0270
 2506TIP3    H128933   3.714   3.715  11.117 -0.2766 -0.0944 -0.6829
 2506TIP3    H228934   3.839   3.801  11.125  0.0360 -0.3788 -2.1754
 2507TIP3   OH228935   3.296   4.587  17.190 -0.0296  0.1615  0.2363
 2507TIP3    H128936   3.293   4.537  17.108  2.0544  1.5578 -0.7635
 2507TIP3    H228937   3.281   4.677  17.163  2.1261  0.8485  1.1147
 2508TIP3   OH228938   0.542   4.669  10.942 -0.3300  0.0197 -0.6870
 2508TIP3    H128939   0.628   4.708  10.925 -0.9079  2.0712  0.8025
 2508TIP3    H228940   0.488   4.697  10.868  0.0834 -0.7798 -1.3182
 2509TIP3   OH228941   0.212   1.117   2.721  0.4209  0.5281  0.1113
 2509TIP3    H128942   0.159   1.105   2.642  2.6449 -0.7308 -1.2878
 2509TIP3    H228943   0.180   1.199   2.759 -1.4794  0.5850 -1.4492
 2510TIP3   OH228944   5.704   3.442   4.005  0.5101 -0.4528 -0.1309
 2510TIP3    H128945   5.731   3.384   3.934  0.0487 -1.5308  0.5468
 2510TIP3    H228946   5.610   3.453   3.993  0.4711 -0.4440  0.1764
 2511TIP3   OH228947   5.487   3.934   1.445 -0.6274 -0.6245  0.0630
 2511TIP3    H128948   5.453   3.934   1.356  1.4635  1.0594 -0.8363
 2511TIP3    H228949   5.477   3.843   1.474  1.5738 -2.0997 -3.1412
 2512TIP3   OH228950   0.178   5.082   5.922  0.2582  0.3005 -0.0363
 2512TIP3    H128951   0.169   5.156   5.982 -0.0966  0.2691 -0.0504
 2512TIP3    H228952   0.224   5.015   5.973 -2.7955 -0.9626  1.3263
 2513TIP3   OH228953   3.148   3.454   0.417 -0.0333 -0.4821  1.0065
 2513TIP3    H128954   3.196   3.395   0.474  0.5284  0.7251  1.8297
 2513TIP3    H228955   3.062   3.413   0.407  1.2762 -3.0425 -1.0571
 2514TIP3   OH228956   3.696   6.457   4.687  0.0271 -0.1263 -0.5787
 2514TIP3    H128957   3.752   6.382   4.666 -0.1806 -0.5158  0.2101
 2514TIP3    H228958   3.627   6.420   4.742 -0.3983  0.5494 -0.6461
 2515TIP3   OH228959   4.990   1.085  14.931 -0.5779 -0.4416  0.0332
 2515TIP3    H128960   4.974   1.016  14.996  1.0349 -0.4801  0.4274
 2515TIP3    H228961   5.009   1.163  14.984 -0.1480 -0.2543 -0.3965
 2516TIP3   OH228962   2.560   3.490   3.512  0.3669  0.4106 -0.6973
 2516TIP3    H128963   2.479   3.500   3.462  0.7185  2.8624 -0.8978
 2516TIP3    H228964   2.542   3.532   3.596  1.2998  0.6813 -0.6240
 2517TIP3   OH228965   0.346   4.112  16.396  0.4235 -0.6047 -0.5094
 2517TIP3    H128966   0.338   4.128  16.302 -0.6593 -1.6678 -0.6143
 2517TIP3    H228967   0.355   4.017  16.404  2.0699 -0.4166  0.3827
 2518TIP3   OH228968   4.985   2.537   3.261  0.0004  0.0699 -0.1675
 2518TIP3    H128969   5.018   2.470   3.321  0.5569  0.7757  0.3160
 2518TIP3    H228970   4.897   2.506   3.237 -0.8600  0.5100  2.1810
 2519TIP3   OH228971   2.166   5.502  13.458 -0.6399  0.3677 -0.4390
 2519TIP3    H128972   2.167   5.408  13.477 -0.4612  0.3315 -0.6256
 2519TIP3    H228973   2.254   5.532  13.481 -1.2579  0.8549  1.4217
 2520TIP3   OH228974   2.788   0.285  15.884 -0.2672  0.1928  0.4274
 2520TIP3    H128975   2.757   0.231  15.956  0.3863  0.4289  0.8957
 2520TIP3    H228976   2.710   0.332  15.853 -1.0567 -1.6777 -0.6044
 2521TIP3   OH228977   4.623   5.981   5.123 -0.1418 -0.4460 -0.0730
 2521TIP3    H128978   4.577   6.000   5.041 -0.4395 -0.1579  0.1607
 2521TIP3    H228979   4.637   6.067   5.163  0.4806 -0.5372 -0.0752
 2522TIP3   OH228980   1.127   0.217   4.367 -0.0821  0.3513  0.0933
 2522TIP3    H128981   1.049   0.184   4.412  0.2718 -0.1378  0.3653
 2522TIP3    H228982   1.189   0.144   4.370  0.2784  0.6248 -0.3934
 2523TIP3   OH228983   2.851   0.307   2.155  0.4222 -0.1249  0.0330
 2523TIP3    H128984   2.920   0.365   2.122 -0.2907 -0.2040 -1.6926
 2523TIP3    H228985   2.781   0.315   2.091  0.3151 -2.9273 -0.3127
 2524TIP3   OH228986   2.246   3.948  11.739 -0.0246  0.1892 -0.1387
 2524TIP3    H128987   2.311   3.920  11.803 -0.5663  1.4843  1.0538
 2524TIP3    H228988   2.282   4.028  11.702 -1.0924  1.2089  0.9066
 2525TIP3   OH228989   0.800   0.532  11.348  0.5342 -0.5271 -0.9860
 2525TIP3    H128990   0.895   0.523  11.352  0.4270 -1.3140  0.1314
 2525TIP3    H228991   0.777   0.500  11.260  1.2896 -0.3331 -1.2679
 2526TIP3   OH228992   4.690   4.572   2.541 -0.7187  0.2033  0.5333
 2526TIP3    H128993   4.678   4.666   2.527  0.7965  0.1535 -1.6942
 2526TIP3    H228994   4.777   4.566   2.582 -1.2270 -0.2145  1.5923
 2527TIP3   OH228995   4.733   5.720  13.660  0.1259  0.0382 -0.6212
 2527TIP3    H128996   4.736   5.779  13.735 -0.4625  0.3303 -0.8176
 2527TIP3    H228997   4.824   5.698  13.643  0.2294 -0.4598  0.5037
 2528TIP3   OH228998   6.146   6.284   6.352 -0.0699  0.2579 -0.1015
 2528TIP3    H128999   6.151   6.226   6.428  0.9602  1.5831  0.8805
 2528TIP3    H229000   6.052   6.295   6.337 -0.2817 -0.6315  0.5062
 2529TIP3   OH229001   5.564   5.915   1.523 -0.3165 -0.7193 -0.7455
 2529TIP3    H129002   5.585   5.866   1.444  4.2716 -1.1249  0.4886
 2529TIP3    H229003   5.621   5.879   1.591 -0.8979  2.4813  1.7062
 2530TIP3   OH229004   0.333   4.445  11.203 -0.5709 -0.2721 -0.2579
 2530TIP3    H129005   0.330   4.443  11.108 -1.3886  1.8174 -0.3384
 2530TIP3    H229006   0.426   4.457  11.224 -0.5418  0.6545 -0.8689
 2531TIP3   OH229007   2.569   1.052   4.278  0.2200 -0.0305 -0.2296
 2531TIP3    H129008   2.580   1.004   4.360  0.6761 -0.1527 -0.3553
 2531TIP3    H229009   2.545   0.985   4.214  1.0473 -0.1329 -0.4469
 2532TIP3   OH229010   6.496   5.907  14.895 -0.2348  0.2861 -0.3016
 2532TIP3    H129011   6.548   5.832  14.866 -0.6948 -0.1762  0.0532
 2532TIP3    H229012   6.561   5.976  14.909  0.3177 -0.3517  0.3694
 2533TIP3   OH229013   2.303   1.165   5.235  0.5139 -0.0068  0.5591
 2533TIP3    H129014   2.248   1.214   5.174  2.3294  1.9901  0.4074
 2533TIP3    H229015   2.242   1.129   5.299 -1.3185 -1.1726 -1.7056
 2534TIP3   OH229016   2.236   4.436   4.571 -0.0797 -0.4514 -0.3389
 2534TIP3    H129017   2.254   4.386   4.651  0.7823 -1.6517 -1.2548
 2534TIP3    H229018   2.165   4.389   4.528  0.1026 -0.3608 -0.7450
 2535TIP3   OH229019   1.538   1.560   0.124 -0.2066 -0.5664  0.4186
 2535TIP3    H129020   1.488   1.541   0.045  0.2328  2.6470 -0.7554
 2535TIP3    H229021   1.474   1.553   0.195 -1.7530  0.8774 -0.7508
 2536TIP3   OH229022   2.506   0.461  14.941 -0.5579 -0.2036 -0.0047
 2536TIP3    H129023   2.454   0.481  14.863 -0.3453 -0.4604 -0.2167
 2536TIP3    H229024   2.591   0.434  14.906 -0.0357  0.9247  0.3555
 2537TIP3   OH229025   3.233   3.609   0.156  0.1144  0.6705  0.1773
 2537TIP3    H129026   3.267   3.660   0.082  1.8040 -0.4154  0.1414
 2537TIP3    H229027   3.278   3.645   0.232 -2.0710  2.1926  0.8437
 2538TIP3   OH229028   4.530   6.370  16.231 -0.2224 -0.2838  0.4205
 2538TIP3    H129029   4.470   6.300  16.206 -0.2186 -0.3566  0.6115
 2538TIP3    H229030   4.513   6.440  16.168  0.2689 -0.7206 -0.1961
 2539TIP3   OH229031   5.459   4.465   3.130  0.2350 -0.1648 -0.3338
 2539TIP3    H129032   5.443   4.468   3.225 -2.3475 -1.4433 -0.6458
 2539TIP3    H229033   5.554   4.476   3.122  0.6912 -1.0903  2.4814
 2540TIP3   OH229034   5.646   6.310   0.937 -0.1607 -0.1342 -0.4327
 2540TIP3    H129035   5.727   6.259   0.936 -0.3611 -0.4611 -0.3112
 2540TIP3    H229036   5.639   6.342   1.026 -0.1872 -0.1436 -0.4313
 2541TIP3   OH229037   0.795   5.292  10.979 -0.1115  0.6648  0.1446
 2541TIP3    H129038   0.731   5.305  10.909 -2.1554 -1.4792  1.4829
 2541TIP3    H229039   0.749   5.320  11.058  1.2577  0.7190  0.9395
 2542TIP3   OH229040   4.723   0.438   1.151  0.0469 -0.1377 -0.3116
 2542TIP3    H129041   4.683   0.515   1.111 -0.3134 -0.5218 -0.6995
 2542TIP3    H229042   4.816   0.448   1.133  0.1699  0.8514  0.7478
 2543TIP3   OH229043   1.138   5.974   1.901  0.2473  0.6654  0.2477
 2543TIP3    H129044   1.081   5.931   1.964  1.3958  0.0657  0.8988
 2543TIP3    H229045   1.218   5.995   1.950  2.2305 -2.0931 -1.5158
 2544TIP3   OH229046   5.680   2.134   2.436 -0.2987  0.3950 -0.3592
 2544TIP3    H129047   5.710   2.220   2.468  0.7822  0.6185 -1.8281
 2544TIP3    H229048   5.629   2.155   2.358  0.5904 -0.3063 -1.1568
 2545TIP3   OH229049   4.131   1.260  11.722 -0.0236 -0.0441  0.3136
 2545TIP3    H129050   4.132   1.183  11.665 -0.6018 -0.1704  0.4590
 2545TIP3    H229051   4.059   1.313  11.689  1.3026  1.1719 -0.7105
 2546TIP3   OH229052   6.218   2.158  16.176 -0.0575  0.2030 -0.2301
 2546TIP3    H129053   6.156   2.119  16.238  1.4689 -1.4375  0.3686
 2546TIP3    H229054   6.163   2.204  16.113 -1.9385 -1.6328 -0.0624
 2547TIP3   OH229055   0.536   1.348   5.779 -0.3251  0.0736  0.4691
 2547TIP3    H129056   0.545   1.326   5.686 -0.0615  1.7493  0.0538
 2547TIP3    H229057   0.442   1.354   5.793 -0.6381 -4.1449  1.4000
 2548TIP3   OH229058   1.993   0.630  13.423  0.3518  0.1278 -0.1532
 2548TIP3    H129059   1.932   0.606  13.353 -0.6789 -0.3720  0.8869
 2548TIP3    H229060   2.016   0.546  13.464 -0.0146  0.5217  0.8799
 2549TIP3   OH229061   0.675   2.409   2.890 -0.2546 -0.6174 -0.2477
 2549TIP3    H129062   0.687   2.469   2.817  1.3798 -0.3027  0.2426
 2549TIP3    H229063   0.672   2.466   2.967  0.0729 -1.0673  0.1036
 2550TIP3   OH229064   3.699   4.094  16.562 -0.1291  0.1596  0.0633
 2550TIP3    H129065   3.663   4.182  16.551  0.3244  0.0805 -2.6750
 2550TIP3    H229066   3.793   4.105  16.550 -0.1890 -0.8167 -1.6370
 2551TIP3   OH229067   3.980   0.169   3.808  0.5380 -1.1185  0.2283
 2551TIP3    H129068   3.915   0.104   3.782 -0.7517  0.4149 -0.5378
 2551TIP3    H229069   4.025   0.192   3.727 -1.4063  1.4253 -0.2609
 2552TIP3   OH229070   3.007   6.168   5.277  0.2397  0.1881  0.2160
 2552TIP3    H129071   3.062   6.240   5.249 -0.1388  0.5474  0.3828
 2552TIP3    H229072   2.976   6.128   5.195  0.5133  0.1642  0.1244
 2553TIP3   OH229073   3.968   0.887  11.980  0.0826  0.1949  0.0623
 2553TIP3    H129074   3.940   0.954  11.917  0.5268 -0.2196 -0.5989
 2553TIP3    H229075   3.965   0.930  12.065 -0.6474  0.7372 -0.2275
 2554TIP3   OH229076   6.194   1.171  16.867 -0.1095 -0.4270 -0.6186
 2554TIP3    H129077   6.224   1.080  16.865 -0.3223 -0.5024 -0.4676
 2554TIP3    H229078   6.193   1.198  16.776 -2.5586 -1.4150 -0.9711
 2555TIP3   OH229079   3.567   6.163  15.334  0.0087 -0.3216 -0.2560
 2555TIP3    H129080   3.513   6.169  15.412  1.1777  1.3230  0.4961
 2555TIP3    H229081   3.592   6.071  15.327 -0.4766 -0.5602  1.0457
 2556TIP3   OH229082   5.851   1.885   6.137 -0.8877  0.1164 -0.2504
 2556TIP3    H129083   5.820   1.824   6.071 -0.3707 -1.6517  1.0580
 2556TIP3    H229084   5.792   1.873   6.212 -1.1404  1.6771 -0.1607
 2557TIP3   OH229085   3.658   4.698   4.842  0.3533  0.1993 -0.1187
 2557TIP3    H129086   3.746   4.730   4.861 -0.8657  2.2557  2.9528
 2557TIP3    H229087   3.650   4.618   4.893  0.1173  0.5786  0.4418
 2558TIP3   OH229088   2.519   0.306   5.153 -0.4511  0.0591 -0.3649
 2558TIP3    H129089   2.549   0.221   5.184 -0.2735  0.0656 -0.5114
 2558TIP3    H229090   2.600   0.358   5.145 -0.7734  1.0764  2.2105
 2559TIP3   OH229091   1.910   3.842  14.584  0.3570  0.1739 -0.4780
 2559TIP3    H129092   1.989   3.875  14.626  0.7245 -2.4685  1.1758
 2559TIP3    H229093   1.932   3.840  14.491  1.4349  1.4304 -0.2789
 2560TIP3   OH229094   5.199   0.924   5.638  0.6887 -0.6524 -0.2257
 2560TIP3    H129095   5.115   0.878   5.640  1.3699 -2.0520 -1.6367
 2560TIP3    H229096   5.243   0.896   5.719  0.1233 -0.5474  0.1222
 2561TIP3   OH229097   1.131   4.384   3.839 -0.0715 -0.4912  0.5054
 2561TIP3    H129098   1.109   4.324   3.767  0.4314 -0.8670  0.6573
 2561TIP3    H229099   1.200   4.440   3.803  0.5264 -0.9967  0.8370
 2562TIP3   OH229100   6.698   0.167  12.381  0.5098  0.3748  0.5782
 2562TIP3    H129101   6.722   0.107  12.452 -0.5337  0.2709  0.8588
 2562TIP3    H229102   6.779   0.179  12.332  0.7210 -1.3889  0.4238
 2563TIP3   OH229103   1.247   0.046  12.339 -0.1494  0.7940 -0.4781
 2563TIP3    H129104   1.207   0.064  12.424  1.7757 -3.0434  1.4977
 2563TIP3    H229105   1.213  -0.039  12.314  2.6833 -0.2307 -1.2382
 2564TIP3   OH229106   4.923   6.358  13.548 -0.4507  0.0817  0.3950
 2564TIP3    H129107   5.017   6.352  13.569 -0.0121  4.8536  0.9927
 2564TIP3    H229108   4.880   6.306  13.615  1.6967 -1.3155  0.8015
 2565TIP3   OH229109   4.312   5.519  16.942 -0.1075  0.6521 -0.3273
 2565TIP3    H129110   4.288   5.594  16.888 -2.4012 -0.5376 -1.1156
 2565TIP3    H229111   4.371   5.467  16.887 -2.2943 -0.4669 -1.7582
 2566TIP3   OH229112   2.034   4.355   0.762  0.0406  0.4756  0.2191
 2566TIP3    H129113   2.071   4.443   0.765  1.4008 -0.0574 -0.2261
 2566TIP3    H229114   2.012   4.335   0.853  2.0898  0.3431  0.7512
 2567TIP3   OH229115   3.478   0.802  15.782 -0.3797  0.1915  0.1701
 2567TIP3    H129116   3.415   0.868  15.752 -0.3393  0.1619  0.0194
 2567TIP3    H229117   3.462   0.794  15.876  1.6338  2.5980  0.8049
 2568TIP3   OH229118   3.481   6.572   3.139 -0.6941  0.4682  0.1660
 2568TIP3    H129119   3.575   6.566   3.153 -0.5940 -2.1023 -1.1648
 2568TIP3    H229120   3.467   6.663   3.110  1.7401  0.3041 -1.8463
 2569TIP3   OH229121   4.486   0.863   2.603  0.0728 -0.1486 -0.4514
 2569TIP3    H129122   4.506   0.791   2.662  1.8307 -1.0278 -1.9970
 2569TIP3    H229123   4.392   0.878   2.614 -0.1698 -2.0729  0.5734
 2570TIP3   OH229124   6.664   4.410  14.105 -0.0436 -0.2897 -0.1704
 2570TIP3    H129125   6.579   4.447  14.127  0.9670  1.7435  0.5906
 2570TIP3    H229126   6.715   4.416  14.185  2.1388  2.6695 -1.5440
 2571TIP3   OH229127   3.100   3.857  14.577 -0.0971  0.2382  0.4100
 2571TIP3    H129128   3.021   3.815  14.612 -0.3532  0.8517  0.5851
 2571TIP3    H229129   3.112   3.935  14.631  0.0500  0.6916 -0.2622
 2572TIP3   OH229130   1.659   6.626   0.084  0.5499  0.6436  0.1778
 2572TIP3    H129131   1.659   6.531   0.077 -0.0653  0.4439  2.3015
 2572TIP3    H229132   1.590   6.655   0.024  0.4130 -0.2726 -0.1135
 2573TIP3   OH229133   0.143   6.206   5.006  0.3784 -0.3946 -0.1775
 2573TIP3    H129134   0.079   6.173   5.068  0.2206  1.2533  0.5850
 2573TIP3    H229135   0.228   6.182   5.043  0.3856  2.2897  1.8254
 2574TIP3   OH229136   3.090   2.020   5.174 -0.1013 -0.2449 -0.4782
 2574TIP3    H129137   3.039   1.952   5.219 -1.2890  2.1602  2.1455
 2574TIP3    H229138   3.172   2.025   5.223  1.0242 -1.3729 -2.1838
 2575TIP3   OH229139   2.946   5.494  12.674  0.1626 -0.1495 -0.2464
 2575TIP3    H129140   2.903   5.562  12.621 -2.3210 -2.0165 -0.8071
 2575TIP3    H229141   3.016   5.461  12.618  0.2187  0.6953 -0.6966
 2576TIP3   OH229142   1.509   3.678   0.460  0.0829  0.0617 -0.6524
 2576TIP3    H129143   1.424   3.722   0.468 -0.6810 -1.3407 -0.8162
 2576TIP3    H229144   1.548   3.687   0.547 -0.0442  1.0508 -0.6796
 2577TIP3   OH229145   1.606   0.535   4.872  0.0200 -0.3855 -0.0515
 2577TIP3    H129146   1.595   0.629   4.858  0.4405 -0.4047 -0.5568
 2577TIP3    H229147   1.529   0.496   4.831  0.1383 -0.2996 -0.3544
 2578TIP3   OH229148   6.247   3.754  16.543 -0.2296  0.0383  0.2454
 2578TIP3    H129149   6.218   3.663  16.538  1.3972 -0.4924 -0.0743
 2578TIP3    H229150   6.310   3.756  16.615 -0.3942  0.9587  0.3776
 2579TIP3   OH229151   0.573   6.231   3.232 -0.1487  0.2526  0.8621
 2579TIP3    H129152   0.543   6.169   3.165  1.1813 -1.7152  2.0194
 2579TIP3    H229153   0.502   6.233   3.296 -0.9916  1.3853 -0.0643
 2580TIP3   OH229154   5.124   1.025  16.241  0.0963 -0.1805 -0.5181
 2580TIP3    H129155   5.208   1.024  16.197 -0.3720 -1.7632 -1.4888
 2580TIP3    H229156   5.108   0.933  16.265 -1.3051  0.0835 -0.3048
 2581TIP3   OH229157   1.239   0.184   2.746 -0.4602  0.4800  0.3299
 2581TIP3    H129158   1.287   0.128   2.684  0.1965 -0.4660  1.6432
 2581TIP3    H229159   1.305   0.212   2.809 -1.0151  1.8504  0.3374
 2582TIP3   OH229160   1.336   1.375   2.131  0.0513 -0.5023  0.0250
 2582TIP3    H129161   1.414   1.419   2.164  0.9713 -2.5978  0.8080
 2582TIP3    H229162   1.308   1.318   2.203 -0.2201 -2.2514 -1.3833
 2583TIP3   OH229163   4.658   5.264   4.861 -0.8082  0.0009  0.1078
 2583TIP3    H129164   4.579   5.228   4.821 -0.4883  2.0452 -2.6646
 2583TIP3    H229165   4.643   5.358   4.864  1.0890  0.3377  0.5917
 2584TIP3   OH229166   2.176   4.788   0.531  0.5573  0.6896 -0.2102
 2584TIP3    H129167   2.191   4.802   0.625  0.2751  0.5062 -0.1343
 2584TIP3    H229168   2.129   4.867   0.502 -0.0903  0.3872 -0.0138
 2585TIP3   OH229169   0.750   1.470  16.242  0.2510 -0.3515 -0.7476
 2585TIP3    H129170   0.684   1.431  16.299  0.9541 -0.2568  0.1686
 2585TIP3    H229171   0.745   1.419  16.161  0.2070 -1.4479 -0.0806
 2586TIP3   OH229172   2.291   3.893  14.424 -0.5555 -0.1160  0.3100
 2586TIP3    H129173   2.284   3.987  14.442  1.9694  0.3213 -0.6133
 2586TIP3    H229174   2.200   3.865  14.409 -1.3634  2.1922  0.4088
 2587TIP3   OH229175   1.500   2.576   3.606  0.1439 -0.0447  0.3160
 2587TIP3    H129176   1.555   2.576   3.685  1.7904 -1.7391 -0.7467
 2587TIP3    H229177   1.557   2.612   3.538 -0.0267 -1.7887 -0.8083
 2588TIP3   OH229178   0.671   5.243  16.890 -0.5027 -0.1712  0.4189
 2588TIP3    H129179   0.706   5.163  16.852 -0.5589  0.4475 -0.9967
 2588TIP3    H229180   0.579   5.243  16.864 -0.5920  0.1676  0.7286
 2589TIP3   OH229181   5.661   5.192  15.571 -0.2822  0.2403 -0.0035
 2589TIP3    H129182   5.593   5.232  15.517 -0.6418 -0.8688 -0.4023
 2589TIP3    H229183   5.743   5.226  15.535 -0.6070  1.8341  0.6789
 2590TIP3   OH229184   3.617   3.038   5.459 -0.3751  0.4664 -0.0233
 2590TIP3    H129185   3.692   3.047   5.519 -0.1160  0.7873 -0.3850
 2590TIP3    H229186   3.624   3.115   5.402 -0.7017  0.2373 -0.3715
 2591TIP3   OH229187   1.117   2.541  12.909  0.2336 -1.1987 -0.4273
 2591TIP3    H129188   1.078   2.510  12.827 -0.2017  0.6498 -0.9663
 2591TIP3    H229189   1.211   2.528  12.896  0.0506 -2.8228 -0.3584
 2592TIP3   OH229190   0.016   4.464   1.218 -0.7046 -0.3903 -0.4368
 2592TIP3    H129191  -0.032   4.394   1.173  0.3612 -1.0520 -0.5787
 2592TIP3    H229192   0.025   4.533   1.152 -1.9678  0.0039 -0.2255
 2593TIP3   OH229193   4.612   1.848   5.720 -0.3917 -1.1240  0.0032
 2593TIP3    H129194   4.590   1.940   5.732  0.5807 -0.8028 -0.5386
 2593TIP3    H229195   4.608   1.811   5.809 -0.3906 -0.4661  0.2855
 2594TIP3   OH229196   2.102   5.697  10.869 -0.2669  0.1499 -0.0036
 2594TIP3    H129197   2.076   5.674  10.780  2.6033 -1.1680 -0.6382
 2594TIP3    H229198   2.146   5.618  10.902 -0.8924  0.7466  2.4717
 2595TIP3   OH229199   2.400   5.641  17.007 -0.0379  0.0061 -0.3394
 2595TIP3    H129200   2.355   5.715  16.968 -0.9514  0.2637  1.1480
 2595TIP3    H229201   2.397   5.657  17.101  3.0512 -0.0410 -0.1271
 2596TIP3   OH229202   0.217   4.435  12.565  0.1635  0.2722  0.2534
 2596TIP3    H129203   0.219   4.490  12.643 -3.2055  0.6043  0.2574
 2596TIP3    H229204   0.274   4.480  12.503  3.4695 -0.3312  2.5626
 2597TIP3   OH229205   5.462   6.227  13.502 -0.3884 -0.1171  0.5011
 2597TIP3    H129206   5.535   6.265  13.550  0.6691  0.3634 -1.3574
 2597TIP3    H229207   5.445   6.289  13.431 -0.1787 -1.9213 -1.2302
 2598TIP3   OH229208   3.532   5.594   3.929 -0.1890 -0.1372  0.5725
 2598TIP3    H129209   3.557   5.503   3.919  0.3055  0.1539 -1.1476
 2598TIP3    H229210   3.562   5.618   4.017 -0.1731 -1.5718  0.9701
 2599TIP3   OH229211   1.347   3.114   1.186  0.0401 -0.1416 -0.2771
 2599TIP3    H129212   1.366   3.021   1.199  1.8337  0.2582  0.1750
 2599TIP3    H229213   1.343   3.125   1.091  1.7505 -0.3549 -0.4011
 2600TIP3   OH229214   5.322   5.543  13.024 -0.4318  0.1077  0.0770
 2600TIP3    H129215   5.233   5.534  13.057 -0.3171 -0.7687  0.1876
 2600TIP3    H229216   5.377   5.546  13.102 -0.1380 -2.2216  0.0462
 2601TIP3   OH229217   5.061   3.522  17.141  0.4909 -0.1567 -0.4295
 2601TIP3    H129218   5.145   3.512  17.185 -0.6147  1.7576  2.4996
 2601TIP3    H229219   5.022   3.434  17.144  0.0271 -0.0362  3.8174
 2602TIP3   OH229220   2.435   5.520   3.666 -0.0750  0.2806 -0.0680
 2602TIP3    H129221   2.475   5.511   3.752 -1.5348  0.4321  0.6601
 2602TIP3    H229222   2.385   5.601   3.671  0.4109  0.6769 -1.3148
 2603TIP3   OH229223   6.409   2.551  14.551  0.0941 -0.0715 -0.1730
 2603TIP3    H129224   6.485   2.608  14.555 -0.8384  1.2452 -0.7115
 2603TIP3    H229225   6.435   2.480  14.492  0.4014  1.1661 -1.5733
 2604TIP3   OH229226   1.311   6.441   4.159  0.4949 -0.1918 -0.1425
 2604TIP3    H129227   1.222   6.406   4.158 -0.3970  1.7430  1.7520
 2604TIP3    H229228   1.305   6.525   4.112  1.4483 -0.2992 -0.4807
 2605TIP3   OH229229   2.425   5.917  11.449 -0.5073 -0.0033  0.0010
 2605TIP3    H129230   2.453   5.954  11.366  2.0023 -0.3282  0.5961
 2605TIP3    H229231   2.492   5.946  11.512 -0.3628 -2.5528  1.1892
 2606TIP3   OH229232   2.635   2.576   1.859 -0.4832  0.3722 -0.1918
 2606TIP3    H129233   2.639   2.482   1.878 -0.2861  0.3326 -0.4339
 2606TIP3    H229234   2.630   2.581   1.763  1.1907  0.6637 -0.2872
 2607TIP3   OH229235   3.416   6.687   1.708  0.2689 -0.4996  0.0964
 2607TIP3    H129236   3.458   6.672   1.792  0.3643  1.5343  0.4569
 2607TIP3    H229237   3.341   6.742   1.727 -1.5709 -2.5559 -0.7948
 2608TIP3   OH229238   1.446   1.863  12.905  0.6343  0.0748  0.1692
 2608TIP3    H129239   1.520   1.825  12.953  0.4651 -3.1608 -1.8119
 2608TIP3    H229240   1.468   1.851  12.813 -1.5852  0.6816 -0.5086
 2609TIP3   OH229241   5.872   4.555  16.746  0.1317 -0.4804  0.5360
 2609TIP3    H129242   5.787   4.596  16.758 -0.4033 -0.9665 -1.2784
 2609TIP3    H229243   5.927   4.623  16.707  0.1373 -0.5860  0.3566
 2610TIP3   OH229244   0.297   2.205   2.153  1.2174 -0.2686  0.5167
 2610TIP3    H129245   0.201   2.209   2.158  1.1652  2.5707 -0.6603
 2610TIP3    H229246   0.326   2.194   2.243 -0.2131 -0.3445  0.9866
 2611TIP3   OH229247   3.242   5.044  15.547 -0.0958  0.2538 -0.5463
 2611TIP3    H129248   3.318   4.991  15.569 -2.7901 -2.9779  2.0281
 2611TIP3    H229249   3.206   5.071  15.631 -0.8220  3.3989 -1.7314
 2612TIP3   OH229250   1.747   1.479   6.611  0.4178 -0.2921 -0.2092
 2612TIP3    H129251   1.711   1.522   6.533 -0.4461 -1.2283 -0.3477
 2612TIP3    H229252   1.810   1.542   6.646 -1.0045  1.2232 -0.2404
 2613TIP3   OH229253   6.227   1.259   1.756  0.0070  0.2370  0.0413
 2613TIP3    H129254   6.141   1.302   1.750 -0.0220  0.2727  0.6367
 2613TIP3    H229255   6.257   1.254   1.666 -0.5194  0.4390 -0.1527
 2614TIP3   OH229256   2.933   5.947  11.782 -0.2193  0.8538  0.5300
 2614TIP3    H129257   2.949   5.877  11.718  0.4473  0.0447  1.5536
 2614TIP3    H229258   2.840   5.940  11.801 -1.3584  3.4629 -3.0007
 2615TIP3   OH229259   3.923   0.289   0.219  0.3058 -0.2163 -0.1595
 2615TIP3    H129260   3.969   0.367   0.249  0.8220 -1.1042  1.4589
 2615TIP3    H229261   3.993   0.228   0.195 -0.0929 -0.2849 -1.2150
 2616TIP3   OH229262   3.875   2.714  13.441 -0.3510  0.4231  0.0341
 2616TIP3    H129263   3.907   2.624  13.441  0.9989  0.8784 -0.5891
 2616TIP3    H229264   3.782   2.706  13.420 -0.5271 -0.8918  1.1812
 2617TIP3   OH229265   4.809   3.208  16.614 -0.0725  0.2264  0.2984
 2617TIP3    H129266   4.783   3.294  16.646 -1.0777  0.1479 -0.2661
 2617TIP3    H229267   4.845   3.224  16.527 -0.1492  0.0940  0.2408
 2618TIP3   OH229268   2.009   1.265  15.909  0.8343 -0.0685 -1.0137
 2618TIP3    H129269   2.015   1.359  15.892 -2.5328  0.0875 -1.8601
 2618TIP3    H229270   2.028   1.256  16.003 -0.3618  1.6983 -0.5628
 2619TIP3   OH229271   3.828   5.218  13.078 -0.0061  0.7833  0.4992
 2619TIP3    H129272   3.805   5.125  13.079 -1.8156  1.1855  2.5993
 2619TIP3    H229273   3.778   5.254  13.004 -2.9324  0.8248  2.3637
 2620TIP3   OH229274   2.542   1.418  13.086 -0.6755  0.3101  0.2893
 2620TIP3    H129275   2.564   1.325  13.096  0.3177  0.2792 -1.6762
 2620TIP3    H229276   2.506   1.443  13.171  0.9880 -1.3494  1.5856
 2621TIP3   OH229277   2.856   2.987   1.031  0.1739  0.0656  0.5741
 2621TIP3    H129278   2.933   3.044   1.028  0.3732 -0.2006  0.5273
 2621TIP3    H229279   2.782   3.046   1.042  0.2312  0.4433 -0.9097
 2622TIP3   OH229280   4.258   5.197  11.521 -0.3109  0.3761 -0.6743
 2622TIP3    H129281   4.315   5.157  11.454  1.0763  0.0759  0.6251
 2622TIP3    H229282   4.267   5.291  11.507  1.5588  0.3874  0.2717
 2623TIP3   OH229283   6.276   1.179  12.435  0.9535 -0.3602 -0.0919
 2623TIP3    H129284   6.262   1.089  12.406  0.0599  0.4463 -2.3014
 2623TIP3    H229285   6.262   1.233  12.357  3.1142  1.5990  0.7505
 2624TIP3   OH229286   2.027   6.535   4.648  0.3252  0.3480 -0.9348
 2624TIP3    H129287   2.053   6.608   4.705  0.0423 -1.2663  1.3890
 2624TIP3    H229288   1.931   6.540   4.646  0.1704 -1.0405  0.8575
 2625TIP3   OH229289   2.013   3.837   0.395 -0.0395 -0.2129  0.3547
 2625TIP3    H129290   1.959   3.867   0.468 -0.1499 -1.5079  0.8308
 2625TIP3    H229291   1.998   3.742   0.391  0.9664 -0.3573 -0.5235
 2626TIP3   OH229292   4.801   4.943  13.510  0.3970  0.1803 -0.7332
 2626TIP3    H129293   4.839   4.883  13.575 -2.8115 -0.2972  0.9114
 2626TIP3    H229294   4.798   5.028  13.555 -2.1782 -0.2298  0.0425
 2627TIP3   OH229295   1.833   6.122   0.809  0.1209 -0.1329  0.1566
 2627TIP3    H129296   1.744   6.117   0.775  0.8879  0.9584 -2.2283
 2627TIP3    H229297   1.856   6.215   0.802  1.0647 -0.2035  1.8747
 2628TIP3   OH229298   0.327   5.215   1.550  0.0471  0.0936 -0.6030
 2628TIP3    H129299   0.338   5.290   1.491 -1.5499 -0.9703 -2.3617
 2628TIP3    H229300   0.233   5.199   1.551  0.3308 -1.7460 -0.0766
 2629TIP3   OH229301   2.929   4.663  11.681  0.3794  0.0421 -0.3972
 2629TIP3    H129302   2.911   4.751  11.715 -2.2723 -1.1752  1.7134
 2629TIP3    H229303   2.870   4.653  11.607  0.5441 -0.0222 -0.5196
 2630TIP3   OH229304   0.225   6.326   0.339  0.1941  0.3746  0.2545
 2630TIP3    H129305   0.307   6.280   0.324 -0.4354 -1.0747  1.0246
 2630TIP3    H229306   0.216   6.386   0.265  1.8576  0.4609  0.0923
 2631TIP3   OH229307   2.673   1.523   1.044 -0.1761  0.1398  0.5445
 2631TIP3    H129308   2.731   1.467   1.095  0.5196 -1.7171 -2.0323
 2631TIP3    H229309   2.725   1.547   0.967 -1.4340  2.0371  0.2146
 2632TIP3   OH229310   4.828   4.543   0.477 -0.2634 -0.2323  0.1512
 2632TIP3    H129311   4.915   4.569   0.445 -1.5215  2.5592 -1.4829
 2632TIP3    H229312   4.840   4.526   0.570  2.0092  0.3268  0.0161
 2633TIP3   OH229313   0.457   1.988  14.731 -0.3861  0.3029 -0.0801
 2633TIP3    H129314   0.456   2.053  14.801 -2.6772 -1.7648  2.0005
 2633TIP3    H229315   0.548   1.984  14.703  0.0188  3.6609  0.2851
 2634TIP3   OH229316   5.163   0.259   4.597 -0.2504  0.6704 -0.3360
 2634TIP3    H129317   5.222   0.323   4.557  2.3844  0.2389  2.5161
 2634TIP3    H229318   5.151   0.290   4.686 -0.1695 -1.9531  0.6613
 2635TIP3   OH229319   6.143   6.399  15.361  0.0250  0.4748 -0.4304
 2635TIP3    H129320   6.202   6.355  15.423  0.2836  0.0127 -0.9934
 2635TIP3    H229321   6.085   6.329  15.331  0.4482  0.5021 -1.3515
 2636TIP3   OH229322   1.861   3.359   4.780  0.3936  0.5308 -0.0854
 2636TIP3    H129323   1.837   3.289   4.840 -1.1585  0.7240 -0.4263
 2636TIP3    H229324   1.875   3.436   4.836 -1.7800  0.9061  0.0532
 2637TIP3   OH229325   3.582   3.128  10.480 -0.0839 -0.3884 -0.1390
 2637TIP3    H129326   3.624   3.059  10.532 -0.3386  0.9193  1.9385
 2637TIP3    H229327   3.512   3.161  10.536 -0.6130  0.8647 -1.4798
 2638TIP3   OH229328   2.280   1.400   1.926  0.1536 -0.2051  0.2353
 2638TIP3    H129329   2.267   1.386   2.020 -1.3446  0.1171  0.0969
 2638TIP3    H229330   2.240   1.324   1.884  0.4399 -0.1424 -0.1589
 2639TIP3   OH229331   0.584   2.865   0.370  0.4772 -0.1492  0.1944
 2639TIP3    H129332   0.669   2.822   0.359  0.6304  0.2588 -0.2603
 2639TIP3    H229333   0.577   2.880   0.464  0.4620 -1.0820  0.3452
 2640TIP3   OH229334   6.638   6.432  15.763  0.0725  0.0774 -0.0730
 2640TIP3    H129335   6.651   6.459  15.854 -1.2033  0.1895  0.0865
 2640TIP3    H229336   6.689   6.351  15.755  1.5402  0.9378  0.2619
 2641TIP3   OH229337   1.832   0.347  15.363 -0.7448  0.4257 -0.9939
 2641TIP3    H129338   1.780   0.377  15.289 -1.9373  1.0766  0.0613
 2641TIP3    H229339   1.805   0.403  15.436 -0.6418 -1.0820  0.2699
 2642TIP3   OH229340   1.194   3.882  16.230  0.0167 -0.0499 -0.2951
 2642TIP3    H129341   1.229   3.801  16.194 -0.0909 -0.6470  0.9047
 2642TIP3    H229342   1.268   3.922  16.276  0.8231  1.8943 -3.0202
 2643TIP3   OH229343   1.663   2.465   0.417 -0.4439 -0.1607  0.4733
 2643TIP3    H129344   1.725   2.429   0.354  0.1164 -3.1047  2.4907
 2643TIP3    H229345   1.714   2.529   0.468 -0.9220  2.2933 -1.8858
 2644TIP3   OH229346   2.696   0.300   0.276 -0.5637 -0.1256 -0.2564
 2644TIP3    H129347   2.690   0.209   0.245  0.7813 -0.3061 -0.0450
 2644TIP3    H229348   2.707   0.292   0.371 -0.5203  0.2592 -0.2305
 2645TIP3   OH229349   6.630   4.655  10.630  0.1973 -0.6560  0.0159
 2645TIP3    H129350   6.694   4.613  10.688  2.2927  1.5349 -0.5085
 2645TIP3    H229351   6.653   4.748  10.634 -2.7065  0.1731 -0.6431
 2646TIP3   OH229352   4.927   0.180  10.722 -0.1206 -0.0380  0.0437
 2646TIP3    H129353   4.964   0.201  10.808  0.0210 -0.3493  0.0593
 2646TIP3    H229354   4.928   0.264  10.674 -2.7470  0.8141  1.2656
 2647TIP3   OH229355   0.309   5.779   0.432 -0.0401  0.6333 -0.1306
 2647TIP3    H129356   0.229   5.784   0.380 -0.8517  2.9142  1.1804
 2647TIP3    H229357   0.363   5.851   0.400  0.3233  0.7790  0.7919
 2648TIP3   OH229358   3.600   6.581  13.420 -0.0661  0.0049 -0.0306
 2648TIP3    H129359   3.687   6.541  13.426  2.1300  4.4020  1.4828
 2648TIP3    H229360   3.555   6.553  13.499  0.1465 -1.8011 -0.5091
 2649TIP3   OH229361   1.319   4.738   2.660 -0.1307  0.3562  0.2045
 2649TIP3    H129362   1.273   4.656   2.676 -1.0245  0.3200 -2.1421
 2649TIP3    H229363   1.400   4.713   2.617 -1.0484  0.6774 -1.8496
 2650TIP3   OH229364   1.759   0.165  11.775 -0.3208  0.1798  0.4851
 2650TIP3    H129365   1.691   0.128  11.718  1.8227  0.5782 -2.5895
 2650TIP3    H229366   1.771   0.254  11.743  0.4644  0.6947  2.1084
 2651TIP3   OH229367   6.673   1.416  14.082 -0.6468 -0.2778 -0.7214
 2651TIP3    H129368   6.735   1.414  14.010  0.8709 -3.9078  0.4896
 2651TIP3    H229369   6.723   1.450  14.156 -1.7497  1.8915 -0.8780
 2652TIP3   OH229370   6.066   6.625   1.698  0.2972  0.4394  0.1072
 2652TIP3    H129371   6.114   6.663   1.624  0.1321  2.1661  0.8398
 2652TIP3    H229372   5.989   6.681   1.708 -0.1608 -0.3286  1.0084
 2653TIP3   OH229373   5.548   0.481  14.490 -0.6955 -0.5178 -0.9175
 2653TIP3    H129374   5.532   0.393  14.456  0.6931 -0.5771 -1.4587
 2653TIP3    H229375   5.487   0.536  14.440 -0.1747 -0.9067 -2.0356
 2654TIP3   OH229376   0.482   2.060   1.452  0.3103 -0.7174 -0.2776
 2654TIP3    H129377   0.469   2.080   1.360 -1.3787  2.3462  0.4849
 2654TIP3    H229378   0.409   2.003   1.476  0.4312 -1.0483 -0.6927
 2655TIP3   OH229379   1.195   5.622  10.080 -0.5052  1.0535 -0.0971
 2655TIP3    H129380   1.248   5.588  10.152  0.1235  1.1723 -0.5022
 2655TIP3    H229381   1.140   5.547  10.055 -1.2925  1.2304  1.0034
 2656TIP3   OH229382   5.438   6.711  11.502  0.0999  0.0129  0.3304
 2656TIP3    H129383   5.479   6.712  11.588 -1.3927  1.5870  1.1006
 2656TIP3    H229384   5.398   6.625  11.494  1.5174 -0.6829  0.5457
 2657TIP3   OH229385   0.326   1.694  12.729 -0.0254 -0.0731  0.0375
 2657TIP3    H129386   0.269   1.712  12.803  1.3122  0.6813  0.9256
 2657TIP3    H229387   0.320   1.599  12.715 -0.4535 -0.1840  0.9640
 2658TIP3   OH229388   3.641   0.992  14.461 -0.2039  0.2893 -0.1852
 2658TIP3    H129389   3.586   0.981  14.538 -0.6990  1.3122 -0.3819
 2658TIP3    H229390   3.598   1.060  14.409  1.3348  1.3034 -0.2348
 2659TIP3   OH229391   5.513   3.686  12.775 -0.2199  0.0567 -0.6797
 2659TIP3    H129392   5.545   3.607  12.731  0.3891 -0.6246  0.9145
 2659TIP3    H229393   5.586   3.748  12.768 -0.6859  0.5030 -1.9026
 2660TIP3   OH229394   2.906   2.096   4.615  0.8276  0.7804 -0.4753
 2660TIP3    H129395   2.944   2.047   4.687  0.5511  0.6969 -0.3834
 2660TIP3    H229396   2.948   2.182   4.618  1.4680  0.4829 -0.7692
 2661TIP3   OH229397   0.260   3.274   3.120 -0.4271  0.5266  0.4699
 2661TIP3    H129398   0.290   3.247   3.207 -0.3858  0.8977  0.5765
 2661TIP3    H229399   0.173   3.236   3.111  0.2331 -0.9183 -0.0158
 2662TIP3   OH229400   4.534   1.429   2.358 -0.3373 -0.4760  0.3410
 2662TIP3    H129401   4.555   1.336   2.360 -2.5367 -1.3427 -4.1736
 2662TIP3    H229402   4.442   1.432   2.330 -0.0291  3.0126 -0.7383
 2663TIP3   OH229403   2.310   4.422   3.549  0.1418  0.0769 -0.3137
 2663TIP3    H129404   2.352   4.484   3.489 -0.2799  1.4724  0.7791
 2663TIP3    H229405   2.366   4.344   3.545  1.6042  1.0812 -0.5506
 2664TIP3   OH229406   4.177   1.846   3.025  0.3029  0.2267  0.0770
 2664TIP3    H129407   4.202   1.933   2.994  0.8476  0.5530  1.3837
 2664TIP3    H229408   4.250   1.818   3.079  0.7368 -1.6255 -1.3566
 2665TIP3   OH229409   6.652   6.596  15.339  0.3229 -0.7275  1.2814
 2665TIP3    H129410   6.622   6.505  15.342 -1.2584 -0.2092  3.3376
 2665TIP3    H229411   6.581   6.646  15.379  1.8864  1.2135  1.7736
 2666TIP3   OH229412   0.814   6.245   3.989 -0.3496  0.0912 -0.1597
 2666TIP3    H129413   0.760   6.241   3.910 -1.3329 -1.3811  0.5359
 2666TIP3    H229414   0.847   6.155   3.999 -0.6016  0.1409  1.3332
 2667TIP3   OH229415   1.414   3.237  14.325  0.4736  0.2446  0.1111
 2667TIP3    H129416   1.321   3.222  14.310  0.8590 -2.0821 -0.4822
 2667TIP3    H229417   1.450   3.149  14.339  3.3217  0.3995 -4.1936
 2668TIP3   OH229418   1.277   1.982   4.305  0.4028  0.6590 -0.4819
 2668TIP3    H129419   1.349   1.940   4.351  1.3513 -0.5421 -2.8530
 2668TIP3    H229420   1.199   1.935   4.336  0.9029  0.3927  0.4133
 2669TIP3   OH229421   0.754   6.786  16.209  0.2058  0.6551  0.0171
 2669TIP3    H129422   0.784   6.736  16.133 -0.0635 -0.2316  0.4928
 2669TIP3    H229423   0.762   6.726  16.283 -1.3687  0.8639  0.3929
 2670TIP3   OH229424   0.381   4.017   5.282  0.3237  0.1861  0.1205
 2670TIP3    H129425   0.353   3.925   5.279  0.2094  0.1281  1.9127
 2670TIP3    H229426   0.380   4.045   5.190 -4.5253 -0.1588 -0.2094
 2671TIP3   OH229427   6.211   3.763  17.157  0.1079  0.1218 -0.8500
 2671TIP3    H129428   6.301   3.756  17.127  0.2949 -1.3353 -0.0393
 2671TIP3    H229429   6.217   3.798  17.246  0.0772 -2.0994  0.0795
 2672TIP3   OH229430   1.207   4.554   3.449 -0.3303  0.1227 -0.2110
 2672TIP3    H129431   1.156   4.545   3.369 -0.8765  1.3812 -0.0283
 2672TIP3    H229432   1.148   4.598   3.511  0.2714 -0.3080  0.6922
 2673TIP3   OH229433   5.597   3.497   4.313  0.2509 -0.2661  0.5665
 2673TIP3    H129434   5.585   3.472   4.405  0.1139 -2.1093  0.0742
 2673TIP3    H229435   5.510   3.492   4.275  0.0192  2.0197  0.6318
 2674TIP3   OH229436   3.688   5.966   3.648 -0.0003  0.3740 -0.2821
 2674TIP3    H129437   3.675   6.061   3.645 -0.4108  0.3033 -0.7437
 2674TIP3    H229438   3.609   5.932   3.691  0.5782  0.3228  0.7662
 2675TIP3   OH229439   5.036   5.573   1.138 -0.3726 -0.0985 -0.2546
 2675TIP3    H129440   4.985   5.655   1.134 -1.3063 -0.7235 -2.0402
 2675TIP3    H229441   5.025   5.543   1.229  0.7302  2.1722  0.7114
 2676TIP3   OH229442   0.278   0.783  10.772 -0.4894 -0.3084  0.2115
 2676TIP3    H129443   0.211   0.850  10.779 -1.3595 -0.9916 -1.1207
 2676TIP3    H229444   0.351   0.826  10.727 -0.3618  0.1980  0.8887
 2677TIP3   OH229445   2.613   2.787  16.088 -0.2047 -0.2143  0.3295
 2677TIP3    H129446   2.611   2.751  16.000  0.5486  0.0800  0.1866
 2677TIP3    H229447   2.669   2.727  16.137 -0.5988 -0.3622  0.6087
 2678TIP3   OH229448   3.063   0.055  12.161 -0.2152 -0.0859  0.3035
 2678TIP3    H129449   3.086   0.027  12.249  0.1612  0.1835  0.2926
 2678TIP3    H229450   3.019   0.140  12.174  0.4001  0.2524  0.1838
 2679TIP3   OH229451   4.220   3.298   4.272  0.1939 -0.0253  0.1449
 2679TIP3    H129452   4.164   3.226   4.300  0.9413 -0.3760  0.7943
 2679TIP3    H229453   4.290   3.300   4.337  0.3647  1.0785 -0.0545
 2680TIP3   OH229454   3.752   1.394   2.703 -0.6838 -0.8474 -0.1651
 2680TIP3    H129455   3.724   1.306   2.678  0.2367 -1.8033  1.9204
 2680TIP3    H229456   3.674   1.448   2.691 -2.0004 -2.4437  0.7369
 2681TIP3   OH229457   2.883   1.851   0.257 -0.3119  0.5314 -0.1560
 2681TIP3    H129458   2.956   1.795   0.229 -0.0184  0.9522 -0.2303
 2681TIP3    H229459   2.914   1.891   0.338 -0.6139  0.4088  0.0191
 2682TIP3   OH229460   4.108   2.697   3.783 -0.0555  0.3572  0.8099
 2682TIP3    H129461   4.019   2.708   3.750  0.4224  2.1587 -0.0138
 2682TIP3    H229462   4.098   2.680   3.877 -1.3130 -1.4205  0.3900
 2683TIP3   OH229463   0.360   5.928  14.814 -0.0203  0.0764 -0.8405
 2683TIP3    H129464   0.421   5.942  14.886  0.4179 -0.4586 -1.1069
 2683TIP3    H229465   0.276   5.911  14.857  0.1389  0.2234 -0.4671
 2684TIP3   OH229466   0.548   5.013  14.112  0.1908  0.5442  0.2715
 2684TIP3    H129467   0.498   5.093  14.120  0.3594  0.5016  5.7015
 2684TIP3    H229468   0.636   5.042  14.087 -0.5635  1.5090 -1.4357
 2685TIP3   OH229469   4.782   0.761  15.359 -0.3774  0.2477  0.0290
 2685TIP3    H129470   4.819   0.712  15.286 -1.0888  1.1730 -0.9962
 2685TIP3    H229471   4.688   0.748  15.351 -0.3893 -1.1843  1.9474
 2686TIP3   OH229472   2.274   2.763   4.543  0.1636 -0.2051 -0.0728
 2686TIP3    H129473   2.301   2.744   4.453  1.8222  2.1438 -0.1508
 2686TIP3    H229474   2.333   2.712   4.598  1.7745  1.2969 -0.3231
 2687TIP3   OH229475   3.457   1.488  17.031 -0.0456  0.2748 -0.2417
 2687TIP3    H129476   3.459   1.431  17.108  1.8889 -1.7639 -1.6648
 2687TIP3    H229477   3.373   1.533  17.036 -0.3414 -0.4042  2.5805
 2688TIP3   OH229478   1.865   0.595  13.184 -0.0287  0.7914 -0.4527
 2688TIP3    H129479   1.865   0.684  13.149 -0.4008  0.5292 -1.1386
 2688TIP3    H229480   1.779   0.560  13.160 -0.3163  0.6063  0.7541
 2689TIP3   OH229481   6.471   6.278   4.779  0.1915  0.1155 -0.4246
 2689TIP3    H129482   6.530   6.344   4.816  2.0706 -0.0080 -2.9426
 2689TIP3    H229483   6.415   6.328   4.719 -0.7828 -0.1178  0.2639
 2690TIP3   OH229484   0.494   6.394  10.464 -0.4469  0.0552  0.0861
 2690TIP3    H129485   0.445   6.312  10.464  0.3768 -0.4428  0.1433
 2690TIP3    H229486   0.585   6.368  10.473 -0.2146  1.0013  0.6499
 2691TIP3   OH229487   5.140   2.395   2.788 -0.3797 -0.3576 -0.5863
 2691TIP3    H129488   5.065   2.367   2.840  0.8902 -0.6231  1.1752
 2691TIP3    H229489   5.208   2.329   2.805  0.4827  0.2120 -1.6400
 2692TIP3   OH229490   0.619   2.822  15.420  0.0899 -0.6833 -0.3180
 2692TIP3    H129491   0.715   2.822  15.412 -0.0742 -0.5218 -3.6726
 2692TIP3    H229492   0.596   2.915  15.422  0.0002 -0.6797  2.4996
 2693TIP3   OH229493   4.194   6.749  16.569  0.2179  0.0446 -0.2785
 2693TIP3    H129494   4.131   6.819  16.583 -1.3480 -1.1817 -0.8235
 2693TIP3    H229495   4.164   6.678  16.625 -0.8042 -1.6709 -2.7751
 2694TIP3   OH229496   2.170   1.981   5.130  0.0734  0.1902 -0.0561
 2694TIP3    H129497   2.213   1.921   5.191 -0.0844 -0.5947 -0.7099
 2694TIP3    H229498   2.212   1.965   5.046 -2.7627 -2.1075 -1.2131
 2695TIP3   OH229499   3.944   6.076  16.575  0.0310  0.1339  0.1693
 2695TIP3    H129500   3.954   6.064  16.481  0.5187  1.6081  0.0041
 2695TIP3    H229501   3.976   5.995  16.614  3.2625  0.8260 -0.7889
 2696TIP3   OH229502   0.567   4.924  14.383  0.0861  0.3649 -0.0492
 2696TIP3    H129503   0.574   4.963  14.296  0.1977 -0.6795 -0.5146
 2696TIP3    H229504   0.473   4.912  14.397  0.1332 -0.9472 -0.7118
 2697TIP3   OH229505   3.826   4.896   4.053  0.0724  0.1747 -0.1679
 2697TIP3    H129506   3.743   4.897   4.101 -0.8605 -0.0837 -1.7139
 2697TIP3    H229507   3.809   4.841   3.977  2.0524 -0.9335  0.1201
 2698TIP3   OH229508   1.851   1.645  14.734  0.6416 -0.0644  0.8320
 2698TIP3    H129509   1.830   1.656  14.827  2.5262  3.3226  1.0289
 2698TIP3    H229510   1.942   1.616  14.734  0.6283 -0.1070  0.0473
 2699TIP3   OH229511   5.122   4.312  16.772 -0.3126  0.7500 -0.2952
 2699TIP3    H129512   5.153   4.366  16.845  1.2658 -1.5214  0.8519
 2699TIP3    H229513   5.192   4.249  16.758 -2.3956 -1.5851 -0.9202
 2700TIP3   OH229514   6.256   2.666   4.764  0.0852 -0.2540 -0.2949
 2700TIP3    H129515   6.272   2.705   4.849 -1.8952  0.0941 -0.0249
 2700TIP3    H229516   6.306   2.720   4.703 -0.7337  1.3116  0.3464
 2701TIP3   OH229517   4.676   4.291  16.767  0.0217 -0.3569 -0.2391
 2701TIP3    H129518   4.639   4.276  16.681 -0.0097  0.1679 -0.3233
 2701TIP3    H229519   4.769   4.274  16.757  0.2896  1.2202 -0.7861
 2702TIP3   OH229520   0.205   0.409   3.591  0.3093  0.4066  0.0024
 2702TIP3    H129521   0.125   0.369   3.625 -0.5302 -0.5371 -2.8642
 2702TIP3    H229522   0.261   0.419   3.669 -0.9120 -2.8175  1.4952
 2703TIP3   OH229523   5.612   6.534   2.084  0.2979  0.0574  0.0610
 2703TIP3    H129524   5.678   6.589   2.040  0.9209 -1.6831 -1.3341
 2703TIP3    H229525   5.663   6.474   2.138 -0.2577 -0.2351  0.2686
 2704TIP3   OH229526   1.651   1.680  16.030  0.1294 -0.1186 -0.2422
 2704TIP3    H129527   1.626   1.588  16.037 -0.3905 -0.3028 -3.2961
 2704TIP3    H229528   1.670   1.706  16.120  0.9168 -3.3637  0.6739
 2705TIP3   OH229529   1.755   4.814  12.709 -0.3253  0.4364  0.0396
 2705TIP3    H129530   1.786   4.886  12.765 -1.3708  0.6967  0.3069
 2705TIP3    H229531   1.826   4.751  12.710  0.4213  1.2510  0.1949
 2706TIP3   OH229532   3.815   1.559   5.456 -0.4511 -0.1666 -0.2937
 2706TIP3    H129533   3.792   1.493   5.390 -0.1884 -0.5695  0.0106
 2706TIP3    H229534   3.898   1.596   5.425  0.5637 -1.5436  0.6484
 2707TIP3   OH229535   0.777   0.154  11.701 -0.2916 -0.3323  0.3213
 2707TIP3    H129536   0.821   0.239  11.711  0.6810 -0.6994 -0.6695
 2707TIP3    H229537   0.750   0.130  11.789 -2.5288  2.0072  0.3939
 2708TIP3   OH229538   1.286   6.205  14.548 -0.6935 -0.6267 -0.6074
 2708TIP3    H129539   1.374   6.178  14.521 -0.0781 -0.3737  1.0063
 2708TIP3    H229540   1.297   6.296  14.577 -2.1342  0.4494 -3.1903
 2709TIP3   OH229541   2.529   6.424   4.978 -0.3752  0.2030 -0.5667
 2709TIP3    H129542   2.557   6.515   4.989  2.4723 -0.7157  0.8508
 2709TIP3    H229543   2.603   6.382   4.934 -1.0497 -1.7360  0.0729
 2710TIP3   OH229544   0.064   6.588   4.187  0.2653 -0.3416 -0.3250
 2710TIP3    H129545   0.012   6.662   4.158  1.1616 -0.1378 -1.4738
 2710TIP3    H229546   0.107   6.619   4.267  0.7337  0.4185 -0.8654
 2711TIP3   OH229547   2.967   3.227  14.760 -0.4642 -0.0447 -0.3467
 2711TIP3    H129548   2.945   3.170  14.687 -1.0823 -0.4378  0.1391
 2711TIP3    H229549   2.915   3.194  14.833 -0.6954  1.0238 -0.0090
 2712TIP3   OH229550   0.400   6.540  11.249  0.6334  0.3687  0.7220
 2712TIP3    H129551   0.472   6.591  11.286  0.6647  1.5518 -0.8655
 2712TIP3    H229552   0.324   6.598  11.255  0.4476  0.2436 -0.1985
 2713TIP3   OH229553   3.048   5.528   0.832  0.6754 -0.0722 -0.1083
 2713TIP3    H129554   2.994   5.596   0.792  0.9048  0.5028  0.5556
 2713TIP3    H229555   2.994   5.492   0.902  1.1325  0.4728  0.5291
 2714TIP3   OH229556   4.842   3.762   0.402 -0.1209 -0.6339 -0.1908
 2714TIP3    H129557   4.934   3.738   0.406 -0.0300 -0.2092  0.6770
 2714TIP3    H229558   4.797   3.685   0.367  0.3916 -1.3654  0.7217
 2715TIP3   OH229559   1.042   1.211   3.090 -0.2025  0.3002 -0.0014
 2715TIP3    H129560   1.073   1.231   3.001  0.7882 -0.1292  0.2351
 2715TIP3    H229561   0.949   1.192   3.078 -0.0735  0.1938 -0.9651
 2716TIP3   OH229562   3.225   2.892  10.958 -0.2914  0.4952  0.3383
 2716TIP3    H129563   3.264   2.906  11.045  0.0964  0.5141  0.1655
 2716TIP3    H229564   3.224   2.797  10.947 -1.1916  0.4476  0.7374
 2717TIP3   OH229565   3.924   5.169   6.580  0.4334  0.3178  0.3228
 2717TIP3    H129566   3.892   5.259   6.594  2.1919  0.9419  0.5335
 2717TIP3    H229567   3.844   5.117   6.575 -0.6838  1.9914 -0.5908
 2718TIP3   OH229568   0.634   6.763  10.474 -0.1760 -0.0765 -0.3341
 2718TIP3    H129569   0.710   6.786  10.421  0.8303 -0.1523  1.0169
 2718TIP3    H229570   0.578   6.713  10.415  0.2919  0.9249 -1.6703
 2719TIP3   OH229571   0.366   2.439   4.227  0.1363 -0.5542 -0.1405
 2719TIP3    H129572   0.400   2.510   4.282 -0.1064 -0.1366 -0.5198
 2719TIP3    H229573   0.389   2.465   4.138  0.8056 -1.3821 -0.2151
 2720TIP3   OH229574   4.465   1.452  12.612 -0.3981 -0.3684  0.1730
 2720TIP3    H129575   4.530   1.502  12.562  0.3012 -1.9922 -0.6185
 2720TIP3    H229576   4.401   1.517  12.641 -1.0728  0.6487 -3.1956
 2721TIP3   OH229577   0.551   2.307   1.203 -0.7722  0.1478  0.0847
 2721TIP3    H129578   0.488   2.326   1.273 -0.0279 -0.4138  0.9168
 2721TIP3    H229579   0.596   2.390   1.189  0.4820 -0.2162  1.7144
 2722TIP3   OH229580   3.722   0.931  15.878 -0.3995  0.0109 -0.3177
 2722TIP3    H129581   3.639   0.919  15.832  0.0373 -0.5851 -0.9738
 2722TIP3    H229582   3.733   0.851  15.929 -0.4387  0.2777  0.1096
 2723TIP3   OH229583   1.114   6.691  14.625  0.4443 -0.1529  0.1688
 2723TIP3    H129584   1.199   6.674  14.666  0.3729 -1.3994 -0.1467
 2723TIP3    H229585   1.056   6.714  14.698  0.7533 -0.5779  0.5517
 2724TIP3   OH229586   4.250   1.694   5.620  0.1958  0.4079 -0.7261
 2724TIP3    H129587   4.207   1.646   5.691 -0.2944  0.8442 -0.7276
 2724TIP3    H229588   4.335   1.718   5.656 -0.1993  0.9658 -0.1408
 2725TIP3   OH229589   3.188   5.741  10.779 -0.0258 -0.4476 -0.0303
 2725TIP3    H129590   3.190   5.800  10.704  0.2651 -0.8297 -0.3300
 2725TIP3    H229591   3.158   5.658  10.743  0.1007 -0.6298  0.2771
 2726TIP3   OH229592   2.433   0.806   4.220  1.1051  0.0454  0.2456
 2726TIP3    H129593   2.383   0.727   4.239 -1.4269  1.6709  0.7174
 2726TIP3    H229594   2.420   0.821   4.126 -2.3870  2.3259  0.9361
 2727TIP3   OH229595   5.992   4.137  15.809  0.7613 -0.7709  0.8252
 2727TIP3    H129596   6.001   4.187  15.890  0.2649  1.4579 -0.4039
 2727TIP3    H229597   5.989   4.203  15.740 -0.1076 -2.5116 -0.9204
 2728TIP3   OH229598   3.594   2.787  13.474  0.1407 -0.3950 -0.6274
 2728TIP3    H129599   3.590   2.694  13.500 -1.5337 -0.7316 -1.8659
 2728TIP3    H229600   3.527   2.829  13.528  0.5503 -0.0015 -0.4248
 2729TIP3   OH229601   3.856   6.412   1.238  0.2417 -0.9140  0.0071
 2729TIP3    H129602   3.947   6.394   1.263  0.4365  0.3268  0.2160
 2729TIP3    H229603   3.862   6.445   1.148 -0.1314 -1.9763 -0.4287
 2730TIP3   OH229604   1.750   1.835  17.179  0.0375 -0.3403 -0.3105
 2730TIP3    H129605   1.737   1.823  17.273 -1.2816 -1.4180 -0.5986
 2730TIP3    H229606   1.737   1.748  17.142  0.8503  0.0076 -1.4781
 2731TIP3   OH229607   6.771   4.605  11.304  0.1406  0.6160 -0.2841
 2731TIP3    H129608   6.690   4.620  11.352 -0.1036 -0.9793 -0.1429
 2731TIP3    H229609   6.795   4.515  11.325  0.8594  0.3864 -1.9106
 2732TIP3   OH229610   4.080   2.942   4.971  0.5170 -0.7013 -0.6442
 2732TIP3    H129611   4.137   2.980   5.038 -0.3711  0.7943 -0.6870
 2732TIP3    H229612   4.055   2.856   5.005 -0.1740  0.1567  1.1100
 2733TIP3   OH229613   6.136   6.142   1.322  0.1385  0.5786 -0.2771
 2733TIP3    H129614   6.164   6.231   1.301 -2.2811  1.7041  0.8838
 2733TIP3    H229615   6.045   6.151   1.349 -0.0590 -2.2119  0.3033
 2734TIP3   OH229616   2.969   6.581  13.723  0.2472 -0.7416 -0.5087
 2734TIP3    H129617   3.044   6.592  13.782  2.0675 -0.0181 -2.8230
 2734TIP3    H229618   2.937   6.669  13.708  1.5124 -0.5755 -2.6049
 2735TIP3   OH229619   6.098   5.203  13.906 -0.2809  0.1129 -0.3428
 2735TIP3    H129620   6.008   5.230  13.921 -0.0099  0.7192  0.2637
 2735TIP3    H229621   6.097   5.108  13.913 -1.1461 -0.0129 -1.8771
 2736TIP3   OH229622   1.015   4.595   2.700  0.4242 -0.4034 -0.5049
 2736TIP3    H129623   1.006   4.665   2.765 -2.9671 -0.4603 -0.7595
 2736TIP3    H229624   1.058   4.524   2.747  1.3053  0.8144  0.5905
 2737TIP3   OH229625   3.731   2.083  13.145 -0.5507 -0.1435  0.6131
 2737TIP3    H129626   3.755   2.161  13.195 -0.8047 -0.2661  0.9345
 2737TIP3    H229627   3.648   2.106  13.103 -0.3312 -0.0373  0.2361
 2738TIP3   OH229628   5.589   3.655   3.759  0.4260 -0.9449 -0.0383
 2738TIP3    H129629   5.592   3.593   3.832  0.6345 -0.2314  0.5674
 2738TIP3    H229630   5.681   3.672   3.738  0.4618  1.0676  1.4644
 2739TIP3   OH229631   2.456   4.262   1.786  0.5170  0.3281  0.0478
 2739TIP3    H129632   2.421   4.205   1.717 -1.3871  2.0997 -0.5801
 2739TIP3    H229633   2.483   4.202   1.855 -0.6192 -1.3849 -0.9055
 2740TIP3   OH229634   0.932   0.215   4.054  0.4657  0.0028  0.2322
 2740TIP3    H129635   0.918   0.121   4.056  0.2433  0.0123 -0.5113
 2740TIP3    H229636   0.897   0.247   4.137  1.8116 -0.7243  1.1110
 2741TIP3   OH229637   1.102   3.098   2.137  0.2403 -0.5186  0.0239
 2741TIP3    H129638   1.030   3.040   2.163 -0.5409 -0.0744 -1.0890
 2741TIP3    H229639   1.159   3.043   2.083 -0.0990 -0.4556 -0.4003
 2742TIP3   OH229640   0.626   1.229   0.829  0.0242 -0.5300 -0.0514
 2742TIP3    H129641   0.640   1.288   0.903 -0.9101 -1.4441  0.8931
 2742TIP3    H229642   0.540   1.254   0.794  1.5777  1.7243 -2.6379
 2743TIP3   OH229643   5.610   6.698  11.283 -0.0205  0.4652 -0.4691
 2743TIP3    H129644   5.564   6.780  11.270 -1.4741 -0.4497 -1.3714
 2743TIP3    H229645   5.540   6.634  11.298  1.0898 -0.5626  0.4839
 2744TIP3   OH229646   5.682   3.676  13.464 -0.3525  0.2760  0.0747
 2744TIP3    H129647   5.696   3.732  13.388 -2.5754  0.7217 -0.0482
 2744TIP3    H229648   5.672   3.588  13.427  0.6629  0.1431  0.0694
 2745TIP3   OH229649   0.447   5.636  12.634 -0.3757 -0.1878 -0.3153
 2745TIP3    H129650   0.434   5.727  12.663 -1.5275  0.0603 -1.5029
 2745TIP3    H229651   0.372   5.589  12.671  0.4783 -0.7879  0.7096
 2746TIP3   OH229652   2.528   0.256  13.600  0.3008  0.1071 -0.6967
 2746TIP3    H129653   2.441   0.260  13.639  0.8931 -1.1202  0.8646
 2746TIP3    H229654   2.561   0.346  13.604  0.0156  0.1666  0.9375
 2747TIP3   OH229655   0.884   1.327  14.642  0.7672 -0.0800  1.0508
 2747TIP3    H129656   0.800   1.360  14.673  0.8257  0.6255  0.4673
 2747TIP3    H229657   0.927   1.403  14.603  1.2326 -0.6752  0.3860
 2748TIP3   OH229658   3.732   0.439  12.039 -0.2017 -0.1939 -0.9293
 2748TIP3    H129659   3.687   0.519  12.064 -0.4911  0.4580 -3.3044
 2748TIP3    H229660   3.721   0.433  11.944  2.1733 -1.5937 -1.2054
 2749TIP3   OH229661   3.280   2.695  13.635  0.2746 -0.0029  0.1280
 2749TIP3    H129662   3.221   2.646  13.577  0.3260  0.3977 -0.2659
 2749TIP3    H229663   3.286   2.641  13.714 -2.1354  0.8207  0.9810
 2750TIP3   OH229664   2.479   0.170   5.505  0.2806  0.7797 -0.7070
 2750TIP3    H129665   2.545   0.239   5.499  2.4433 -0.9672  1.1891
 2750TIP3    H229666   2.494   0.130   5.591 -0.4260 -2.4635 -1.9535
 2751TIP3   OH229667   2.990   4.777  12.547  0.0389  0.3594  0.1777
 2751TIP3    H129668   3.024   4.760  12.460 -1.3744  0.8497 -0.5028
 2751TIP3    H229669   3.051   4.840  12.585  1.9139 -1.5326  0.4304
 2752TIP3   OH229670   3.814   3.214   0.827 -0.6235 -0.2787  0.6727
 2752TIP3    H129671   3.740   3.275   0.823 -0.9840 -0.7614 -0.9368
 2752TIP3    H229672   3.884   3.257   0.778 -0.9103 -1.1450 -0.5624
 2753TIP3   OH229673   0.852   3.099   3.875 -0.6855 -0.2286  0.0662
 2753TIP3    H129674   0.867   3.008   3.900 -0.2048 -0.6677 -1.6510
 2753TIP3    H229675   0.768   3.099   3.830 -0.3373  0.0124 -0.6066
 2754TIP3   OH229676   1.257   2.054  17.024 -0.4692  0.1248 -0.5284
 2754TIP3    H129677   1.303   2.137  17.036 -0.7119  0.4207 -1.5602
 2754TIP3    H229678   1.327   1.989  17.012 -0.3023  0.4030 -1.0685
 2755TIP3   OH229679   2.751   0.545   3.744  0.0595  0.4801 -0.0748
 2755TIP3    H129680   2.830   0.492   3.760  0.1599 -0.1349 -2.2340
 2755TIP3    H229681   2.778   0.634   3.765  1.7427  0.4469 -1.7417
 2756TIP3   OH229682   2.794   1.345  14.336 -0.4707  0.0332  0.7040
 2756TIP3    H129683   2.781   1.362  14.429  0.1777  0.3976  0.7275
 2756TIP3    H229684   2.731   1.402  14.292 -3.7514 -2.9499  0.9777
 2757TIP3   OH229685   4.533   0.290   0.700 -0.1354 -0.3014  0.3891
 2757TIP3    H129686   4.486   0.279   0.783  0.1705 -1.3401  0.4360
 2757TIP3    H229687   4.482   0.356   0.652 -1.4595 -1.1633  0.5710
 2758TIP3   OH229688   4.039   2.643  13.791 -0.2763 -0.0938  0.8037
 2758TIP3    H129689   4.065   2.642  13.883 -0.6125  1.0055  0.9232
 2758TIP3    H229690   3.986   2.722  13.781 -1.4258 -0.9234 -0.0227
 2759TIP3   OH229691   6.440   2.749  13.288 -0.0660  1.2047 -0.1954
 2759TIP3    H129692   6.419   2.783  13.201 -0.7893  0.6159 -0.2681
 2759TIP3    H229693   6.373   2.683  13.304  0.0097  1.3572  0.8442
 2760TIP3   OH229694   5.783   0.167  12.786 -0.2746 -0.3038  0.7031
 2760TIP3    H129695   5.812   0.252  12.753 -0.4964 -0.1979  0.7778
 2760TIP3    H229696   5.687   0.175  12.791 -0.7098 -1.7124 -2.6275
 2761TIP3   OH229697   0.599   0.525  11.861 -0.0464 -0.2170 -0.0645
 2761TIP3    H129698   0.533   0.490  11.802  0.4249 -2.4035  0.5942
 2761TIP3    H229699   0.682   0.511  11.815  0.1530  0.0737  0.2022
 2762TIP3   OH229700   5.939   0.115  13.090 -0.1575 -0.3172  0.0687
 2762TIP3    H129701   5.892   0.045  13.044 -0.6004 -1.3129  1.9392
 2762TIP3    H229702   5.888   0.130  13.169  1.1394  0.5794  0.7742
 2763TIP3   OH229703   2.759   1.229   0.141 -0.5304  0.3422  0.2462
 2763TIP3    H129704   2.810   1.298   0.182  1.2753 -0.9559  0.3167
 2763TIP3    H229705   2.713   1.186   0.214 -1.6400  1.3950  0.2035
 2764TIP3   OH229706   6.034   5.035  14.830 -0.0035  0.2767  0.2121
 2764TIP3    H129707   6.012   4.976  14.758  0.3088 -0.1845  0.4886
 2764TIP3    H229708   5.953   5.082  14.848 -0.4214 -0.4920  0.3784
 2765TIP3   OH229709   1.707   4.345   0.107  0.2810 -0.1659 -0.5743
 2765TIP3    H129710   1.778   4.295   0.149  2.5606  3.2036 -0.0308
 2765TIP3    H229711   1.662   4.388   0.179 -0.1023  0.4379 -1.1671
 2766TIP3   OH229712   3.109   2.761  15.357  0.9215 -0.2164  0.0832
 2766TIP3    H129713   3.112   2.744  15.262  1.4005 -0.5176  0.1507
 2766TIP3    H229714   3.020   2.737  15.382  0.2375  1.5086 -0.5868
 2767TIP3   OH229715   6.618   1.074  12.417  0.5138  0.4722  0.0043
 2767TIP3    H129716   6.607   1.157  12.463  3.3261 -0.2397  2.2908
 2767TIP3    H229717   6.660   1.098  12.335 -0.8843  1.4648 -0.4539
 2768TIP3   OH229718   2.854   6.535   1.778 -0.1289 -0.3453  0.5700
 2768TIP3    H129719   2.809   6.604   1.827  0.0458 -0.4704  0.9083
 2768TIP3    H229720   2.928   6.579   1.737 -0.3078 -0.2292  0.3681
 2769TIP3   OH229721   2.923   0.177  16.193  0.4288  0.0120 -0.9349
 2769TIP3    H129722   2.966   0.119  16.130 -1.8569 -1.2600 -1.4521
 2769TIP3    H229723   2.830   0.155  16.186 -0.2487  1.9995  0.7152
 2770TIP3   OH229724   0.529   0.263  12.053  0.4031 -0.3326 -0.2187
 2770TIP3    H129725   0.529   0.347  12.008  0.8650  0.0976  0.5675
 2770TIP3    H229726   0.621   0.247  12.074  0.1442 -0.2377  1.0798
 2771TIP3   OH229727   5.764   6.689   6.508 -0.0393 -0.2651  0.0435
 2771TIP3    H129728   5.711   6.624   6.461 -1.2640 -0.5665  1.7831
 2771TIP3    H229729   5.701   6.748   6.548  1.0328  1.1004 -0.2143
 2772TIP3   OH229730   2.405   6.130   0.709 -0.4808  0.1664  0.4133
 2772TIP3    H129731   2.337   6.072   0.743 -0.7708  0.9732  1.2298
 2772TIP3    H229732   2.460   6.072   0.655 -1.7143 -0.5329 -0.1599
 2773TIP3   OH229733   1.150   6.018  11.881  0.2560  0.3098  0.0862
 2773TIP3    H129734   1.093   5.998  11.955 -0.3729 -4.9631 -1.4336
 2773TIP3    H229735   1.231   5.971  11.900  0.6912  0.2318 -1.8050
 2774TIP3   OH229736   3.067   0.932  14.765  0.2418 -0.2396 -0.6318
 2774TIP3    H129737   2.972   0.943  14.761  0.1905 -0.8054 -1.0499
 2774TIP3    H229738   3.088   0.879  14.688  1.0255  0.8356 -1.1886
 2775TIP3   OH229739   2.499   5.197  13.065  0.1525 -0.2016 -0.6069
 2775TIP3    H129740   2.458   5.256  13.002 -2.1381 -1.1202 -0.0449
 2775TIP3    H229741   2.491   5.110  13.026 -1.3701 -0.7901  0.9374
 2776TIP3   OH229742   2.840   4.660   4.501 -0.0004  0.3662 -0.0726
 2776TIP3    H129743   2.890   4.742   4.503 -0.3013  0.5651 -0.5175
 2776TIP3    H229744   2.836   4.633   4.592 -0.5654  1.2618  0.1854
 2777TIP3   OH229745   2.294   4.162   3.744 -0.6107  0.3529  0.1407
 2777TIP3    H129746   2.353   4.105   3.792 -1.5623 -1.5277 -0.7957
 2777TIP3    H229747   2.331   4.167   3.656 -0.1907  1.7780  0.3607
 2778TIP3   OH229748   1.597   2.318  17.037 -0.3294  0.0111 -0.1488
 2778TIP3    H129749   1.520   2.274  17.002 -1.0467  1.5243 -0.5440
 2778TIP3    H229750   1.568   2.357  17.120 -0.4043  1.6818 -0.9096
 2779TIP3   OH229751   6.407   4.494   4.540  0.2991  0.3071 -0.0032
 2779TIP3    H129752   6.441   4.538   4.462  1.0744 -1.2527 -0.5966
 2779TIP3    H229753   6.468   4.517   4.610 -0.4592  1.7979  0.2021
 2780TIP3   OH229754   4.552   4.953  13.099  0.0593 -0.7828 -0.0555
 2780TIP3    H129755   4.567   4.942  13.193 -1.2318 -0.5132  0.2043
 2780TIP3    H229756   4.602   4.882  13.058  2.8021  0.6393  0.6003
 2781TIP3   OH229757   0.933   0.805   2.521  0.5011 -0.0791  0.0147
 2781TIP3    H129758   0.845   0.780   2.493  0.7611  0.1306 -1.0312
 2781TIP3    H229759   0.989   0.732   2.495  0.8713  0.4698 -0.7987
 2782TIP3   OH229760   0.755   0.338  17.143 -0.2969  0.4776 -0.1405
 2782TIP3    H129761   0.793   0.392  17.212 -0.2742 -1.4811  1.5061
 2782TIP3    H229762   0.819   0.341  17.072  1.2435  0.1066  1.1606
 2783TIP3   OH229763   1.239   5.203   1.541  0.4437  0.7378  0.2036
 2783TIP3    H129764   1.330   5.203   1.572 -0.0597  0.4819  1.8136
 2783TIP3    H229765   1.233   5.127   1.484  1.1037  0.3999  0.5702
 2784TIP3   OH229766   4.115   3.035  17.188 -0.5559  0.4351 -0.6733
 2784TIP3    H129767   4.138   3.068  17.274 -1.2354 -0.8195  0.0289
 2784TIP3    H229768   4.183   3.068  17.130  1.7218 -1.2445  0.8808
 2785TIP3   OH229769   4.791   3.758   0.699 -0.3201 -0.1261 -0.2370
 2785TIP3    H129770   4.776   3.827   0.635 -0.7582 -0.4637 -0.5112
 2785TIP3    H229771   4.834   3.688   0.649 -1.1720 -0.6157 -0.3083
 2786TIP3   OH229772   3.138   1.994  11.906  0.5924  0.5546 -0.0018
 2786TIP3    H129773   3.218   1.951  11.876  0.3239  0.6207 -0.8230
 2786TIP3    H229774   3.129   1.965  11.997  1.6326  0.6787  0.1505
 2787TIP3   OH229775   1.948   5.919  15.001  0.1318 -0.5642 -0.0050
 2787TIP3    H129776   1.996   5.977  14.942  0.1060 -0.1541  0.3711
 2787TIP3    H229777   1.868   5.968  15.022 -0.4615 -1.2414 -0.6314
 2788TIP3   OH229778   4.327   6.354   5.410  0.4079 -0.1972  0.0806
 2788TIP3    H129779   4.343   6.415   5.481  0.5863 -0.8000  0.5647
 2788TIP3    H229780   4.293   6.275   5.452 -1.8473  0.2700 -0.7059
 2789TIP3   OH229781   6.105   6.248   4.768  0.4098 -0.0536 -0.3536
 2789TIP3    H129782   6.038   6.191   4.730  0.3973 -0.4073  0.1733
 2789TIP3    H229783   6.178   6.244   4.706  0.5134 -0.8676 -0.2027
 2790TIP3   OH229784   4.842   5.902   2.215 -0.1449 -0.1778  0.7690
 2790TIP3    H129785   4.793   5.837   2.166  0.1447 -1.1035  1.6765
 2790TIP3    H229786   4.921   5.857   2.245  0.4828  0.8296  0.6964
 2791TIP3   OH229787   0.732   1.585  12.510 -0.4419  0.1567 -0.2442
 2791TIP3    H129788   0.715   1.523  12.439  0.1503 -0.1563 -0.1147
 2791TIP3    H229789   0.824   1.572  12.532 -0.2683  1.1837 -0.3157
 2792TIP3   OH229790   0.698   5.053   4.171 -0.5929  0.5009 -0.0619
 2792TIP3    H129791   0.720   4.968   4.133 -2.9414 -0.6651  0.9709
 2792TIP3    H229792   0.693   5.112   4.096  2.0651  0.0509 -0.7065
 2793TIP3   OH229793   3.371   4.357  15.288  0.0173 -0.7698 -0.0397
 2793TIP3    H129794   3.307   4.286  15.281  0.8442 -1.4420 -1.0787
 2793TIP3    H229795   3.324   4.435  15.257 -0.3851 -1.1970 -0.5218
 2794TIP3   OH229796   5.259   1.084  10.669  0.1552 -0.1158 -0.1811
 2794TIP3    H129797   5.252   0.999  10.714 -0.2772 -0.0357 -0.0979
 2794TIP3    H229798   5.324   1.132  10.721 -1.0960  0.3683  1.0132
 2795TIP3   OH229799   2.231   0.665   3.200 -0.0105 -0.7803  0.4896
 2795TIP3    H129800   2.170   0.598   3.231  0.9278 -2.1188 -0.4606
 2795TIP3    H229801   2.174   0.733   3.164 -0.9718 -1.2570  1.0431
 2796TIP3   OH229802   5.459   0.236  16.735  0.1294  0.2479  0.4169
 2796TIP3    H129803   5.429   0.167  16.793 -1.3955  1.1831  0.7811
 2796TIP3    H229804   5.383   0.292  16.722  0.2770 -0.0809 -2.7545
 2797TIP3   OH229805   2.576   0.567  12.365  0.0778  0.6069  0.2275
 2797TIP3    H129806   2.625   0.586  12.445 -0.1732  2.6547 -0.0501
 2797TIP3    H229807   2.634   0.597  12.294  0.8387 -2.3247 -0.5025
 2798TIP3   OH229808   3.746   4.827  14.925  0.2206  0.5391 -0.0133
 2798TIP3    H129809   3.687   4.845  14.998  1.4771  2.4133  0.6100
 2798TIP3    H229810   3.747   4.908  14.873  0.4797 -0.2536 -1.2960
 2799TIP3   OH229811   3.053   0.499   3.844  0.2846 -0.4496 -0.6101
 2799TIP3    H129812   3.082   0.460   3.926  3.1454 -0.5996 -1.5757
 2799TIP3    H229813   3.078   0.591   3.851 -0.0066 -0.3338 -1.0698
 2800TIP3   OH229814   2.828   5.570   3.098  0.1282  0.2304 -0.2015
 2800TIP3    H129815   2.809   5.586   3.191  1.1657 -0.0328  0.0693
 2800TIP3    H229816   2.900   5.629   3.077  0.6007 -0.4450 -0.5485
 2801TIP3   OH229817   1.146   2.780   1.953  0.1375  0.5096 -0.3383
 2801TIP3    H129818   1.077   2.722   1.985  1.5922 -1.1457 -0.0396
 2801TIP3    H229819   1.218   2.767   2.014  1.1943  1.1369 -1.4190
 2802TIP3   OH229820   3.167   4.845   3.775  0.0923 -1.3326 -0.5574
 2802TIP3    H129821   3.259   4.830   3.792  0.2769 -0.5490 -0.7903
 2802TIP3    H229822   3.140   4.772   3.718  0.2630 -2.1924  0.4500
 2803TIP3   OH229823   0.188   0.618  15.100  0.2391 -0.2426 -0.2140
 2803TIP3    H129824   0.241   0.539  15.115  0.8340  0.1642 -0.1281
 2803TIP3    H229825   0.235   0.664  15.030 -0.5750 -0.3811 -0.8786
 2804TIP3   OH229826   0.714   2.235  16.471 -0.0756  0.2975 -0.1472
 2804TIP3    H129827   0.713   2.208  16.563  0.8385 -1.0788 -0.5128
 2804TIP3    H229828   0.757   2.321  16.471  1.7325 -0.5732  0.5229
 2805TIP3   OH229829   2.477   3.741  15.782  0.1415  0.0496 -0.5029
 2805TIP3    H129830   2.487   3.649  15.805  0.3451  0.2439  0.2226
 2805TIP3    H229831   2.384   3.759  15.794  0.0354 -0.1526 -1.0074
 2806TIP3   OH229832   6.089   5.910  16.563 -0.4594 -0.0114  0.1453
 2806TIP3    H129833   6.014   5.904  16.622 -0.6600  0.2217 -0.0856
 2806TIP3    H229834   6.165   5.895  16.620 -0.6678 -0.0684  0.4119
 2807TIP3   OH229835   5.059   1.103  15.672  0.1393 -0.5215  0.1762
 2807TIP3    H129836   5.151   1.081  15.686  0.3174  0.0146 -0.1437
 2807TIP3    H229837   5.011   1.032  15.716  0.6999 -1.9916 -1.4537
 2808TIP3   OH229838   2.342   1.095   1.244 -0.1823 -0.2967  0.0963
 2808TIP3    H129839   2.380   1.098   1.156 -0.0244  2.3556  0.1864
 2808TIP3    H229840   2.315   1.004   1.255  1.5812 -1.1523 -1.9223
 2809TIP3   OH229841   2.107   5.599  12.239 -0.0540  0.2742  0.1629
 2809TIP3    H129842   2.123   5.690  12.213  1.4550  0.3968  1.3542
 2809TIP3    H229843   2.049   5.605  12.315 -0.1248  0.2253  0.1128
 2810TIP3   OH229844   3.218   6.658  13.828 -0.1105 -0.2138  0.6688
 2810TIP3    H129845   3.313   6.661  13.843  0.4468 -1.1635 -2.0125
 2810TIP3    H229846   3.188   6.747  13.844  1.3739  0.2877  0.8548
 2811TIP3   OH229847   5.039   6.499   5.460 -0.0967  0.3897 -0.1684
 2811TIP3    H129848   4.983   6.554   5.405  0.2506  1.1968  0.2636
 2811TIP3    H229849   5.103   6.560   5.497  1.9876 -0.7101 -1.7715
 2812TIP3   OH229850   2.456   6.566   5.708 -0.3163  0.3506 -0.9614
 2812TIP3    H129851   2.437   6.473   5.715  1.2340 -0.0377 -1.4362
 2812TIP3    H229852   2.455   6.584   5.614  0.9023  0.4374 -0.9788
 2813TIP3   OH229853   0.368   0.465  14.549 -0.4021  0.0516  0.5414
 2813TIP3    H129854   0.344   0.385  14.502  1.1174 -0.2183  0.1719
 2813TIP3    H229855   0.421   0.515  14.487  0.3847  0.3768  1.4411
 2814TIP3   OH229856   6.380   6.236   4.107  0.4781 -0.8139 -0.0185
 2814TIP3    H129857   6.398   6.286   4.027  1.0701 -2.4005 -0.9051
 2814TIP3    H229858   6.425   6.285   4.176  0.8471  0.0144 -0.8229
 2815TIP3   OH229859   0.327   1.429   5.051  0.5764 -0.0972  0.3706
 2815TIP3    H129860   0.354   1.379   4.974  1.7727 -0.9255  1.2733
 2815TIP3    H229861   0.282   1.505   5.016 -1.2762 -1.7412 -1.0832
 2816TIP3   OH229862   0.032   0.217  13.244 -0.0467  0.2794  0.6814
 2816TIP3    H129863   0.045   0.285  13.178 -1.7965 -0.1210 -0.1485
 2816TIP3    H229864   0.099   0.234  13.310 -0.5277  2.9218  0.6021
 2817TIP3   OH229865   4.585   4.510   4.445 -0.1514  0.0813  0.4442
 2817TIP3    H129866   4.581   4.593   4.492 -0.0029 -0.8136  2.1175
 2817TIP3    H229867   4.517   4.456   4.485  1.2127 -1.3541  0.9373
 2818TIP3   OH229868   4.792   2.625  15.050 -0.3664 -0.0160 -0.0836
 2818TIP3    H129869   4.767   2.559  15.115 -0.5491  0.8293  0.7247
 2818TIP3    H229870   4.722   2.623  14.985  0.4353 -1.7588 -0.9783
 2819TIP3   OH229871   3.849   3.659   5.205 -0.2233  0.1229  0.0026
 2819TIP3    H129872   3.866   3.581   5.151 -0.0519 -1.4695  2.2162
 2819TIP3    H229873   3.754   3.668   5.203 -0.3022 -0.5504  0.2248
 2820TIP3   OH229874   1.473   6.437   3.480 -0.3568 -0.3868  0.7058
 2820TIP3    H129875   1.459   6.497   3.552 -1.8341  2.4671 -1.7398
 2820TIP3    H229876   1.539   6.479   3.425 -1.7171 -0.7254 -1.2956
 2821TIP3   OH229877   1.496   2.193   4.223  0.6034  0.2395 -0.3467
 2821TIP3    H129878   1.522   2.105   4.198  1.0929 -0.1822  1.5215
 2821TIP3    H229879   1.436   2.181   4.297 -0.3375  1.4359 -0.8698
 2822TIP3   OH229880   3.354   2.744  11.625  0.2957 -0.2037  0.1450
 2822TIP3    H129881   3.371   2.652  11.605  0.2836 -0.0152 -0.7601
 2822TIP3    H229882   3.400   2.793  11.557  1.5389  0.5370  1.4491
 2823TIP3   OH229883   2.513   5.405  12.280  0.4264 -0.3393  0.2832
 2823TIP3    H129884   2.559   5.414  12.363 -0.0956  1.4462  0.4158
 2823TIP3    H229885   2.523   5.490  12.237 -1.2867 -0.4369 -0.4170
 2824TIP3   OH229886   5.823   3.445  16.482  0.5161  0.1124  0.2847
 2824TIP3    H129887   5.812   3.360  16.525 -0.6687 -0.3239 -0.8262
 2824TIP3    H229888   5.873   3.424  16.402  1.5446  0.7113  0.7504
 2825TIP3   OH229889   2.648   2.548   2.337 -0.0460  0.2532  0.2995
 2825TIP3    H129890   2.560   2.586   2.337 -0.5363 -0.6929  2.6937
 2825TIP3    H229891   2.639   2.466   2.288 -0.4360  0.3106  0.2736
 2826TIP3   OH229892   4.634   4.644   3.837  0.2833  0.0014 -0.0938
 2826TIP3    H129893   4.624   4.599   3.921  0.9858 -0.4734 -0.2554
 2826TIP3    H229894   4.563   4.609   3.783  0.0104  0.0860  0.2087
 2827TIP3   OH229895   2.631   4.555  11.150 -0.1642  0.1282 -0.0132
 2827TIP3    H129896   2.631   4.645  11.181 -2.0526 -0.3428  1.5485
 2827TIP3    H229897   2.557   4.550  11.089 -0.2426 -0.4038  0.1142
 2828TIP3   OH229898   3.144   2.162  15.305 -0.3119 -0.3752 -0.3584
 2828TIP3    H129899   3.173   2.098  15.370 -0.5567  0.3601  0.4884
 2828TIP3    H229900   3.076   2.212  15.349 -1.5588 -0.8394 -1.6883
 2829TIP3   OH229901   4.778   2.954   3.064 -0.0094 -0.2929 -0.3127
 2829TIP3    H129902   4.825   3.003   2.997 -0.4249 -1.1733 -1.2681
 2829TIP3    H229903   4.791   2.862   3.042  0.1333 -0.6214  1.0210
 2830TIP3   OH229904   4.398   4.735   3.294  0.0346 -0.0173  0.0355
 2830TIP3    H129905   4.355   4.776   3.219  0.7288  1.1680  0.2651
 2830TIP3    H229906   4.333   4.673   3.328 -1.0449  0.8735 -0.3433
 2831TIP3   OH229907   6.782   0.267  15.229  0.0196  0.4320  0.4531
 2831TIP3    H129908   6.825   0.335  15.177 -0.7460  0.5544 -0.0231
 2831TIP3    H229909   6.838   0.257  15.306  0.7987  0.7329 -0.0612
 2832TIP3   OH229910   4.136   1.703   2.687  0.6671  0.5143  0.0891
 2832TIP3    H129911   4.071   1.637   2.661  0.2602  0.8186  0.3137
 2832TIP3    H229912   4.167   1.675   2.773  0.4806  0.6212  0.1926
 2833TIP3   OH229913   1.685   5.206   0.783 -0.0603 -0.5047 -0.4251
 2833TIP3    H129914   1.727   5.144   0.842  0.1667  0.3816  0.3604
 2833TIP3    H229915   1.591   5.189   0.793 -0.0167 -0.4298  0.1039
 2834TIP3   OH229916   4.191   1.280  13.254 -0.2568  0.3155 -0.3514
 2834TIP3    H129917   4.183   1.368  13.293  0.6063 -0.0663  0.7492
 2834TIP3    H229918   4.142   1.286  13.172 -0.3666  1.7752 -0.2161
 2835TIP3   OH229919   4.150   5.672  14.115  0.0907  0.8719 -0.2451
 2835TIP3    H129920   4.090   5.720  14.173 -0.5510 -0.8063  0.5317
 2835TIP3    H229921   4.230   5.662  14.167 -0.9862 -1.9722  1.1112
 2836TIP3   OH229922   3.180   2.022   3.329 -0.8834  0.6826 -0.5720
 2836TIP3    H129923   3.255   2.011   3.388 -0.1943 -0.4653 -1.6186
 2836TIP3    H229924   3.104   2.000   3.382 -0.1881 -1.4806 -0.3719
 2837TIP3   OH229925   6.584   2.344  13.604  0.6136 -0.0272 -0.4586
 2837TIP3    H129926   6.628   2.380  13.681  0.8140 -0.3185 -0.4362
 2837TIP3    H229927   6.493   2.334  13.631  0.4458  0.9000 -0.6119
 2838TIP3   OH229928   1.799   5.990  16.388  0.3065 -0.3056  0.1703
 2838TIP3    H129929   1.806   6.060  16.452 -0.5755  0.7626 -0.8573
 2838TIP3    H229930   1.715   5.947  16.408  0.3592 -0.4163  0.1567
 2839TIP3   OH229931   5.029   0.611   0.378 -0.1530  0.6432  0.6849
 2839TIP3    H129932   4.940   0.611   0.414  0.3782  1.3351  2.0874
 2839TIP3    H229933   5.078   0.669   0.436  1.4578 -0.4848  0.5138
 2840TIP3   OH229934   4.639   1.565  15.751 -0.5223 -0.2039 -0.7375
 2840TIP3    H129935   4.609   1.479  15.781  0.3983 -0.9049 -1.7356
 2840TIP3    H229936   4.602   1.574  15.663  0.1972 -0.0211 -1.0278
 2841TIP3   OH229937   5.651   2.004  12.477 -0.0082 -0.5336  0.0124
 2841TIP3    H129938   5.744   2.012  12.453 -0.0913 -2.6083 -1.2410
 2841TIP3    H229939   5.609   2.078  12.434  0.8545 -0.3913 -0.6161
 2842TIP3   OH229940   4.312   3.417  14.022 -0.1482 -0.3960  0.1004
 2842TIP3    H129941   4.346   3.416  13.932  0.1843  0.6223  0.1980
 2842TIP3    H229942   4.306   3.325  14.047 -0.5489 -0.7052 -1.0786
 2843TIP3   OH229943   5.548   4.572  14.773 -0.3590 -0.2632  0.3082
 2843TIP3    H129944   5.622   4.537  14.724 -0.1184  1.1753 -0.4216
 2843TIP3    H229945   5.510   4.497  14.818  0.5405 -1.2980 -0.6268
 2844TIP3   OH229946   1.196   2.875   2.393 -0.5407  0.1455 -0.6773
 2844TIP3    H129947   1.173   2.964   2.365 -0.2975  0.3687 -0.1997
 2844TIP3    H229948   1.122   2.848   2.447 -1.0507 -0.3196 -1.5980
 2845TIP3   OH229949   6.226   6.412   1.255  0.4502  0.0187  0.1407
 2845TIP3    H129950   6.207   6.486   1.313  1.5493  0.3551  0.1007
 2845TIP3    H229951   6.275   6.451   1.183 -0.9408 -0.3968 -1.0613
 2846TIP3   OH229952   4.329   2.405  15.155 -0.0840  0.6278  0.1720
 2846TIP3    H129953   4.420   2.375  15.153  0.0948  1.0691  1.1748
 2846TIP3    H229954   4.290   2.369  15.075  0.2850 -1.7363  0.9606
 2847TIP3   OH229955   2.305   2.220  11.029  0.0455 -0.4551 -0.3755
 2847TIP3    H129956   2.307   2.303  11.077  0.5945 -0.0590 -1.0654
 2847TIP3    H229957   2.365   2.233  10.956  2.1978 -2.3327  0.9245
 2848TIP3   OH229958   3.583   5.268   0.050 -0.2066  0.3126  0.0725
 2848TIP3    H129959   3.616   5.202  -0.010  2.6970  0.6186  1.1621
 2848TIP3    H229960   3.528   5.219   0.112  1.5650 -1.0985  0.6309
 2849TIP3   OH229961   1.478   4.031   1.574  0.1806 -0.0100  0.7380
 2849TIP3    H129962   1.526   3.949   1.584  0.3212  0.0687  0.7215
 2849TIP3    H229963   1.435   4.045   1.658 -0.8490 -0.7272  0.3435
 2850TIP3   OH229964   6.672   4.561   5.177  0.2182 -0.6790 -0.1251
 2850TIP3    H129965   6.766   4.556   5.157 -0.0737 -2.4514 -1.3620
 2850TIP3    H229966   6.664   4.632   5.240  2.5030 -1.0321  0.6480
 2851TIP3   OH229967   2.420   1.115  15.319  0.6378 -0.0376  0.2327
 2851TIP3    H129968   2.483   1.138  15.251 -0.1666 -0.3880 -0.6512
 2851TIP3    H229969   2.353   1.184  15.315  0.2415 -0.4155  0.2106
 2852TIP3   OH229970   2.583   2.918  11.457 -0.7147 -0.2107  0.3879
 2852TIP3    H129971   2.542   2.900  11.373  0.2632 -0.1321 -0.1177
 2852TIP3    H229972   2.664   2.966  11.435 -1.5132  1.7633  1.4822
 2853TIP3   OH229973   5.517   0.757   0.745 -0.3587 -0.2817  0.3424
 2853TIP3    H129974   5.497   0.769   0.838 -3.0450 -0.7533 -0.1108
 2853TIP3    H229975   5.568   0.835   0.722 -0.7683  0.4906  1.8869
 2854TIP3   OH229976   0.351   0.693   5.357  0.0029  0.2774 -0.1396
 2854TIP3    H129977   0.295   0.771   5.352  1.8546  1.7077  0.0890
 2854TIP3    H229978   0.384   0.693   5.446  0.0610 -0.7720 -0.1478
 2855TIP3   OH229979   2.705   4.889  14.660  0.3407  0.5399  0.3043
 2855TIP3    H129980   2.758   4.953  14.612  1.9686  1.1325  2.6447
 2855TIP3    H229981   2.622   4.934  14.677  1.0590  1.6680  0.9727
 2856TIP3   OH229982   0.163   4.536   0.197  0.2956 -0.2534 -0.0424
 2856TIP3    H129983   0.127   4.601   0.258  0.4964 -0.6813  0.5401
 2856TIP3    H229984   0.255   4.560   0.189 -0.0374  0.7027 -1.3555
 2857TIP3   OH229985   4.341   3.815   5.141 -0.0973  0.4501  0.3775
 2857TIP3    H129986   4.400   3.747   5.173  0.9002  0.2317 -1.7925
 2857TIP3    H229987   4.282   3.770   5.081  0.8301  1.4926 -1.4051
 2858TIP3   OH229988   1.063   5.601   2.756  0.2657  0.5605  0.2448
 2858TIP3    H129989   1.003   5.649   2.812  0.8467  0.6601  0.7869
 2858TIP3    H229990   1.124   5.558   2.816 -0.2447 -0.8719 -0.2170
 2859TIP3   OH229991   5.645   0.401  10.599 -0.1791  0.5114 -0.2454
 2859TIP3    H129992   5.566   0.369  10.556 -0.3433  0.9416 -0.2740
 2859TIP3    H229993   5.675   0.473  10.543 -0.7373  1.4856  0.6592
 2860TIP3   OH229994   5.117   0.770  17.102 -0.1499 -0.0973 -0.3863
 2860TIP3    H129995   5.171   0.799  17.175 -1.7528 -0.2014  0.9100
 2860TIP3    H229996   5.034   0.817  17.113 -0.8908 -1.1071 -1.3724
 2861TIP3   OH229997   0.329   5.240   0.644 -0.6450 -0.4160 -0.0004
 2861TIP3    H129998   0.297   5.198   0.723  0.4468  0.8433  1.1691
 2861TIP3    H229999   0.422   5.217   0.640 -0.7135 -0.5672 -0.9943
 2862TIP3   OH230000   4.107   5.472   6.124  0.6883 -0.1891 -0.1213
 2862TIP3    H130001   4.108   5.399   6.185 -0.1210  0.4399  0.6806
 2862TIP3    H230002   4.199   5.495   6.112  0.8540 -0.2007  1.0294
 2863TIP3   OH230003   0.769   4.895   0.544  0.4192  0.4439  0.5265
 2863TIP3    H130004   0.817   4.813   0.552  0.6883  0.6693  1.3825
 2863TIP3    H230005   0.756   4.924   0.635 -0.3293  0.9680  0.2634
 2864TIP3   OH230006   3.052   5.240   6.161  0.2889  0.2551  0.0879
 2864TIP3    H130007   3.123   5.294   6.197  0.1469  0.1767  0.4852
 2864TIP3    H230008   3.041   5.273   6.072  1.3994 -0.2932 -0.2711
 2865TIP3   OH230009   1.987   5.624  11.659  0.2629 -0.7759 -0.1688
 2865TIP3    H130010   1.958   5.660  11.575  2.6595 -1.1850 -1.2509
 2865TIP3    H230011   1.964   5.692  11.722 -0.7699 -0.0485 -1.2621
 2866TIP3   OH230012   3.454   3.015   0.929  0.0789 -0.5543  0.0749
 2866TIP3    H130013   3.455   2.937   0.985 -2.1311 -1.6584 -1.2931
 2866TIP3    H230014   3.458   2.980   0.840  0.2148  0.9817 -0.5494
 2867TIP3   OH230015   4.987   0.867   1.982 -0.3542  0.3585 -0.3986
 2867TIP3    H130016   4.968   0.945   2.033 -2.1800 -1.4786  1.9610
 2867TIP3    H230017   4.940   0.880   1.900 -2.3042  0.9481  0.7554
 2868TIP3   OH230018   4.999   5.752  13.137  0.0509 -0.2516  0.7443
 2868TIP3    H130019   5.030   5.674  13.182  0.0212 -0.5199  0.3050
 2868TIP3    H230020   5.074   5.811  13.136  0.9156 -1.2867 -1.2233
 2869TIP3   OH230021   3.894   5.256   4.454 -0.7289  0.0461  0.5476
 2869TIP3    H130022   3.848   5.336   4.427 -0.9300 -0.6170 -1.2212
 2869TIP3    H230023   3.827   5.188   4.450  0.1746 -0.8008 -1.3804
 2870TIP3   OH230024   3.436   3.980  14.047  0.4471 -0.6749  0.1438
 2870TIP3    H130025   3.529   3.988  14.024  0.2526 -0.9383 -0.7652
 2870TIP3    H230026   3.408   3.899  14.006 -0.1046 -0.7721  0.7116
 2871TIP3   OH230027   5.675   4.329   3.585  0.0415 -0.0004 -0.2919
 2871TIP3    H130028   5.746   4.266   3.599 -0.0118  0.6477  4.6890
 2871TIP3    H230029   5.598   4.275   3.566  0.5265 -1.3210  1.2728
 2872TIP3   OH230030   1.189   5.292   0.360 -0.6755 -0.1133 -0.9107
 2872TIP3    H130031   1.278   5.294   0.396 -0.8045 -0.1896 -0.5800
 2872TIP3    H230032   1.156   5.381   0.372 -1.8253 -0.8136  2.0346
 2873TIP3   OH230033   1.353   2.003  15.026 -0.2399  0.1041 -0.2035
 2873TIP3    H130034   1.387   1.929  15.075  1.7921 -0.3744 -2.1829
 2873TIP3    H230035   1.288   1.964  14.966 -2.4813  0.6424  1.7065
 2874TIP3   OH230036   2.201   5.314  16.141 -0.4165 -0.5389 -0.1115
 2874TIP3    H130037   2.259   5.264  16.199 -0.9944 -1.3492 -0.2146
 2874TIP3    H230038   2.232   5.293  16.053 -1.6158 -1.9771 -0.2282
 2875TIP3   OH230039   0.550   6.570   3.043 -0.7433  0.2302  0.1916
 2875TIP3    H130040   0.470   6.618   3.022  0.3642  1.8426 -0.5843
 2875TIP3    H230041   0.526   6.514   3.117 -2.8186 -0.0639 -0.6477
 2876TIP3   OH230042   3.194   5.900   2.929 -0.1982  0.3054 -0.3030
 2876TIP3    H130043   3.168   5.982   2.887  0.9724  0.3548 -0.9683
 2876TIP3    H230044   3.202   5.922   3.022  0.1800  0.9743 -0.4847
 2877TIP3   OH230045   6.642   5.598   1.941 -0.0636  0.0677  0.5251
 2877TIP3    H130046   6.645   5.641   1.855  1.5536  0.8692  0.9301
 2877TIP3    H230047   6.591   5.519   1.927  2.4604 -1.3124 -1.9126
 2878TIP3   OH230048   5.125   4.172   0.517  0.3024 -0.2696 -0.5237
 2878TIP3    H130049   5.190   4.203   0.580  0.2786 -1.8514  0.3485
 2878TIP3    H230050   5.047   4.156   0.570  0.7691 -3.2496 -0.5103
 2879TIP3   OH230051   1.726   5.105  14.210 -0.4096 -0.3431  0.1101
 2879TIP3    H130052   1.717   5.201  14.208  2.2626 -0.0181 -0.4496
 2879TIP3    H230053   1.662   5.076  14.275 -2.4503  1.6265 -0.8565
 2880TIP3   OH230054   0.207   0.875  12.535 -0.2247 -0.2938 -0.5146
 2880TIP3    H130055   0.224   0.917  12.451 -2.3572  1.2160 -0.2829
 2880TIP3    H230056   0.243   0.936  12.600 -3.2432  1.2918 -0.1792
 2881TIP3   OH230057   2.494   4.579  15.490 -0.5933 -0.0166 -0.5116
 2881TIP3    H130058   2.502   4.662  15.539  1.7785  1.4686 -3.1117
 2881TIP3    H230059   2.552   4.519  15.537  0.8769  1.0772 -0.8451
 2882TIP3   OH230060   5.071   2.633  14.909 -0.6759  0.4149  0.0283
 2882TIP3    H130061   5.144   2.664  14.962 -0.0571  0.8370 -1.0260
 2882TIP3    H230062   5.012   2.590  14.971 -0.0591  1.0216  1.0597
 2883TIP3   OH230063   0.934   2.738  14.380 -0.1497  0.2879 -0.2181
 2883TIP3    H130064   0.867   2.797  14.414  0.2852  0.1835  0.8835
 2883TIP3    H230065   0.974   2.701  14.459  0.9018  0.0159 -0.8677
 2884TIP3   OH230066   3.499   0.765   5.384 -0.2987 -0.0400  0.0969
 2884TIP3    H130067   3.509   0.677   5.420 -1.3521 -1.3498 -2.5536
 2884TIP3    H230068   3.416   0.797   5.420 -0.2284 -0.4006  0.5755
 2885TIP3   OH230069   6.621   1.972   3.609  0.3226 -0.2894  0.4856
 2885TIP3    H130070   6.681   1.988   3.682  1.0212 -0.7581  0.0329
 2885TIP3    H230071   6.644   1.884   3.579 -0.4878 -0.4075  0.1946
 2886TIP3   OH230072   3.837   4.360  16.193 -0.2520 -0.2953 -0.0804
 2886TIP3    H130073   3.931   4.355  16.172  0.2294 -0.8812  1.9598
 2886TIP3    H230074   3.815   4.271  16.221 -0.9386  0.2468  1.1872
 2887TIP3   OH230075   0.888   3.674  14.994  0.3508 -0.3625  0.3271
 2887TIP3    H130076   0.810   3.620  14.988  0.5536 -0.9106  2.1283
 2887TIP3    H230077   0.856   3.760  15.023  0.2113  0.0456 -0.9715
 2888TIP3   OH230078   5.705   3.407   5.818 -0.0300  0.3583 -0.3634
 2888TIP3    H130079   5.747   3.484   5.855  0.5598  0.0166 -0.3007
 2888TIP3    H230080   5.692   3.429   5.726  1.5108 -0.0086 -0.7018
 2889TIP3   OH230081   1.421   0.326  14.826 -0.2437  0.0119  0.2086
 2889TIP3    H130082   1.512   0.343  14.800 -1.0611  1.6413 -1.8871
 2889TIP3    H230083   1.424   0.317  14.921  2.0050  0.7439  0.2599
 2890TIP3   OH230084   6.340   2.200   4.495 -0.1476 -0.4405 -0.5177
 2890TIP3    H130085   6.291   2.280   4.481  0.0662  0.0092  1.0609
 2890TIP3    H230086   6.415   2.206   4.437 -0.1681  0.4696 -0.4508
 2891TIP3   OH230087   0.321   4.119  10.643 -0.8807 -0.3107  0.2599
 2891TIP3    H130088   0.275   4.199  10.619  2.2353  1.0669 -1.8859
 2891TIP3    H230089   0.351   4.134  10.733  0.8085  1.6670 -0.5476
 2892TIP3   OH230090   5.623   2.554  16.888 -0.2750 -0.3351 -0.2215
 2892TIP3    H130091   5.681   2.621  16.852 -0.7160 -1.1386 -2.6002
 2892TIP3    H230092   5.583   2.596  16.964 -1.3587  2.5650 -2.2019
 2893TIP3   OH230093   4.258   2.227  12.427  0.9977 -0.5408 -0.0100
 2893TIP3    H130094   4.290   2.172  12.498  1.7865 -1.8425 -1.3185
 2893TIP3    H230095   4.288   2.184  12.347 -2.1563 -0.6349 -1.2862
 2894TIP3   OH230096   5.592   0.642   1.286  0.0054 -0.6721 -0.0358
 2894TIP3    H130097   5.501   0.625   1.261 -0.7713  2.0991  0.6341
 2894TIP3    H230098   5.587   0.697   1.364  2.2410 -0.0101 -0.2652
 2895TIP3   OH230099   0.782   0.079  16.966  0.1815  0.9814 -0.5258
 2895TIP3    H130100   0.689   0.074  16.943  0.7472 -1.1488 -2.8340
 2895TIP3    H230101   0.784   0.072  17.062 -2.0236  1.3515 -0.4069
 2896TIP3   OH230102   0.521   1.625   0.943  0.4348 -0.5742  0.7804
 2896TIP3    H130103   0.553   1.540   0.973  0.6709 -0.0258  2.1466
 2896TIP3    H230104   0.516   1.679   1.022 -1.5428  0.1121  0.2735
 2897TIP3   OH230105   4.160   2.875   4.714  0.0415  0.0007 -0.4169
 2897TIP3    H130106   4.216   2.933   4.662  0.4419 -0.3049 -0.3257
 2897TIP3    H230107   4.154   2.917   4.799 -1.0713  0.7987 -0.8565
 2898TIP3   OH230108   6.412   3.016   3.343 -0.0919  0.2012  0.3117
 2898TIP3    H130109   6.507   3.004   3.355  0.0661  1.7071  0.8252
 2898TIP3    H230110   6.374   2.987   3.427  0.1011  1.3558  0.8122
 2899TIP3   OH230111   4.643   4.986   3.441 -0.1862  0.2925  0.6955
 2899TIP3    H130112   4.647   4.917   3.376 -1.9646 -0.4801  1.3321
 2899TIP3    H230113   4.617   5.064   3.392  0.9869  0.3292  0.1113
 2900TIP3   OH230114   6.649   3.299   4.691 -0.2671  0.4589  0.4544
 2900TIP3    H130115   6.581   3.365   4.676  1.4853  2.5470  1.3455
 2900TIP3    H230116   6.710   3.310   4.619  0.2146  0.0099  0.7872
 2901TIP3   OH230117   5.096   4.752   2.985  0.3386  0.1112 -0.0370
 2901TIP3    H130118   5.068   4.782   3.072  1.2239 -0.7829  0.5672
 2901TIP3    H230119   5.115   4.833   2.938  2.2806  0.5913  1.4283
 2902TIP3   OH230120   3.454   4.230  14.495 -0.2786  0.3439  0.1631
 2902TIP3    H130121   3.410   4.177  14.562 -1.7236  0.4914 -0.6111
 2902TIP3    H230122   3.470   4.314  14.537  0.9005 -0.2844  1.0168
 2903TIP3   OH230123   2.699   4.761   2.964 -0.3032 -0.3898 -0.3487
 2903TIP3    H130124   2.779   4.711   2.949  1.4757  2.0101  0.3997
 2903TIP3    H230125   2.681   4.802   2.879  1.2233  1.5800  0.1885
 2904TIP3   OH230126   1.485   1.844  15.251  0.3038 -0.3978 -0.5627
 2904TIP3    H130127   1.580   1.848  15.243  0.4314 -0.0008  0.8000
 2904TIP3    H230128   1.467   1.756  15.285  0.3157 -0.0530  0.3797
 2905TIP3   OH230129   2.395   6.633  12.473  0.2730 -0.0779 -0.0210
 2905TIP3    H130130   2.480   6.611  12.510  0.3327  0.3988  0.1425
 2905TIP3    H230131   2.364   6.552  12.433  1.5926  0.1637 -1.6347
 2906TIP3   OH230132   5.212   2.674  14.162  0.4131 -0.2301 -0.3647
 2906TIP3    H130133   5.166   2.658  14.245  0.6783 -1.7639 -0.4976
 2906TIP3    H230134   5.149   2.648  14.095  1.2722 -1.8927 -0.5587
 2907TIP3   OH230135   2.260   5.851  12.335 -0.3650 -0.0160  0.3003
 2907TIP3    H130136   2.207   5.930  12.339 -0.2144  0.2695 -1.9499
 2907TIP3    H230137   2.244   5.807  12.418 -1.8100  1.5011  0.8850
 2908TIP3   OH230138   3.450   0.850   2.016  0.3282 -0.0721 -0.2857
 2908TIP3    H130139   3.487   0.789   2.080  0.0870 -0.6706 -0.7065
 2908TIP3    H230140   3.417   0.794   1.946  1.0526  0.5831 -1.1812
 2909TIP3   OH230141   2.346   5.805  10.924 -0.1566  0.0082 -0.2371
 2909TIP3    H130142   2.304   5.879  10.968  0.7604 -0.1433  0.9322
 2909TIP3    H230143   2.278   5.769  10.867 -1.0575  0.8503  0.2773
 2910TIP3   OH230144   2.364   2.715   0.469  0.2908 -0.0290 -0.3313
 2910TIP3    H130145   2.448   2.755   0.445  0.3030 -1.0038 -2.0587
 2910TIP3    H230146   2.304   2.741   0.399 -0.6522  0.0195  0.4853
 2911TIP3   OH230147   6.535   2.457   0.179  0.2250 -0.3864  0.7963
 2911TIP3    H130148   6.490   2.407   0.110  0.5308  1.4057 -0.7777
 2911TIP3    H230149   6.617   2.410   0.192 -0.1177 -1.1230  0.4248
 2912TIP3   OH230150   5.764   6.090   4.211 -0.3658 -0.1425  0.5285
 2912TIP3    H130151   5.713   6.165   4.184  0.9342  0.7631  0.4788
 2912TIP3    H230152   5.855   6.122   4.213 -0.0562 -0.9419  3.1199
 2913TIP3   OH230153   2.158   2.973  15.653 -0.9173 -0.0631  0.2842
 2913TIP3    H130154   2.184   3.052  15.606 -1.0255  0.5410  1.2287
 2913TIP3    H230155   2.062   2.975  15.651 -0.9851 -1.5118 -1.8871
 2914TIP3   OH230156   2.093   1.592   3.366  0.1456 -0.3153 -0.5429
 2914TIP3    H130157   2.149   1.535   3.419  0.5635  1.0076  0.4731
 2914TIP3    H230158   2.014   1.602   3.417  0.9782  1.8521  0.4035
 2915TIP3   OH230159   6.646   3.835   2.494 -0.3593  0.0642 -0.2696
 2915TIP3    H130160   6.675   3.806   2.407  0.7344 -1.5969  0.5928
 2915TIP3    H230161   6.614   3.755   2.537  1.1148  0.3994  1.5906
 2916TIP3   OH230162   0.512   3.697  14.647 -0.0302  0.9374 -0.4909
 2916TIP3    H130163   0.493   3.756  14.574 -0.1600  0.1793 -1.0823
 2916TIP3    H230164   0.446   3.719  14.713 -0.7645  0.7256 -1.1389
 2917TIP3   OH230165   2.592   0.299  11.768 -0.1675  0.2610 -0.4453
 2917TIP3    H130166   2.600   0.333  11.857  2.2251 -1.0177 -0.0736
 2917TIP3    H230167   2.499   0.302  11.749 -0.9999 -1.0204  2.7923
 2918TIP3   OH230168   6.195   0.512   3.417  0.1654  0.3441  0.4755
 2918TIP3    H130169   6.201   0.608   3.408  0.3783  0.6714  3.2816
 2918TIP3    H230170   6.144   0.499   3.497  1.4677 -1.8594  1.0256
 2919TIP3   OH230171   1.072   5.453  11.905 -0.1431 -0.0253  0.1134
 2919TIP3    H130172   1.132   5.387  11.940 -1.9327 -1.5228  0.5527
 2919TIP3    H230173   1.125   5.532  11.896  1.6910 -1.0757  1.1202
 2920TIP3   OH230174   1.769   2.568   0.856  0.6802 -0.3866  0.0928
 2920TIP3    H130175   1.863   2.561   0.869  0.5605 -1.3601  0.5742
 2920TIP3    H230176   1.733   2.563   0.945  0.2350  1.5410  0.0709
 2921TIP3   OH230177   2.760   2.605   1.190 -0.5169  0.7727 -0.0904
 2921TIP3    H130178   2.740   2.536   1.254  0.6027  1.0838  0.6149
 2921TIP3    H230179   2.786   2.558   1.111 -2.1140  0.3799 -0.4232
 2922TIP3   OH230180   1.947   1.097   0.361  0.1443  0.1856 -0.1169
 2922TIP3    H130181   2.019   1.043   0.393 -1.2585 -2.6153 -1.3451
 2922TIP3    H230182   1.870   1.064   0.408 -0.9975  0.0290 -1.9859
 2923TIP3   OH230183   6.168   3.763   1.006  0.3216 -0.3870 -0.1998
 2923TIP3    H130184   6.099   3.725   0.952  0.3912 -0.2361 -0.3920
 2923TIP3    H230185   6.121   3.808   1.076  0.1918  0.7319 -0.9930
 2924TIP3   OH230186   0.242   3.602  12.026  0.5375  0.2765 -0.0005
 2924TIP3    H130187   0.300   3.677  12.038  1.1965 -0.4415  1.6199
 2924TIP3    H230188   0.175   3.612  12.092  1.4451 -1.2571  1.2242
 2925TIP3   OH230189   5.191   3.463   4.637  0.1056 -0.4644 -0.4852
 2925TIP3    H130190   5.169   3.374   4.610 -0.7818 -0.4835  0.2521
 2925TIP3    H230191   5.114   3.493   4.685 -0.0634  1.1011 -1.6387
 2926TIP3   OH230192   4.078   0.473  10.381  0.4857  0.7471  0.7028
 2926TIP3    H130193   3.990   0.476  10.343  0.1506  0.1842  1.4131
 2926TIP3    H230194   4.129   0.531  10.325  0.1165 -0.3728 -0.8926
 2927TIP3   OH230195   0.713   0.644  15.943 -0.8079 -0.6706 -0.4727
 2927TIP3    H130196   0.798   0.600  15.950 -0.3893  0.3329  1.2574
 2927TIP3    H230197   0.711   0.679  15.854  0.9789 -0.0264 -0.2981
 2928TIP3   OH230198   4.544   3.471  11.343  0.0398 -0.5900 -0.0594
 2928TIP3    H130199   4.624   3.421  11.323  0.8856  0.8231 -0.3467
 2928TIP3    H230200   4.539   3.472  11.438  1.1092  0.4021  0.0059
 2929TIP3   OH230201   5.678   2.534   0.317  0.2978  0.2722 -0.6952
 2929TIP3    H130202   5.756   2.559   0.268 -0.2043  0.3460 -1.4670
 2929TIP3    H230203   5.701   2.451   0.359  0.9948  0.5996 -0.4255
 2930TIP3   OH230204   0.210   6.528  15.985 -0.3755  0.8734 -0.3415
 2930TIP3    H130205   0.180   6.464  15.921 -1.6011  0.5117  0.5521
 2930TIP3    H230206   0.131   6.578  16.008  0.1683  1.4183  0.3956
 2931TIP3   OH230207   1.454   2.617   4.720  0.2685  0.2029 -0.3232
 2931TIP3    H130208   1.548   2.603   4.713  0.2364  0.5829 -1.9077
 2931TIP3    H230209   1.415   2.543   4.674 -0.2221 -0.0020  0.4042
 2932TIP3   OH230210   2.732   2.740  16.620  0.2231  0.0351 -0.5387
 2932TIP3    H130211   2.738   2.645  16.610 -0.9698 -0.4014  2.1076
 2932TIP3    H230212   2.804   2.762  16.680  0.1796  0.7475 -0.7352
 2933TIP3   OH230213   1.918   4.414   5.131 -0.1526 -0.3302  0.5763
 2933TIP3    H130214   2.004   4.378   5.152  1.0116  2.5312  1.2760
 2933TIP3    H230215   1.936   4.502   5.099 -2.8250  0.2587  0.4261
 2934TIP3   OH230216   5.323   3.228   5.495 -0.0654  0.3543  0.3405
 2934TIP3    H130217   5.355   3.161   5.434 -0.1553  0.5450  0.0836
 2934TIP3    H230218   5.305   3.304   5.440  0.0948  0.6122  0.6414
 2935TIP3   OH230219   2.071   1.057  15.626 -0.7082  0.4275  0.0730
 2935TIP3    H130220   2.032   1.145  15.622  0.3027  0.8477 -0.8444
 2935TIP3    H230221   2.164   1.073  15.644  0.0342 -0.2788 -2.6747
 2936TIP3   OH230222   2.419   3.508   2.148 -0.3994 -0.3661  0.3042
 2936TIP3    H130223   2.350   3.489   2.211 -0.1938 -0.6372  0.4530
 2936TIP3    H230224   2.414   3.436   2.085  0.4487 -0.9853  0.9240
 2937TIP3   OH230225   1.851   1.126  13.189  0.3231 -0.6263  0.0908
 2937TIP3    H130226   1.856   1.204  13.134  0.4463 -1.1904 -0.7073
 2937TIP3    H230227   1.791   1.150  13.260  2.4217  1.1355  1.3967
 2938TIP3   OH230228   4.982   0.232   3.198 -0.0814 -0.1935  0.7579
 2938TIP3    H130229   4.973   0.139   3.177 -2.1359  0.1771 -0.1751
 2938TIP3    H230230   4.979   0.234   3.294 -0.4236 -1.0592  0.7819
 2939TIP3   OH230231   4.034   0.247   5.599  0.4761  0.6557  0.0424
 2939TIP3    H130232   4.088   0.296   5.537  2.0551 -0.4044  0.5044
 2939TIP3    H230233   4.047   0.291   5.683  0.6121  0.4321  0.1420
 2940TIP3   OH230234   1.414   0.346   5.970  0.1221  0.3074 -0.6294
 2940TIP3    H130235   1.373   0.431   5.984 -1.3348  0.0322 -2.6833
 2940TIP3    H230236   1.353   0.284   6.009  1.4189  0.1653  1.3032
 2941TIP3   OH230237   2.017   0.750   5.956 -0.0897 -0.3016  0.3803
 2941TIP3    H130238   1.971   0.827   5.991 -0.0546 -0.4857  0.8301
 2941TIP3    H230239   2.091   0.738   6.015 -0.5347 -1.1530  0.7826
 2942TIP3   OH230240   4.623   0.613  11.371  0.4761  0.4240 -0.2210
 2942TIP3    H130241   4.666   0.688  11.411  0.1729  1.9558 -2.6148
 2942TIP3    H230242   4.536   0.644  11.348 -0.8223 -1.6450  1.5135
 2943TIP3   OH230243   4.271   2.226   4.338  0.0164 -0.1369  0.0123
 2943TIP3    H130244   4.249   2.310   4.297  0.3217 -0.2796 -0.4438
 2943TIP3    H230245   4.233   2.160   4.280 -0.4420 -0.3170  0.5014
 2944TIP3   OH230246   4.825   1.696   3.076  1.2289 -0.1587 -0.3482
 2944TIP3    H130247   4.752   1.756   3.059  0.8298 -0.7364 -0.7226
 2944TIP3    H230248   4.881   1.706   2.999  1.7543  0.5826  0.1271
 2945TIP3   OH230249   0.713   6.702  11.570  0.0826  0.0819 -0.3463
 2945TIP3    H130250   0.725   6.771  11.636  1.1395 -0.2693 -0.1378
 2945TIP3    H230251   0.784   6.640  11.589 -0.9407 -1.1342 -0.4381
 2946TIP3   OH230252   0.426   6.108  16.304  0.1495  0.4319 -0.4582
 2946TIP3    H130253   0.483   6.132  16.231 -0.6798  0.0253 -1.2702
 2946TIP3    H230254   0.417   6.189  16.355  0.6193  0.7671 -0.8944
 2947TIP3   OH230255   4.837   2.772  14.275 -0.1015  0.0173 -0.2827
 2947TIP3    H130256   4.892   2.801  14.202 -0.4467  2.4779  0.3582
 2947TIP3    H230257   4.892   2.710  14.323  1.5520  1.1939 -0.5575
 2948TIP3   OH230258   0.469   5.394  14.332  0.0716 -0.7208  0.3091
 2948TIP3    H130259   0.461   5.482  14.294 -2.5625 -0.9996  0.0470
 2948TIP3    H230260   0.428   5.336  14.269  0.2830 -1.9338  1.2420
 2949TIP3   OH230261   4.970   0.108   5.472  0.5477 -0.2764 -0.4244
 2949TIP3    H130262   4.958   0.036   5.411  0.5133  0.6262 -1.5104
 2949TIP3    H230263   4.889   0.109   5.524  0.7066 -1.2350 -0.1310
 2950TIP3   OH230264   1.800   4.088  11.570 -0.0379  0.1637  0.3000
 2950TIP3    H130265   1.869   4.099  11.505 -0.4459 -2.1531 -0.5897
 2950TIP3    H230266   1.763   4.176  11.580  1.8596  1.0970 -0.5111
 2951TIP3   OH230267   1.138   5.837  13.650 -0.0058 -0.2261  0.0394
 2951TIP3    H130268   1.174   5.766  13.597  1.4841  0.3988  0.1456
 2951TIP3    H230269   1.072   5.796  13.705  0.2364 -1.3631 -0.4907
 2952TIP3   OH230270   0.103   3.076  15.645  0.1921 -0.3494 -0.1978
 2952TIP3    H130271   0.049   3.131  15.703 -1.5047 -3.1336  1.0424
 2952TIP3    H230272   0.193   3.101  15.666 -0.4589  0.8193  1.4765
 2953TIP3   OH230273   0.336   3.119   4.406 -0.2854 -0.2445 -0.0595
 2953TIP3    H130274   0.348   3.089   4.496 -2.8668 -0.6847  0.1983
 2953TIP3    H230275   0.316   3.212   4.413  0.2686 -0.0987 -0.2773
 2954TIP3   OH230276   4.384   5.026  10.221  0.5961  0.0743 -0.0793
 2954TIP3    H130277   4.363   5.043  10.312 -2.1888 -2.6132 -0.1002
 2954TIP3    H230278   4.476   5.001  10.222  0.7156  0.4380  1.9074
 2955TIP3   OH230279   4.173   6.378   4.561  0.2609  0.5231 -0.2401
 2955TIP3    H130280   4.114   6.343   4.495  0.9314 -1.7986  0.3109
 2955TIP3    H230281   4.122   6.446   4.605 -0.5928  1.3081 -2.3292
 2956TIP3   OH230282   6.692   2.105  14.184 -0.3838  0.0481  0.6918
 2956TIP3    H130283   6.763   2.065  14.234  0.0950 -0.4946 -0.3745
 2956TIP3    H230284   6.612   2.065  14.218 -0.0254 -0.6925  0.6801
 2957TIP3   OH230285   3.424   2.618  13.888 -0.5010 -0.1794  0.5389
 2957TIP3    H130286   3.371   2.670  13.948  0.5896  0.3725  1.0582
 2957TIP3    H230287   3.458   2.546  13.941  0.5766  0.3838  0.6412
 2958TIP3   OH230288   4.726   1.531  16.980 -0.4880 -0.4052  0.0657
 2958TIP3    H130289   4.722   1.627  16.976  0.0526 -0.2897  1.4856
 2958TIP3    H230290   4.680   1.502  16.902 -2.2183  0.9996  0.4952
 2959TIP3   OH230291   0.106   3.740   0.739  0.3650  0.2183  0.1586
 2959TIP3    H130292   0.073   3.655   0.767 -1.5801  0.5083 -1.1170
 2959TIP3    H230293   0.089   3.744   0.645  0.5692  1.9395  0.1504
 2960TIP3   OH230294   4.452   5.206  14.802 -0.2277  0.0092  0.5409
 2960TIP3    H130295   4.489   5.121  14.828 -0.8877 -0.0496  1.3276
 2960TIP3    H230296   4.375   5.183  14.750  1.6876  0.1033 -2.5809
 2961TIP3   OH230297   5.429   2.011  14.866  0.2157  0.1654 -0.4955
 2961TIP3    H130298   5.446   1.962  14.947  2.9610  0.1410 -0.9869
 2961TIP3    H230299   5.357   1.964  14.824 -0.7268 -0.3042  1.5118
 2962TIP3   OH230300   0.250   1.996   5.765 -0.7854 -0.0765  0.2246
 2962TIP3    H130301   0.187   2.025   5.831 -0.3932 -0.7411  0.9095
 2962TIP3    H230302   0.200   1.938   5.708 -0.9972  0.0756  0.2540
 2963TIP3   OH230303   2.107   3.683   5.574 -0.3650 -0.1456 -0.1145
 2963TIP3    H130304   2.178   3.698   5.635  0.7634  0.4966 -1.5165
 2963TIP3    H230305   2.128   3.600   5.532 -0.1847  0.2577 -0.8448
 2964TIP3   OH230306   1.351   0.428  12.614 -0.0655  0.3662 -0.1522
 2964TIP3    H130307   1.429   0.374  12.632 -0.1303 -0.6553 -2.5838
 2964TIP3    H230308   1.281   0.364  12.603 -1.1564  1.2502  1.3401
 2965TIP3   OH230309   2.795   0.970  15.885 -0.1170  0.2485  0.1957
 2965TIP3    H130310   2.780   0.887  15.931  0.2296  0.5868  0.9361
 2965TIP3    H230311   2.852   0.947  15.812 -0.7837 -0.3206 -0.1635
 2966TIP3   OH230312   1.467   4.891   1.542  0.6840 -0.0223 -0.1800
 2966TIP3    H130313   1.402   4.901   1.473  0.2891 -1.0147  0.0256
 2966TIP3    H230314   1.416   4.897   1.623  1.4180  3.3103  0.1588
 2967TIP3   OH230315   4.625   0.901   4.776 -0.7295  0.0969  0.7509
 2967TIP3    H130316   4.697   0.838   4.777 -0.2202  0.6707  0.4769
 2967TIP3    H230317   4.569   0.872   4.703  0.8460  1.4335 -1.0794
 2968TIP3   OH230318   3.835   1.226   3.821  0.2535 -0.1448  0.1011
 2968TIP3    H130319   3.894   1.300   3.833  1.3998 -1.0714  0.3263
 2968TIP3    H230320   3.796   1.212   3.907 -0.1205  0.3091  0.0115
 2969TIP3   OH230321   2.426   3.690  11.373  0.0005 -0.7052  0.0008
 2969TIP3    H130322   2.362   3.711  11.441  1.9678 -0.0246  1.7346
 2969TIP3    H230323   2.377   3.637  11.310 -2.1243 -0.6287  1.4799
 2970TIP3   OH230324   0.744   4.595   2.315  0.0811 -0.2370 -0.7753
 2970TIP3    H130325   0.735   4.505   2.345 -0.0802 -0.1721 -0.6317
 2970TIP3    H230326   0.819   4.630   2.364  0.0009 -0.2210 -0.6661
 2971TIP3   OH230327   6.630   6.324  12.745  0.6878 -0.2134 -0.0876
 2971TIP3    H130328   6.681   6.309  12.665 -2.3397 -1.9214 -1.9095
 2971TIP3    H230329   6.552   6.372  12.715  1.2027  2.7031  2.6199
 2972TIP3   OH230330   2.801   4.316  15.540  0.1394 -0.4653 -0.4344
 2972TIP3    H130331   2.739   4.348  15.476  1.1071  0.6935 -0.8288
 2972TIP3    H230332   2.765   4.232  15.569 -1.0453 -0.3153 -1.4131
 2973TIP3   OH230333   5.929   0.375  14.541  0.0254  0.6475 -0.3506
 2973TIP3    H130334   5.942   0.356  14.448  0.9044 -1.1618  0.1128
 2973TIP3    H230335   5.834   0.388  14.549  0.0119  1.5699 -1.5956
 2974TIP3   OH230336   0.815   6.627   1.460  0.2323 -0.1463  0.5081
 2974TIP3    H130337   0.753   6.617   1.531 -1.7709  0.9361 -0.9862
 2974TIP3    H230338   0.805   6.548   1.407  1.6748 -0.9242  1.3483
 2975TIP3   OH230339   3.524   5.928   3.019 -0.5657 -0.0241 -0.2607
 2975TIP3    H130340   3.509   5.871   3.094 -0.3759  0.2147 -0.0383
 2975TIP3    H230341   3.470   6.006   3.037 -3.0478 -1.2309 -1.8670
 2976TIP3   OH230342   5.012   3.488  12.603  0.0265  0.4722  0.2938
 2976TIP3    H130343   4.963   3.407  12.620 -1.2192  0.5538 -2.3700
 2976TIP3    H230344   5.023   3.490  12.508  2.6319  2.0192  0.5189
 2977TIP3   OH230345   3.239   4.299  16.540 -0.1172 -0.1308  0.0105
 2977TIP3    H130346   3.256   4.388  16.507 -1.6019  0.3248  0.3905
 2977TIP3    H230347   3.265   4.302  16.632 -2.8672  0.8320  0.8396
 2978TIP3   OH230348   4.382   5.721  14.261  0.4688 -0.2963 -0.7890
 2978TIP3    H130349   4.379   5.641  14.313  0.8581  0.2423  0.0760
 2978TIP3    H230350   4.446   5.776  14.305  0.4519  0.3659 -1.5668
 2979TIP3   OH230351   3.375   6.654  13.262 -0.2163 -0.1237  0.5751
 2979TIP3    H130352   3.427   6.606  13.326 -0.8307  0.8343  1.8402
 2979TIP3    H230353   3.300   6.687  13.312 -1.3966 -0.4150 -0.9246
 2980TIP3   OH230354   3.539   3.162   9.995  0.3635  0.1759  0.4277
 2980TIP3    H130355   3.463   3.153   9.937 -1.9801 -1.6851  3.5072
 2980TIP3    H230356   3.550   3.257  10.005 -0.3064  0.5140 -1.5033
 2981TIP3   OH230357   1.307   6.693   2.882  0.3944  0.6813  0.0775
 2981TIP3    H130358   1.230   6.692   2.939  0.5259  0.3230  0.2484
 2981TIP3    H230359   1.349   6.777   2.900  0.1123  0.8267  0.0708
 2982TIP3   OH230360   4.404   1.278  14.890  0.3865 -0.1884  0.3631
 2982TIP3    H130361   4.471   1.237  14.944 -0.1048 -1.4241  0.0698
 2982TIP3    H230362   4.390   1.217  14.817 -0.6615  0.2989  0.1253
 2983TIP3   OH230363   5.560   0.413  11.321  0.0994  0.5821  0.4224
 2983TIP3    H130364   5.503   0.478  11.281  0.1108  0.0781 -0.4438
 2983TIP3    H230365   5.635   0.407  11.261  0.5175  0.4190  0.9580
 2984TIP3   OH230366   4.446   1.914   4.323 -0.6070 -0.4890  0.3182
 2984TIP3    H130367   4.372   1.854   4.336 -0.9284 -0.0005  0.7665
 2984TIP3    H230368   4.501   1.900   4.400 -0.8204 -0.0171  0.5594
 2985TIP3   OH230369   4.215   2.019   1.138  0.4107 -0.3378 -0.3549
 2985TIP3    H130370   4.271   2.036   1.062  0.0994 -0.6719 -0.6602
 2985TIP3    H230371   4.135   2.069   1.122  0.1887 -0.7136 -0.4348
 2986TIP3   OH230372   5.479   2.440   5.314 -0.0998  1.2981 -0.2969
 2986TIP3    H130373   5.485   2.345   5.313 -1.9438  1.1104  0.8858
 2986TIP3    H230374   5.494   2.465   5.405 -2.0865  1.8608 -0.0564
 2987TIP3   OH230375   3.600   3.610  13.584  0.0387  0.1192 -0.0839
 2987TIP3    H130376   3.651   3.656  13.517 -0.4506 -0.0791 -0.5943
 2987TIP3    H230377   3.509   3.620  13.556 -0.0884 -0.9958 -0.0986
 2988TIP3   OH230378   5.446   0.696  15.295  0.2550 -0.2745 -0.3656
 2988TIP3    H130379   5.480   0.616  15.254  1.7978 -0.1236  0.5114
 2988TIP3    H230380   5.375   0.666  15.351 -1.0861 -0.6309 -2.1420
 2989TIP3   OH230381   3.139   4.858   2.337  0.2048  0.2721  0.1598
 2989TIP3    H130382   3.087   4.778   2.340 -0.4045  0.5751 -1.3942
 2989TIP3    H230383   3.122   4.901   2.421  0.1518 -0.9797  0.8052
 2990TIP3   OH230384   0.994   5.226   3.038 -0.2689 -0.1473  0.0375
 2990TIP3    H130385   1.011   5.137   3.007  0.8112 -0.1962  0.7423
 2990TIP3    H230386   0.966   5.215   3.129  1.0720  0.3103  0.5182
 2991TIP3   OH230387   3.597   6.725   0.324 -0.6377  0.5151 -0.2944
 2991TIP3    H130388   3.691   6.724   0.307 -0.7278  1.6624 -0.9693
 2991TIP3    H230389   3.571   6.633   0.325  0.6947  0.1210  1.1111
 2992TIP3   OH230390   0.575   4.681   1.493  0.3657  0.1977 -0.3028
 2992TIP3    H130391   0.666   4.710   1.479  0.2730  0.7370  0.1637
 2992TIP3    H230392   0.529   4.761   1.518 -0.3474  0.0098 -0.9974
 2993TIP3   OH230393   1.395   0.665   3.834  0.6792 -0.1398  0.0977
 2993TIP3    H130394   1.321   0.612   3.861  0.5523 -0.3128 -0.5761
 2993TIP3    H230395   1.404   0.731   3.903 -1.3816  1.1628 -0.7769
 2994TIP3   OH230396   2.518   4.976   3.592 -0.3628  0.0887  0.5731
 2994TIP3    H130397   2.470   5.030   3.528 -2.4415 -0.6584  1.4037
 2994TIP3    H230398   2.451   4.917   3.627  1.4450 -1.7499  1.0687
 2995TIP3   OH230399   4.207   6.610   5.164  0.0892 -0.2465 -0.3741
 2995TIP3    H130400   4.188   6.605   5.258 -0.9641 -0.6468 -0.6000
 2995TIP3    H230401   4.256   6.530   5.145  0.5605 -0.0246 -0.1150
 2996TIP3   OH230402   4.640   3.483   2.027 -0.1042 -0.1200  0.0228
 2996TIP3    H130403   4.583   3.445   1.960 -1.7251  0.7528  0.8388
 2996TIP3    H230404   4.665   3.409   2.082 -0.7045 -0.4783 -0.1758
 2997TIP3   OH230405   2.006   2.936   0.447 -0.1358  0.3356 -0.4169
 2997TIP3    H130406   2.060   3.009   0.476  0.1627 -0.5341  1.3590
 2997TIP3    H230407   2.067   2.877   0.403 -0.0446  0.3462 -0.3054
 2998TIP3   OH230408   1.424   4.092   2.861  0.3150 -0.1394 -0.2367
 2998TIP3    H130409   1.338   4.098   2.902  0.6049 -2.2084  0.8436
 2998TIP3    H230410   1.485   4.118   2.930  0.6443 -0.6386 -0.3301
 2999TIP3   OH230411   5.225   6.754   2.883 -0.7001  0.5662  0.5317
 2999TIP3    H130412   5.169   6.746   2.960  0.3544  0.9727  1.3600
 2999TIP3    H230413   5.289   6.820   2.907  1.3281 -1.2462  0.3648
 3000TIP3   OH230414   5.972   0.762   3.340 -0.4844 -0.5896 -0.1584
 3000TIP3    H130415   6.037   0.829   3.363 -0.6707 -0.2549 -0.6070
 3000TIP3    H230416   5.890   0.809   3.334 -0.6798 -0.9235 -0.1344
 3001TIP3   OH230417   0.644   1.340   1.391  0.2608 -0.1290  0.4129
 3001TIP3    H130418   0.714   1.336   1.325  1.4056  0.6749  1.5157
 3001TIP3    H230419   0.681   1.395   1.460 -2.2413  2.0090  0.1592
 3002TIP3   OH230420   5.414   3.203   2.206  0.1582  0.3505  0.5112
 3002TIP3    H130421   5.407   3.189   2.112 -0.0036 -0.6530  0.6541
 3002TIP3    H230422   5.327   3.233   2.232 -0.3123 -0.9648  0.5632
 3003TIP3   OH230423   0.918   3.139  17.034 -0.9463  0.4627 -0.0662
 3003TIP3    H130424   0.984   3.115  16.968 -0.0771  1.1990  0.5153
 3003TIP3    H230425   0.893   3.228  17.012  0.2068  1.1547  1.2391
 3004TIP3   OH230426   5.848   2.997  11.766 -0.1645  0.0557 -0.1656
 3004TIP3    H130427   5.858   3.072  11.824 -0.1877 -0.7027  0.8556
 3004TIP3    H230428   5.758   3.004  11.733 -0.4489  0.0225  0.5883
 3005TIP3   OH230429   1.786   3.217   4.574  0.0252  0.3432  0.3100
 3005TIP3    H130430   1.770   3.268   4.653 -0.4395 -1.0638  1.1564
 3005TIP3    H230431   1.704   3.224   4.525  0.8828  2.6620 -0.9653
 3006TIP3   OH230432   1.271   5.546   4.377  0.2328  0.2905  0.3250
 3006TIP3    H130433   1.361   5.565   4.351 -0.6600  1.8123 -2.0038
 3006TIP3    H230434   1.248   5.620   4.434 -0.5798  1.9139 -1.9614
 3007TIP3   OH230435   3.424   5.246  14.622 -0.4367 -0.9945  0.0599
 3007TIP3    H130436   3.517   5.255  14.605 -0.2291  1.1918  1.8862
 3007TIP3    H230437   3.410   5.291  14.706 -3.7514  2.2843 -1.9514
 3008TIP3   OH230438   4.906   1.823   2.071 -0.4229  0.0164  0.2549
 3008TIP3    H130439   4.856   1.797   1.994 -1.0811  0.4149  0.5388
 3008TIP3    H230440   4.866   1.774   2.143  0.1959 -0.3622  0.3467
 3009TIP3   OH230441   5.709   2.184  15.366 -0.3413  0.4969 -0.2460
 3009TIP3    H130442   5.623   2.218  15.394  0.4773  2.2407  0.3101
 3009TIP3    H230443   5.688   2.114  15.305 -2.1917  1.6752 -1.0687
 3010TIP3   OH230444   5.652   2.707   5.308 -0.6756  0.5620  0.5705
 3010TIP3    H130445   5.648   2.617   5.339 -0.8515  0.5409  0.4860
 3010TIP3    H230446   5.589   2.711   5.237  0.6115  0.2839 -0.6253
 3011TIP3   OH230447   2.796   2.467  14.131  0.2494 -0.1873 -0.3752
 3011TIP3    H130448   2.737   2.400  14.097  0.5260  0.0008 -1.2473
 3011TIP3    H230449   2.805   2.446  14.224  2.8158 -3.3387 -1.1541
 3012TIP3   OH230450   5.033   2.955  11.559  0.4019 -0.6593 -0.8869
 3012TIP3    H130451   5.025   3.013  11.634 -1.3923  1.6202 -2.6889
 3012TIP3    H230452   5.111   2.987  11.513  0.7456 -1.2144 -0.7022
 3013TIP3   OH230453   0.858   0.123  15.863 -0.4754  0.0613  0.3141
 3013TIP3    H130454   0.811   0.164  15.936  1.7022  0.5873  1.4985
 3013TIP3    H230455   0.883   0.037  15.896  0.9379  0.4867  0.3974
 3014TIP3   OH230456   3.818   4.004  16.922  0.3734 -0.1344  0.5626
 3014TIP3    H130457   3.886   4.068  16.899  0.8803 -1.3353 -1.5710
 3014TIP3    H230458   3.736   4.047  16.899  0.7886 -0.7513 -2.6041
 3015TIP3   OH230459   1.182   0.029   5.417 -0.3338  0.0243 -0.1944
 3015TIP3    H130460   1.223  -0.043   5.369 -0.5447 -1.4165  1.6683
 3015TIP3    H230461   1.174  -0.004   5.507  0.0590  2.5956  0.8620
 3016TIP3   OH230462   5.474   4.032  14.879 -0.3171  0.2642  0.6290
 3016TIP3    H130463   5.475   3.936  14.871  0.3223  0.3699 -0.7718
 3016TIP3    H230464   5.537   4.062  14.814 -0.0281  1.6230  1.5070
 3017TIP3   OH230465   4.715   5.403   5.182 -0.0407  0.1352  0.4065
 3017TIP3    H130466   4.656   5.478   5.179 -0.6632 -0.3816 -1.2816
 3017TIP3    H230467   4.681   5.349   5.253 -2.5009 -0.7961 -1.3268
 3018TIP3   OH230468   2.742   4.609   5.239  0.3313  0.2035  0.3768
 3018TIP3    H130469   2.729   4.555   5.161  1.6094  0.7136 -0.2280
 3018TIP3    H230470   2.751   4.547   5.311  3.1075 -0.5575 -0.4868
 3019TIP3   OH230471   6.133   3.111  13.484  0.0787  0.3330  0.3526
 3019TIP3    H130472   6.091   3.149  13.562  0.0989  0.5140  0.2754
 3019TIP3    H230473   6.223   3.142  13.488 -0.2733  1.5258 -0.5122
 3020TIP3   OH230474   3.997   2.423  14.856  0.0021 -0.4338  0.8970
 3020TIP3    H130475   4.086   2.390  14.868  1.1138  1.4936 -1.2242
 3020TIP3    H230476   3.979   2.472  14.936  1.7469  0.8520  0.5839
 3021TIP3   OH230477   0.083   3.600   4.170  0.4436  0.0935 -0.0501
 3021TIP3    H130478   0.073   3.515   4.127 -1.1175 -0.7045  1.7203
 3021TIP3    H230479   0.003   3.648   4.146  0.1340  0.0884  0.9156
 3022TIP3   OH230480   1.466   1.805   0.728  0.2280  0.2493  0.5200
 3022TIP3    H130481   1.414   1.754   0.666  1.9055  0.6937 -1.3651
 3022TIP3    H230482   1.529   1.743   0.764  0.3563  0.3550  0.4788
 3023TIP3   OH230483   4.372   6.365   2.872 -0.9060  0.3124 -0.0659
 3023TIP3    H130484   4.389   6.417   2.951 -0.5903  0.3808 -0.1779
 3023TIP3    H230485   4.458   6.349   2.834 -1.1155  1.0302 -0.8759
 3024TIP3   OH230486   4.388   5.967  16.234 -0.7847 -0.4473 -0.6730
 3024TIP3    H130487   4.334   5.948  16.310 -0.3201 -1.2049 -0.5185
 3024TIP3    H230488   4.351   6.047  16.197  1.0432  2.0091  2.3320
 3025TIP3   OH230489   3.407   1.938   2.794 -0.2799 -0.2994  0.2940
 3025TIP3    H130490   3.401   1.958   2.700 -1.8578  0.0784  0.4497
 3025TIP3    H230491   3.403   1.842   2.798  2.0109 -0.4662 -0.1249
 3026TIP3   OH230492   1.015   1.343  11.340  0.2242 -0.3101 -0.3082
 3026TIP3    H130493   0.981   1.423  11.300  2.6963  0.0531 -1.8936
 3026TIP3    H230494   0.998   1.354  11.433 -0.5028  1.5425 -0.6168
 3027TIP3   OH230495   5.110   6.108  15.444 -0.0408 -0.2011 -0.2139
 3027TIP3    H130496   5.131   6.160  15.367  2.5434  0.4298  0.7967
 3027TIP3    H230497   5.171   6.139  15.511 -3.3383  0.5355  2.7113
 3028TIP3   OH230498   1.948   6.024  17.082 -0.1302  0.5126  0.5916
 3028TIP3    H130499   1.893   6.059  17.152  1.0469  0.9233  1.3554
 3028TIP3    H230500   2.006   6.097  17.059  0.3205 -0.0033  0.0393
 3029TIP3   OH230501   6.762   1.844   2.875  0.0151 -0.0070 -0.4171
 3029TIP3    H130502   6.751   1.801   2.790 -0.3737  0.4173 -0.5892
 3029TIP3    H230503   6.678   1.830   2.920  0.1829 -0.1399 -0.1487
 3030TIP3   OH230504   5.798   5.032  16.139  0.5198 -0.1699 -0.2068
 3030TIP3    H130505   5.719   5.081  16.164 -0.5644 -1.8286 -0.2368
 3030TIP3    H230506   5.846   5.020  16.221 -0.8344 -1.7992  0.4051
 3031TIP3   OH230507   4.783   6.422  16.135 -0.0633 -0.0275  0.1527
 3031TIP3    H130508   4.758   6.504  16.090 -1.1144  0.6292  1.8546
 3031TIP3    H230509   4.702   6.391  16.175  0.4098 -1.7381 -0.1434
 3032TIP3   OH230510   2.413   3.225  12.801 -0.2669  0.3976  0.0133
 3032TIP3    H130511   2.445   3.256  12.886  0.4501 -1.6455  0.5568
 3032TIP3    H230512   2.368   3.143  12.821  0.8793 -0.7180 -1.6668
 3033TIP3   OH230513   0.325   6.613  16.908  0.0483  0.8528 -0.2113
 3033TIP3    H130514   0.393   6.626  16.842 -0.7777  1.8379 -0.9021
 3033TIP3    H230515   0.358   6.656  16.987  1.6991 -1.5814  0.5364
 3034TIP3   OH230516   4.674   6.531  17.154 -0.3943  0.3437  0.2074
 3034TIP3    H130517   4.634   6.462  17.100  0.5761 -0.2244  0.1759
 3034TIP3    H230518   4.602   6.589  17.177 -1.8248 -2.1772  2.5728
 3035TIP3   OH230519   5.455   3.114  11.078  0.7925  0.1683 -0.3399
 3035TIP3    H130520   5.450   3.121  10.982  0.2505  1.2066 -0.2415
 3035TIP3    H230521   5.370   3.079  11.104  0.6180  0.7363 -0.1585
 3036TIP3   OH230522   1.676   0.969   2.429  0.5207  0.3715 -0.4457
 3036TIP3    H130523   1.727   0.994   2.505  0.3310 -0.2486 -0.1088
 3036TIP3    H230524   1.719   0.890   2.395  1.6249  1.5940 -2.0049
 3037TIP3   OH230525   6.096   3.596   3.231  0.4687  0.0195  0.1552
 3037TIP3    H130526   6.076   3.502   3.227  0.9245 -0.2186  2.3885
 3037TIP3    H230527   6.161   3.609   3.161  0.4047 -1.3229 -0.1817
 3038TIP3   OH230528   4.422   5.786   1.752  0.5879 -0.2607 -0.2788
 3038TIP3    H130529   4.380   5.806   1.668 -0.0738 -0.0445  0.0969
 3038TIP3    H230530   4.384   5.702   1.778 -0.7835  0.6286  0.7789
 3039TIP3   OH230531   2.693   3.909  11.750 -0.0835  0.2513 -0.0314
 3039TIP3    H130532   2.743   3.982  11.787  1.4668 -1.1767  0.8211
 3039TIP3    H230533   2.756   3.837  11.744 -1.1195 -0.5647 -2.4410
 3040TIP3   OH230534   3.990   0.059  15.934 -0.0251 -0.4822  0.1303
 3040TIP3    H130535   4.072   0.028  15.972  1.0763  0.4967 -1.3121
 3040TIP3    H230536   4.010   0.148  15.906 -1.3628 -0.5050 -0.9699
 3041TIP3   OH230537   2.862   6.331  14.574 -1.0016  0.3600  0.1906
 3041TIP3    H130538   2.947   6.361  14.607 -1.1131 -1.0357  1.8511
 3041TIP3    H230539   2.845   6.387  14.498  0.3299  2.1797  1.1600
 3042TIP3   OH230540   2.210   3.119   2.426 -0.2297 -0.1994 -0.4920
 3042TIP3    H130541   2.303   3.138   2.423 -0.5872  1.7209 -0.5846
 3042TIP3    H230542   2.181   3.126   2.335 -0.6224  0.1442 -0.3455
 3043TIP3   OH230543   4.474   5.115   3.674 -0.2749 -0.4631  0.0407
 3043TIP3    H130544   4.477   5.023   3.647 -0.2701 -0.4152 -0.1205
 3043TIP3    H230545   4.439   5.112   3.763 -0.4011 -0.6111 -0.0130
 3044TIP3   OH230546   4.268   4.528   3.391  0.2782 -0.2042 -0.6776
 3044TIP3    H130547   4.290   4.435   3.382  0.4299 -0.5990  2.7212
 3044TIP3    H230548   4.173   4.532   3.378  0.3598 -0.6802 -1.5120
 3045TIP3   OH230549   0.288   5.916  14.537 -0.0793  0.0195  0.6755
 3045TIP3    H130550   0.337   5.897  14.617 -0.3084 -0.9573  0.5869
 3045TIP3    H230551   0.305   5.842  14.479  1.0928  1.2846 -0.6968
 3046TIP3   OH230552   3.873   4.576  14.777  0.5761  0.1911 -0.7802
 3046TIP3    H130553   3.921   4.553  14.697  1.2296 -0.4797 -0.2046
 3046TIP3    H230554   3.876   4.672  14.780 -1.3305  0.3907 -2.6833
 3047TIP3   OH230555   5.642   1.354  13.999 -0.0222 -0.1182  0.9731
 3047TIP3    H130556   5.734   1.331  14.011  0.5778  1.6679  0.2352
 3047TIP3    H230557   5.617   1.313  13.917 -0.0230 -0.9201  1.3601
 3048TIP3   OH230558   0.592   0.185   0.615  0.8600  0.1169 -0.2524
 3048TIP3    H130559   0.566   0.116   0.554 -1.4674  0.5361  0.1476
 3048TIP3    H230560   0.572   0.149   0.702  0.6895  0.8497  0.0240
 3049TIP3   OH230561   5.735   4.432  14.219  0.6498 -0.1434 -0.0213
 3049TIP3    H130562   5.652   4.406  14.259  1.0001  0.0896  0.8751
 3049TIP3    H230563   5.755   4.361  14.158  0.4315 -0.8271  0.6871
 3050TIP3   OH230564   4.896   0.610  15.161 -0.2797 -0.2945 -0.2345
 3050TIP3    H130565   4.809   0.573  15.171 -0.5089  0.1797 -0.4487
 3050TIP3    H230566   4.943   0.547  15.106 -0.3875 -0.6982  0.1297
 3051TIP3   OH230567   6.469   1.222  11.050  0.3080 -0.4013  0.1440
 3051TIP3    H130568   6.417   1.155  11.006 -0.4603 -0.6962  1.4305
 3051TIP3    H230569   6.559   1.200  11.028  0.0344 -1.4778  0.0125
 3052TIP3   OH230570   6.386   4.265  17.113  0.0287  0.1891  0.0820
 3052TIP3    H130571   6.295   4.266  17.084  0.1514 -0.2670 -0.3309
 3052TIP3    H230572   6.392   4.187  17.169  0.1160  0.3347  0.2787
 3053TIP3   OH230573   1.642   1.730  14.277 -0.0705  0.5034 -0.4409
 3053TIP3    H130574   1.654   1.744  14.371  0.2780 -0.5826 -0.3116
 3053TIP3    H230575   1.639   1.635  14.267 -1.5736  0.6073 -1.3490
 3054TIP3   OH230576   2.020   5.007  10.393 -0.1902 -0.4366 -0.3208
 3054TIP3    H130577   2.110   4.980  10.408 -0.7757 -2.8888 -0.8708
 3054TIP3    H230578   1.974   4.983  10.474 -0.4727  0.3139 -0.2490
 3055TIP3   OH230579   3.080   2.805   3.668 -0.7139  0.6444 -0.1781
 3055TIP3    H130580   2.995   2.780   3.631 -0.3317 -0.2124 -0.4984
 3055TIP3    H230581   3.144   2.770   3.606 -0.0943  0.2060  0.7007
 3056TIP3   OH230582   5.891   5.675   1.793  0.6819 -0.3358  0.2564
 3056TIP3    H130583   5.900   5.624   1.873 -0.2559 -0.1200  0.5166
 3056TIP3    H230584   5.835   5.621   1.736  2.1483 -0.9421 -0.6639
 3057TIP3   OH230585   3.759   3.482   2.510 -0.1208  0.5856  0.0274
 3057TIP3    H130586   3.800   3.558   2.470  0.3295  0.6504  0.6004
 3057TIP3    H230587   3.680   3.517   2.553  0.4865  0.8707  0.9377
 3058TIP3   OH230588   6.738   1.594  15.230  0.2238 -0.4366 -0.0831
 3058TIP3    H130589   6.791   1.567  15.155  0.2981 -0.5049 -0.0067
 3058TIP3    H230590   6.702   1.513  15.265  2.2647 -0.7547  1.5264
 3059TIP3   OH230591   3.189   4.052   1.524 -0.0173 -0.1634 -0.5049
 3059TIP3    H130592   3.174   4.111   1.449  0.5570 -0.5906 -0.9632
 3059TIP3    H230593   3.112   3.995   1.524 -0.3318  0.2533 -0.3700
 3060TIP3   OH230594   3.138   1.292  13.887 -0.3215 -0.0424  0.0825
 3060TIP3    H130595   3.056   1.337  13.867 -0.1027  0.2028 -0.2731
 3060TIP3    H230596   3.179   1.279  13.802  0.1775  0.1595  0.2927
 3061TIP3   OH230597   4.865   2.941  13.747  0.4196  0.4175  0.1355
 3061TIP3    H130598   4.918   2.899  13.679  1.3344 -1.7189  2.0188
 3061TIP3    H230599   4.824   2.868  13.793  0.7857  1.6698  2.6073
 3062TIP3   OH230600   0.398   0.741   1.086 -0.2045 -0.0590 -0.5227
 3062TIP3    H130601   0.452   0.790   1.148 -1.6740 -0.9954  1.6297
 3062TIP3    H230602   0.344   0.806   1.042  1.1792  0.6685 -1.1892
 3063TIP3   OH230603   2.889   1.608  13.527  0.4674 -0.2244  0.0991
 3063TIP3    H130604   2.932   1.682  13.571  0.0975  0.1298 -0.1224
 3063TIP3    H230605   2.797   1.614  13.554 -0.5242  1.9693 -3.1741
 3064TIP3   OH230606   1.688   6.632   2.655  0.2607 -0.0479  0.2239
 3064TIP3    H130607   1.642   6.599   2.577  0.7310 -0.8327  0.2616
 3064TIP3    H230608   1.700   6.554   2.709  1.2929  0.2160  0.3862
 3065TIP3   OH230609   0.077   6.336  12.923 -0.3249  0.1274  0.5755
 3065TIP3    H130610   0.015   6.372  12.987 -1.1051 -1.5370  0.8035
 3065TIP3    H230611   0.024   6.281  12.866  0.5431  0.7358 -0.8719
 3066TIP3   OH230612   5.749   6.295   4.975  0.3940 -0.3683 -0.1862
 3066TIP3    H130613   5.730   6.262   5.063 -4.0780  1.4775 -0.1537
 3066TIP3    H230614   5.718   6.225   4.917 -1.6618  0.4061 -0.1303
 3067TIP3   OH230615   6.663   0.132   4.415  0.5705  0.2337  0.2158
 3067TIP3    H130616   6.654   0.103   4.324 -0.6732 -1.5934  0.8520
 3067TIP3    H230617   6.602   0.205   4.423  2.0111  1.6183 -0.8262
 3068TIP3   OH230618   4.632   0.396  12.830 -0.8618 -0.3418 -0.6329
 3068TIP3    H130619   4.672   0.482  12.841 -1.7878 -0.0427  0.6513
 3068TIP3    H230620   4.702   0.340  12.797  0.1901  0.5172  0.0962
 3069TIP3   OH230621   3.593   3.290  11.240 -0.2792 -0.3275 -0.0965
 3069TIP3    H130622   3.665   3.272  11.300 -0.0455 -0.2205 -0.3395
 3069TIP3    H230623   3.513   3.271  11.290 -0.1948  2.0839  1.0842
 3070TIP3   OH230624   3.458   4.847   1.548 -0.3038 -0.1267 -0.3546
 3070TIP3    H130625   3.496   4.931   1.523 -2.2410  1.0998  0.5756
 3070TIP3    H230626   3.363   4.862   1.547 -0.7628 -2.5345 -0.9353
 3071TIP3   OH230627   6.767   4.708   4.916  0.3478 -0.1237  0.0582
 3071TIP3    H130628   6.818   4.789   4.914  0.3215 -0.0940  0.4129
 3071TIP3    H230629   6.705   4.721   4.988 -1.0610  0.3786 -1.1785
 3072TIP3   OH230630   3.141   4.603  14.602 -0.1798 -0.7533  0.0553
 3072TIP3    H130631   3.172   4.533  14.544  1.1580 -0.0236 -0.1475
 3072TIP3    H230632   3.126   4.560  14.686 -2.3713 -1.8805 -0.8288
 3073TIP3   OH230633   1.697   4.562  10.822 -0.3580  0.5771  0.4600
 3073TIP3    H130634   1.792   4.548  10.821 -0.5352 -0.8692  1.1732
 3073TIP3    H230635   1.683   4.635  10.762  1.1169  0.2107 -0.3892
 3074TIP3   OH230636   3.769   2.944   0.866 -0.2123 -0.1174 -0.4865
 3074TIP3    H130637   3.739   3.033   0.884 -0.2340 -0.2819  0.3168
 3074TIP3    H230638   3.853   2.956   0.822  0.1690  0.2913  0.3362
 3075TIP3   OH230639   0.392   1.083   3.090  0.4783 -0.3423 -0.3938
 3075TIP3    H130640   0.343   1.052   3.166  0.5874  0.0316 -0.1691
 3075TIP3    H230641   0.465   1.021   3.082  2.2830  1.3642  1.7285
 3076TIP3   OH230642   5.148   1.749   0.510 -0.0815 -0.3746  0.0888
 3076TIP3    H130643   5.180   1.807   0.580 -1.4881 -0.7702  1.1190
 3076TIP3    H230644   5.224   1.733   0.455  0.4532  2.1086  0.0035
 3077TIP3   OH230645   0.927   0.592  16.822  0.1953  0.3354 -0.4230
 3077TIP3    H130646   0.832   0.598  16.815 -0.0723 -0.8792  1.4688
 3077TIP3    H230647   0.949   0.507  16.785  0.2584 -0.3566  1.1469
 3078TIP3   OH230648   3.724   0.496  13.297 -0.6795  0.0707 -0.0113
 3078TIP3    H130649   3.656   0.431  13.278  0.3717 -1.1328  0.1999
 3078TIP3    H230650   3.761   0.468  13.381 -0.4457  1.1698  0.2682
 3079TIP3   OH230651   3.402   4.432   4.752  0.5312  0.3439 -0.2441
 3079TIP3    H130652   3.463   4.394   4.816 -0.5600 -1.5451 -0.2737
 3079TIP3    H230653   3.332   4.469   4.806  0.4670  0.2958 -0.2952
 3080TIP3   OH230654   1.957   2.978  16.349  0.5507  0.4506  0.1073
 3080TIP3    H130655   2.051   2.973  16.330  0.5115  0.5584 -0.1244
 3080TIP3    H230656   1.952   3.015  16.437  0.7896 -1.6552  1.0484
 3081TIP3   OH230657   1.492   5.876  14.645 -0.4617 -0.1837 -0.1675
 3081TIP3    H130658   1.524   5.832  14.567  2.7282 -0.2709  1.0140
 3081TIP3    H230659   1.502   5.970  14.626 -1.3039 -0.1448 -0.4478
 3082TIP3   OH230660   5.755   3.954   3.951 -0.8550 -0.5180 -0.2594
 3082TIP3    H130661   5.767   3.960   4.046 -0.6563  1.6708 -0.3705
 3082TIP3    H230662   5.775   3.863   3.930  1.6803 -0.4644  1.4735
 3083TIP3   OH230663   1.626   2.130  14.127 -0.1559 -0.0163  0.1279
 3083TIP3    H130664   1.683   2.195  14.169  0.8427 -1.8219  1.7199
 3083TIP3    H230665   1.677   2.049  14.128 -2.8266 -1.8285  1.9407
 3084TIP3   OH230666   3.185   0.051   0.727 -0.1049 -0.5657  0.4447
 3084TIP3    H130667   3.257   0.055   0.789 -0.4894 -3.3968  1.2011
 3084TIP3    H230668   3.225   0.022   0.645 -0.0601  0.2455  0.1652
 3085TIP3   OH230669   3.665   0.754  12.516 -0.5923 -0.1168 -0.3995
 3085TIP3    H130670   3.589   0.718  12.470 -1.0605 -0.7543  0.8220
 3085TIP3    H230671   3.732   0.686  12.508 -0.6498 -0.1966 -0.2091
 3086TIP3   OH230672   6.588   6.545   3.136 -0.3217 -0.8382  0.1795
 3086TIP3    H130673   6.576   6.462   3.091 -1.8572 -0.8269  0.5036
 3086TIP3    H230674   6.543   6.533   3.220 -0.2487  0.1976  0.3800
 3087TIP3   OH230675   5.901   6.142   2.930  0.1353  0.0758 -0.2245
 3087TIP3    H130676   5.838   6.124   2.861  0.9938  0.4090 -1.1240
 3087TIP3    H230677   5.880   6.079   2.999 -0.6324 -0.3770 -0.8512
 3088TIP3   OH230678   2.909   0.416   0.121 -0.5590  0.1928  0.5037
 3088TIP3    H130679   2.855   0.476   0.069  0.4129  1.8726  1.3280
 3088TIP3    H230680   2.849   0.380   0.186 -1.2121  0.0840 -0.1440
 3089TIP3   OH230681   1.949   0.392  14.776  0.5005 -0.4016 -0.1982
 3089TIP3    H130682   2.028   0.364  14.729  0.8138 -0.3625  0.2867
 3089TIP3    H230683   1.972   0.479  14.810 -0.9998  1.2191 -2.9879
 3090TIP3   OH230684   0.263   3.037   3.651 -0.0661 -0.2211  0.2284
 3090TIP3    H130685   0.298   3.082   3.728  1.8393 -0.6978 -0.3058
 3090TIP3    H230686   0.329   3.052   3.583 -0.8153 -1.3414 -0.7804
 3091TIP3   OH230687   2.898   1.336   4.765 -0.4518  0.4676  0.0235
 3091TIP3    H130688   2.863   1.417   4.801  0.4190  1.3276 -1.0247
 3091TIP3    H230689   2.993   1.347   4.769 -0.3096 -0.7142  0.3282
 3092TIP3   OH230690   6.562   4.099  15.183  0.1738 -0.2769 -0.0983
 3092TIP3    H130691   6.539   4.184  15.221 -0.9123  0.2726 -1.9183
 3092TIP3    H230692   6.642   4.116  15.133  1.4366 -0.9433  1.5628
 3093TIP3   OH230693   3.463   6.775  14.109  0.1163  0.1697  0.5870
 3093TIP3    H130694   3.488   6.799  14.198  0.7381 -1.2316  0.8290
 3093TIP3    H230695   3.369   6.755  14.115  0.0179  0.6940  0.7873
 3094TIP3   OH230696   5.318   1.323  10.252  0.4718 -0.3860  0.2672
 3094TIP3    H130697   5.305   1.400  10.306  0.1792  0.7770 -1.3870
 3094TIP3    H230698   5.270   1.253  10.298  0.8923  0.3402  1.8757
 3095TIP3   OH230699   4.596   2.955  13.925  0.5637  0.3925 -0.0196
 3095TIP3    H130700   4.598   2.875  13.872 -0.1472 -0.0805  0.6355
 3095TIP3    H230701   4.517   3.001  13.895 -0.4970 -0.4379  1.3757
 3096TIP3   OH230702   1.755   3.702  10.964 -0.3458  0.5358 -0.1080
 3096TIP3    H130703   1.773   3.794  10.987 -1.1608  0.8997 -0.8698
 3096TIP3    H230704   1.736   3.660  11.048 -0.3721  1.1631  0.2101
 3097TIP3   OH230705   1.663   0.935   1.503  0.2747  0.1609 -0.1015
 3097TIP3    H130706   1.674   0.931   1.598  1.9112 -1.0079 -0.2816
 3097TIP3    H230707   1.711   1.013   1.476 -2.8057  2.3304  0.2522
 3098TIP3   OH230708   6.585   3.874   4.968  0.1293  0.5413 -0.5646
 3098TIP3    H130709   6.525   3.946   4.988  0.1873  0.3037  0.5595
 3098TIP3    H230710   6.531   3.796   4.972  0.4233  0.3587  0.1284
 3099TIP3   OH230711   3.411   5.305  16.443  0.3705  0.2140  0.2832
 3099TIP3    H130712   3.316   5.318  16.450  0.3281  0.3556 -0.4943
 3099TIP3    H230713   3.448   5.393  16.442  0.2430  0.3441 -2.7460
 3100TIP3   OH230714   4.625   4.230  11.102 -0.1544  0.1974 -0.9567
 3100TIP3    H130715   4.655   4.152  11.150 -0.4068  0.5956 -0.1226
 3100TIP3    H230716   4.577   4.195  11.027 -0.2732 -0.4581 -0.5866
 3101TIP3   OH230717   6.086   6.466   4.999  0.1155  0.1350 -0.3769
 3101TIP3    H130718   6.005   6.478   5.049  0.8417 -2.7437  1.8135
 3101TIP3    H230719   6.084   6.373   4.974  1.4109  0.7132 -2.8733
 3102TIP3   OH230720   0.021   4.891   0.884  0.3897 -0.0171  0.5237
 3102TIP3    H130721  -0.072   4.872   0.894  0.3597 -0.0669  0.1390
 3102TIP3    H230722   0.033   4.975   0.927  0.2758 -0.2790  1.0808
 3103TIP3   OH230723   3.786   3.592   3.725  0.4352  0.1381  0.3312
 3103TIP3    H130724   3.836   3.529   3.777 -0.7868  0.1919  1.6577
 3103TIP3    H230725   3.728   3.538   3.671 -1.1804  0.0625  2.0496
 3104TIP3   OH230726   3.069   4.613   3.072  0.5633 -0.1978  0.2295
 3104TIP3    H130727   3.033   4.678   3.132 -0.4857  0.0875 -0.6818
 3104TIP3    H230728   3.022   4.626   2.990  1.1152 -1.3733 -0.3092
 3105TIP3   OH230729   4.003   5.459   0.576  0.5139  0.2523  0.0040
 3105TIP3    H130730   3.921   5.455   0.625  1.2613 -1.4528  1.2301
 3105TIP3    H230731   4.069   5.427   0.638  1.9113  0.4439 -1.3349
 3106TIP3   OH230732   0.840   2.185   4.326 -0.8326  0.2261  0.0367
 3106TIP3    H130733   0.789   2.232   4.259  0.8244  2.5109  0.2604
 3106TIP3    H230734   0.846   2.247   4.399  0.2371 -0.9111  0.9565
 3107TIP3   OH230735   4.427   2.887  10.189 -0.9684  0.2036 -0.1772
 3107TIP3    H130736   4.501   2.945  10.208 -1.8877  1.2067  0.4635
 3107TIP3    H230737   4.464   2.798  10.193  0.0433  0.6513  0.8248
 3108TIP3   OH230738   0.204   6.454  12.342  0.3381 -0.2722  0.2590
 3108TIP3    H130739   0.230   6.411  12.260 -0.1729 -1.2801  0.6178
 3108TIP3    H230740   0.272   6.430  12.405  0.8391  0.6696  0.0922
 3109TIP3   OH230741   1.151   3.911   2.514 -0.3123 -0.5129 -0.5460
 3109TIP3    H130742   1.208   3.834   2.523 -0.9719 -0.8331  1.4931
 3109TIP3    H230743   1.062   3.876   2.522 -0.6663  0.3272 -0.6794
 3110TIP3   OH230744   1.408   3.008   4.582 -0.0768  0.0839 -0.1928
 3110TIP3    H130745   1.430   3.091   4.539  2.9391 -0.6519 -0.2974
 3110TIP3    H230746   1.412   2.943   4.512 -1.9529 -0.2855 -0.0193
 3111TIP3   OH230747   1.947   4.460   5.800  0.2177 -0.5318  0.1374
 3111TIP3    H130748   1.879   4.524   5.821  1.0660  0.5130 -0.2026
 3111TIP3    H230749   2.023   4.489   5.851  1.3625  0.2034 -1.8738
 3112TIP3   OH230750   0.113   1.194  15.761  0.2158  0.6753 -0.0819
 3112TIP3    H130751   0.200   1.199  15.801  0.9258 -0.8462 -1.3271
 3112TIP3    H230752   0.124   1.134  15.687 -1.8215  0.7534 -0.5059
 3113TIP3   OH230753   2.959   4.709   2.828 -0.4163  0.4275 -0.6949
 3113TIP3    H130754   2.905   4.776   2.787  1.0408  0.8825 -1.9765
 3113TIP3    H230755   3.040   4.709   2.778  0.2849 -1.1375  0.3324
 3114TIP3   OH230756   2.203   3.399  16.642  0.0517 -0.1012  0.4044
 3114TIP3    H130757   2.196   3.493  16.660  0.4164 -0.3842  2.2534
 3114TIP3    H230758   2.248   3.364  16.719  2.9301 -1.3306 -1.6383
 3115TIP3   OH230759   3.272   5.194   4.438 -0.0520 -0.7036  0.4472
 3115TIP3    H130760   3.197   5.250   4.459  0.1584  0.5162 -1.7342
 3115TIP3    H230761   3.346   5.236   4.480 -0.1683 -0.3157  0.2686
 3116TIP3   OH230762   3.690   2.067   4.579  0.3985  0.3589  0.4043
 3116TIP3    H130763   3.618   2.124   4.605 -1.8286 -2.0051 -0.2217
 3116TIP3    H230764   3.730   2.112   4.504 -1.1056  1.2664  0.0994
 3117TIP3   OH230765   0.259   2.824  10.972  0.5571  1.0746 -0.4260
 3117TIP3    H130766   0.180   2.871  10.999 -0.1459 -1.1783  1.7846
 3117TIP3    H230767   0.315   2.824  11.049  1.3337 -0.0798 -0.9497
 3118TIP3   OH230768   5.787   5.380  15.356  0.4801 -0.3865 -0.1097
 3118TIP3    H130769   5.794   5.467  15.316  1.6522  0.1628  1.1990
 3118TIP3    H230770   5.712   5.339  15.312 -1.8395  2.2657  1.0497
 3119TIP3   OH230771   5.642   2.860   5.751  0.2304  0.7477 -0.1498
 3119TIP3    H130772   5.576   2.885   5.816  0.1870  0.5997 -0.1350
 3119TIP3    H230773   5.669   2.942   5.711 -0.2186  0.7760 -0.3979
 3120TIP3   OH230774   5.723   4.022  15.721  0.0842  0.4043  0.4927
 3120TIP3    H130775   5.779   4.049  15.793 -0.1272  2.2375  0.0101
 3120TIP3    H230776   5.705   4.102  15.673 -1.1773 -0.5012 -0.6232
 3121TIP3   OH230777   4.467   2.820  12.122  0.2259 -0.0432  0.3144
 3121TIP3    H130778   4.410   2.864  12.058  1.1787 -0.9194 -1.2043
 3121TIP3    H230779   4.536   2.781  12.069  2.1641  0.8050  2.0522
 3122TIP3   OH230780   5.390   1.309  16.472 -0.7909 -0.4554 -0.3647
 3122TIP3    H130781   5.380   1.403  16.490 -2.0803 -0.4959 -0.7075
 3122TIP3    H230782   5.356   1.299  16.383  0.2507 -1.1092 -0.6976
 3123TIP3   OH230783   1.259   4.465  12.861  0.0800 -0.4605 -0.4811
 3123TIP3    H130784   1.211   4.383  12.873  0.0352 -0.5156 -1.0224
 3123TIP3    H230785   1.342   4.439  12.821  0.0086 -0.2271 -0.7827
 3124TIP3   OH230786   2.360   2.330  16.589  0.3961  0.2079 -0.2508
 3124TIP3    H130787   2.279   2.321  16.539  0.1209 -2.9984  0.5438
 3124TIP3    H230788   2.353   2.415  16.632 -1.9539  0.5560 -1.2050
 3125TIP3   OH230789   4.059   1.712  16.702 -0.1596 -0.4878  0.1087
 3125TIP3    H130790   4.017   1.695  16.617 -1.4046  1.0605  0.3733
 3125TIP3    H230791   4.153   1.717  16.681 -0.5037  0.6877 -1.3424
 3126TIP3   OH230792   6.786   3.421  12.790 -0.2598  0.0986 -0.0795
 3126TIP3    H130793   6.771   3.346  12.733  1.4054 -1.6354  1.6142
 3126TIP3    H230794   6.877   3.446  12.775 -0.2161  0.5167  0.7865
 3127TIP3   OH230795   2.285   3.284  14.103 -0.1147  0.0676  0.2443
 3127TIP3    H130796   2.319   3.277  14.014  0.9806  0.6315  0.5983
 3127TIP3    H230797   2.295   3.377  14.125 -0.8499  0.0286  0.7750
 3128TIP3   OH230798   5.769   2.878  14.704  0.3690  0.2402  0.7331
 3128TIP3    H130799   5.841   2.933  14.672  0.9209 -1.4268 -1.0813
 3128TIP3    H230800   5.787   2.791  14.669 -1.5548 -0.6643  1.8079
 3129TIP3   OH230801   1.413   2.911   3.496  0.0316  0.5244 -0.0253
 3129TIP3    H130802   1.472   2.838   3.477  0.1329  1.1556 -2.3990
 3129TIP3    H230803   1.430   2.975   3.426 -0.9695  2.2817  1.2418
 3130TIP3   OH230804   4.749   5.577  14.880 -0.0416 -0.4393 -0.4003
 3130TIP3    H130805   4.701   5.540  14.806  0.1927  0.3055 -0.9312
 3130TIP3    H230806   4.701   5.657  14.901  0.5384 -0.0771 -0.4545
 3131TIP3   OH230807   3.160   3.371  10.988 -0.2757  0.1800  0.0010
 3131TIP3    H130808   3.246   3.340  11.013  0.8739  1.2932 -2.2443
 3131TIP3    H230809   3.117   3.392  11.070  1.8773  0.3171  1.1561
 3132TIP3   OH230810   5.373   3.953   0.741  0.1476  0.3296  0.3393
 3132TIP3    H130811   5.287   3.916   0.762 -0.2267  0.5137 -0.7973
 3132TIP3    H230812   5.375   4.036   0.789 -0.7125  0.7768 -0.3622
 3133TIP3   OH230813   2.400   0.475   5.402  0.0491  0.1442  0.4412
 3133TIP3    H130814   2.415   0.411   5.332 -0.5717 -0.8155  1.1623
 3133TIP3    H230815   2.435   0.557   5.367  2.1081 -0.8545  0.0119
 3134TIP3   OH230816   1.813   1.143   2.644 -0.4515  0.0248 -0.6418
 3134TIP3    H130817   1.776   1.065   2.685 -1.7496  0.5444 -0.7589
 3134TIP3    H230818   1.799   1.213   2.708  0.7858  0.1501 -0.4968
 3135TIP3   OH230819   2.979   1.934   0.521  0.1393  0.5684 -0.3784
 3135TIP3    H130820   2.976   2.028   0.541  0.6949 -0.0848  3.5259
 3135TIP3    H230821   3.073   1.914   0.517  0.0573 -0.1384  0.9068
 3136TIP3   OH230822   5.961   2.749   1.281  0.2087  0.2083  0.2053
 3136TIP3    H130823   5.974   2.830   1.232 -2.5286  0.2822 -0.5923
 3136TIP3    H230824   5.969   2.775   1.373 -1.6871  1.7060  0.0210
 3137TIP3   OH230825   5.275   1.408   3.352  0.0112  0.0160  0.5322
 3137TIP3    H130826   5.264   1.404   3.447 -0.2628 -1.0163  0.4669
 3137TIP3    H230827   5.209   1.347   3.317  0.9962 -0.6453 -0.2448
 3138TIP3   OH230828   0.902   4.173  10.707 -0.0544 -0.6363 -0.2058
 3138TIP3    H130829   0.877   4.147  10.618  0.7048 -0.8148 -0.3711
 3138TIP3    H230830   0.973   4.114  10.730 -0.5234 -0.8637  0.6838
 3139TIP3   OH230831   4.366   2.478   3.318 -0.1727  0.6620 -0.4702
 3139TIP3    H130832   4.351   2.417   3.390  0.1919  0.8823 -0.2067
 3139TIP3    H230833   4.310   2.446   3.247 -0.5095  0.4287 -0.0994
 3140TIP3   OH230834   0.113   6.037   0.962  0.1804 -0.2213 -0.1145
 3140TIP3    H130835   0.168   6.051   0.885 -0.2232  1.5061 -0.1162
 3140TIP3    H230836   0.041   6.099   0.953 -0.2294 -0.4351  1.3355
 3141TIP3   OH230837   4.749   3.390  12.356  0.1566  0.0400 -0.4771
 3141TIP3    H130838   4.840   3.418  12.360  0.0436  0.4360 -0.6777
 3141TIP3    H230839   4.749   3.304  12.399  0.2681  0.9185  1.3399
 3142TIP3   OH230840   1.937   3.842   1.114  0.0368 -0.0033  0.3899
 3142TIP3    H130841   1.917   3.903   1.043 -0.2533 -1.4670 -0.8455
 3142TIP3    H230842   1.896   3.880   1.191 -2.0759  0.2508 -0.7997
 3143TIP3   OH230843   0.421   6.109  10.293 -0.0137  0.0950  0.3566
 3143TIP3    H130844   0.468   6.031  10.324 -2.5331 -2.0875 -0.9638
 3143TIP3    H230845   0.367   6.136  10.367 -1.8023 -1.6921 -0.2039
 3144TIP3   OH230846   4.949   6.699   2.427  0.2334  0.3569 -0.0154
 3144TIP3    H130847   4.947   6.623   2.369  0.7014 -0.5366  1.1068
 3144TIP3    H230848   4.858   6.708   2.457  0.3407 -0.2796  0.5045
 3145TIP3   OH230849   2.973   2.787   0.176 -0.2230  0.2797  0.3397
 3145TIP3    H130850   2.947   2.734   0.252 -0.7910 -1.1159 -0.7672
 3145TIP3    H230851   2.998   2.722   0.110  0.3010  1.4628 -0.6569
 3146TIP3   OH230852   4.690   3.929  15.039  0.3503 -0.1491  0.1503
 3146TIP3    H130853   4.643   3.870  15.098 -1.0360 -0.7215 -1.4564
 3146TIP3    H230854   4.747   3.980  15.097  0.1739 -1.7219  1.7935
 3147TIP3   OH230855   1.260   4.679  14.727  0.1776 -0.8026  0.1346
 3147TIP3    H130856   1.341   4.634  14.750  1.4216  1.4285  0.3772
 3147TIP3    H230857   1.224   4.708  14.810  1.3403  1.7327 -0.1536
 3148TIP3   OH230858   3.734   6.537  11.596 -0.4234 -0.1066 -0.0732
 3148TIP3    H130859   3.668   6.518  11.663 -1.8457  0.6242 -1.2206
 3148TIP3    H230860   3.687   6.531  11.513  1.3234 -1.0737 -1.0530
 3149TIP3   OH230861   6.178   0.576  11.906 -0.2004  0.2333  0.1404
 3149TIP3    H130862   6.150   0.631  11.833  0.2509  0.0856 -0.1507
 3149TIP3    H230863   6.237   0.512  11.866 -2.8726 -2.2882 -0.0575
 3150TIP3   OH230864   5.257   2.956  14.228 -0.2455 -0.6787 -0.3274
 3150TIP3    H130865   5.197   2.908  14.170  1.0274  0.1385 -2.4574
 3150TIP3    H230866   5.344   2.940  14.190  0.3710  2.0644 -0.2512
 3151TIP3   OH230867   5.110   6.736   5.787 -0.4048  0.3839 -0.6784
 3151TIP3    H130868   5.096   6.673   5.859 -0.8448 -0.6002 -1.5975
 3151TIP3    H230869   5.024   6.750   5.750  0.1166 -1.1097 -2.6123
 3152TIP3   OH230870   2.412   6.628  16.862  0.4943 -0.7938  0.0815
 3152TIP3    H130871   2.346   6.617  16.794  0.3661 -1.0011  0.2379
 3152TIP3    H230872   2.491   6.655  16.815  0.4497 -1.0955 -0.1692
 3153TIP3   OH230873   4.126   5.901  13.118 -0.2817  0.2421  0.8123
 3153TIP3    H130874   4.095   5.980  13.162  0.6644  2.0768 -1.5823
 3153TIP3    H230875   4.063   5.886  13.047  0.0295 -0.6565  0.7027
 3154TIP3   OH230876   5.981   5.414   1.395 -0.5068  0.0258 -0.1337
 3154TIP3    H130877   6.015   5.379   1.313  0.4461  0.1218  0.2150
 3154TIP3    H230878   5.888   5.391   1.394 -0.6913  0.7089 -1.6015
 3155TIP3   OH230879   3.786   1.326   5.311 -0.2858 -0.8196 -0.1155
 3155TIP3    H130880   3.750   1.388   5.247  0.8624 -0.1957 -0.1676
 3155TIP3    H230881   3.819   1.253   5.258  0.1827 -0.5468 -0.2027
 3156TIP3   OH230882   1.758   5.151  15.774 -0.2517 -0.2056  0.3929
 3156TIP3    H130883   1.679   5.111  15.809 -0.4087 -1.1476 -0.9794
 3156TIP3    H230884   1.728   5.231  15.731 -0.7111 -1.2384 -1.3168
 3157TIP3   OH230885   1.535   4.261  17.118 -0.0368 -0.2928 -0.0051
 3157TIP3    H130886   1.538   4.316  17.040  1.0967  0.1457  0.3278
 3157TIP3    H230887   1.593   4.304  17.180  1.0591 -1.9518  0.1955
 3158TIP3   OH230888   3.159   1.546   1.279 -0.5894 -0.0718 -0.3899
 3158TIP3    H130889   3.198   1.632   1.262 -0.4227 -0.3052 -1.2253
 3158TIP3    H230890   3.075   1.549   1.233 -1.2998  0.1968  0.8666
 3159TIP3   OH230891   3.559   4.538  12.429 -0.3801 -0.1696  0.5449
 3159TIP3    H130892   3.520   4.461  12.387 -0.3681 -0.0491  0.3078
 3159TIP3    H230893   3.625   4.502  12.488  0.8278 -0.2865 -0.8118
 3160TIP3   OH230894   4.862   5.063  12.305  0.2016 -0.1140  0.3807
 3160TIP3    H130895   4.779   5.094  12.341 -0.6004 -1.4517 -0.2325
 3160TIP3    H230896   4.853   5.074  12.210  1.0243  0.4287  0.3612
 3161TIP3   OH230897   1.743   4.041   4.368  0.1980 -0.2043 -0.2646
 3161TIP3    H130898   1.787   3.975   4.422  0.4925 -0.2733 -0.5871
 3161TIP3    H230899   1.651   4.017   4.371  0.3715 -0.9620 -0.8304
 3162TIP3   OH230900   6.286   3.789   3.049 -0.1339 -0.3563 -0.3190
 3162TIP3    H130901   6.271   3.702   3.012 -1.4763  0.4325 -1.7462
 3162TIP3    H230902   6.372   3.815   3.016  0.4664 -1.2701  0.4583
 3163TIP3   OH230903   2.006   4.207  12.471  0.5383 -0.7734  0.4666
 3163TIP3    H130904   2.023   4.113  12.463  0.5386 -0.6519 -1.1434
 3163TIP3    H230905   1.921   4.220  12.430  1.1978  0.1397 -0.6369
 3164TIP3   OH230906   0.928   2.851   3.942 -0.0110  0.5088 -0.5883
 3164TIP3    H130907   1.019   2.856   3.970  0.0126  1.4379 -0.7977
 3164TIP3    H230908   0.923   2.769   3.891  0.8192  0.6967 -0.9812
 3165TIP3   OH230909   6.742   2.556   4.481  0.2547  0.2642  0.0407
 3165TIP3    H130910   6.670   2.616   4.463  0.9574  1.0853 -0.0634
 3165TIP3    H230911   6.793   2.554   4.400  0.1433 -0.6349 -0.0264
 3166TIP3   OH230912   4.525   2.638  11.037  0.2458  0.0393  0.4972
 3166TIP3    H130913   4.582   2.688  11.095 -0.6866  0.6454  0.9177
 3166TIP3    H230914   4.583   2.575  10.994  1.4984  1.6177 -0.2262
 3167TIP3   OH230915   1.182   2.467   2.492  0.2310 -0.3508 -0.3217
 3167TIP3    H130916   1.131   2.424   2.561 -0.0413 -0.8719 -0.8396
 3167TIP3    H230917   1.270   2.432   2.502  0.2083 -0.3708 -0.1918
 3168TIP3   OH230918   4.528   3.406  13.508  0.1843  1.1013 -0.6618
 3168TIP3    H130919   4.615   3.400  13.548 -0.3859  0.5500  0.5327
 3168TIP3    H230920   4.534   3.352  13.430  1.5191  2.7160 -1.7729
 3169TIP3   OH230921   2.657   4.132  16.659  0.1481 -0.3790 -0.4413
 3169TIP3    H130922   2.627   4.181  16.582 -2.0686 -1.7201 -0.5245
 3169TIP3    H230923   2.599   4.161  16.729 -0.4631 -1.9667 -0.2393
 3170TIP3   OH230924   4.360   3.126   1.697 -0.3441  0.2679 -0.2687
 3170TIP3    H130925   4.415   3.117   1.619 -1.7048 -1.1917 -1.1208
 3170TIP3    H230926   4.270   3.127   1.663 -0.9799 -0.6622  1.2849
 3171TIP3   OH230927   3.632   1.394  11.552  0.1945  0.8275 -0.4753
 3171TIP3    H130928   3.602   1.417  11.464  1.3290  0.5370 -0.9558
 3171TIP3    H230929   3.552   1.387  11.603 -0.4421  1.7082 -1.3082
 3172TIP3   OH230930   5.650   1.959   5.703  0.0771  0.0366 -0.3453
 3172TIP3    H130931   5.587   1.941   5.773  0.7334 -0.0473  0.2365
 3172TIP3    H230932   5.665   1.874   5.662 -0.0087  0.0137 -0.3300
 3173TIP3   OH230933   2.251   4.981   4.223 -0.0616  0.7428  0.1086
 3173TIP3    H130934   2.273   4.888   4.225 -2.8327 -0.2776 -3.9722
 3173TIP3    H230935   2.168   4.988   4.270  0.5679  1.3703  1.1592
 3174TIP3   OH230936   5.089   4.588   1.154  0.3730  0.4610  0.2251
 3174TIP3    H130937   5.060   4.534   1.081 -0.4039 -0.8440  1.4562
 3174TIP3    H230938   5.184   4.593   1.144  0.3418 -0.2410 -0.5162
 3175TIP3   OH230939   4.939   1.990   2.926 -0.2988 -0.9379 -0.5772
 3175TIP3    H130940   5.018   1.996   2.872 -0.0928  2.3686 -0.1100
 3175TIP3    H230941   4.972   1.982   3.016 -0.4987 -0.4016 -0.4526
 3176TIP3   OH230942   3.555   0.443  11.513  0.2798 -0.0779  0.1478
 3176TIP3    H130943   3.605   0.364  11.492  1.3372  1.0190 -1.7791
 3176TIP3    H230944   3.620   0.514  11.509 -0.9974  1.1157 -0.2152
 3177TIP3   OH230945   1.092   2.037   1.208 -0.1824 -0.1214  0.3671
 3177TIP3    H130946   1.089   1.951   1.167  1.0401 -0.5694  1.1646
 3177TIP3    H230947   1.050   2.095   1.144  2.9399 -0.4948 -2.2795
 3178TIP3   OH230948   0.926   5.310   3.790 -0.5032  0.2038 -0.5931
 3178TIP3    H130949   0.999   5.368   3.765 -0.9117  0.7627 -0.4980
 3178TIP3    H230950   0.969   5.228   3.813  0.2530  0.9760  0.9417
 3179TIP3   OH230951   0.600   4.848   2.487  0.1786 -0.0726  0.2743
 3179TIP3    H130952   0.667   4.800   2.535  0.4088  1.3538  1.4601
 3179TIP3    H230953   0.533   4.783   2.467  1.9742 -1.5981 -1.1659
 3180TIP3   OH230954   6.245   3.454  12.840  0.0394  0.1398 -0.7885
 3180TIP3    H130955   6.249   3.547  12.860  2.8859 -0.0086 -0.3127
 3180TIP3    H230956   6.335   3.429  12.822 -0.5579 -2.6422 -0.3864
 3181TIP3   OH230957   4.949   0.926   2.903  0.4198  0.5520  0.2538
 3181TIP3    H130958   5.035   0.940   2.942 -0.0495  1.8979  0.8817
 3181TIP3    H230959   4.923   1.013   2.871 -0.6275  0.1341 -0.0825
 3182TIP3   OH230960   5.847   2.723  14.993  0.3098 -0.2694 -0.1258
 3182TIP3    H130961   5.775   2.708  15.055 -0.9843 -0.1428 -1.5308
 3182TIP3    H230962   5.818   2.798  14.941  2.1741  0.7679  0.2494
 3183TIP3   OH230963   0.771   2.816   2.424 -0.4734 -0.3853  0.5018
 3183TIP3    H130964   0.769   2.901   2.468  0.0519  0.8962 -1.8067
 3183TIP3    H230965   0.853   2.777   2.452  1.0142  1.4352 -1.0284
 3184TIP3   OH230966   4.680   0.014  16.162  0.1147 -0.3776 -0.1716
 3184TIP3    H130967   4.619  -0.031  16.104  0.9781  0.2287 -1.6019
 3184TIP3    H230968   4.700  -0.050  16.231 -1.5265 -0.8365 -0.0877
 3185TIP3   OH230969   3.505   3.579   1.300  0.1435 -0.2664 -0.3459
 3185TIP3    H130970   3.468   3.667   1.292 -0.9718 -0.6695  0.1861
 3185TIP3    H230971   3.482   3.551   1.388 -2.0153 -2.1584 -1.4117
 3186TIP3   OH230972   0.996   0.365   2.709 -0.7556  0.3122 -0.3103
 3186TIP3    H130973   1.070   0.307   2.695 -2.0928 -1.2312 -1.2956
 3186TIP3    H230974   0.929   0.309   2.748 -1.2715  1.7763  1.0021
 3187TIP3   OH230975   2.155   2.347   4.999  0.2661 -0.3139  0.1152
 3187TIP3    H130976   2.231   2.326   5.053  1.5912 -1.4303 -2.0599
 3187TIP3    H230977   2.177   2.431   4.958  0.7098 -1.0076 -1.1089
 3188TIP3   OH230978   5.352   0.113  13.656 -0.1815  0.1503 -0.0877
 3188TIP3    H130979   5.366   0.203  13.626  0.8575  0.6175  1.6094
 3188TIP3    H230980   5.307   0.070  13.584  0.7575  1.5837 -1.6172
 3189TIP3   OH230981   1.315   1.269   5.814 -0.0132  0.6851 -0.4101
 3189TIP3    H130982   1.396   1.220   5.827  0.7114  1.8202 -0.4584
 3189TIP3    H230983   1.246   1.208   5.838  0.8857 -0.0997  0.2758
 3190TIP3   OH230984   4.150   6.496   2.753  0.2731 -0.6586  0.4142
 3190TIP3    H130985   4.228   6.449   2.781 -0.8392 -2.1815  1.1229
 3190TIP3    H230986   4.094   6.497   2.831 -0.0764  1.2019  0.1884
 3191TIP3   OH230987   4.289   3.243   6.467 -0.1796  0.4901  0.7107
 3191TIP3    H130988   4.264   3.277   6.381  1.4917 -0.9410 -0.4284
 3191TIP3    H230989   4.385   3.236   6.463 -0.1433 -0.4728  2.3376
 3192TIP3   OH230990   0.785   5.574   4.308  0.0815 -0.2879 -0.3379
 3192TIP3    H130991   0.867   5.554   4.264  0.4945 -0.0732  0.3199
 3192TIP3    H230992   0.799   5.548   4.399 -0.2588  0.5720 -0.0257
 3193TIP3   OH230993   3.026   5.722   3.649  0.5146 -0.1736 -0.0751
 3193TIP3    H130994   3.010   5.810   3.682 -0.2802 -0.4928  0.3925
 3193TIP3    H230995   2.952   5.670   3.679  0.0642 -0.6210 -1.8233
 3194TIP3   OH230996   0.892   1.357   1.247 -0.5565 -0.2509  0.2395
 3194TIP3    H130997   0.933   1.430   1.294 -0.8380 -0.0213  0.1359
 3194TIP3    H230998   0.959   1.288   1.245  0.3844  0.6412 -1.2206
 3195TIP3   OH230999   0.069   4.127   4.629 -0.0606 -0.0245  0.6206
 3195TIP3    H131000   0.106   4.211   4.602  0.6437  0.4202  2.7027
 3195TIP3    H231001   0.114   4.108   4.712 -0.4771 -2.2874  0.3805
 3196TIP3   OH231002   4.884   2.643   0.410 -0.1110  0.1456  0.2792
 3196TIP3    H131003   4.862   2.716   0.467 -0.1278 -0.6986  1.3953
 3196TIP3    H231004   4.818   2.644   0.341 -1.6377 -0.3052  1.6773
 3197TIP3   OH231005   6.644   4.950  11.581 -0.3547  0.7524  0.2000
 3197TIP3    H131006   6.682   4.867  11.609  2.1708  1.2899 -1.3556
 3197TIP3    H231007   6.557   4.926  11.549  0.2883 -1.3000 -0.1917
 3198TIP3   OH231008   1.962   5.771   1.088 -0.3929 -0.0337  0.4361
 3198TIP3    H131009   2.053   5.744   1.078 -0.4947 -0.4191  0.5157
 3198TIP3    H231010   1.913   5.710   1.034 -0.7364 -0.7535  1.5238
 3199TIP3   OH231011   1.994   3.535   0.502 -0.3599  0.2004 -0.2146
 3199TIP3    H131012   2.076   3.525   0.455 -0.4828  0.8237 -0.5699
 3199TIP3    H231013   1.932   3.568   0.436 -0.8606 -0.1227  0.0805
 3200TIP3   OH231014   1.421   5.620  15.458 -0.4311 -0.2427  0.5016
 3200TIP3    H131015   1.382   5.698  15.498 -2.9338 -0.8554 -0.5473
 3200TIP3    H231016   1.392   5.623  15.367 -0.7815 -2.4675  0.4813
 3201TIP3   OH231017   3.524   2.358  12.002  0.3710 -0.4004 -0.5705
 3201TIP3    H131018   3.456   2.411  11.959  1.7945  0.9517 -1.2554
 3201TIP3    H231019   3.492   2.346  12.091 -0.9120 -0.0613 -0.9610
 3202TIP3   OH231020   6.506   4.964   0.590 -0.0009 -0.0236  0.6039
 3202TIP3    H131021   6.570   5.035   0.591 -0.2198  0.2042 -0.4063
 3202TIP3    H231022   6.474   4.960   0.680  0.4786  0.7303  0.8216
 3203TIP3   OH231023   6.046   6.289   3.548  0.2638 -0.4198 -0.3616
 3203TIP3    H131024   6.057   6.279   3.454 -0.5235 -2.1685 -0.3119
 3203TIP3    H231025   5.955   6.266   3.564 -0.0271  1.2886  0.6777
 3204TIP3   OH231026   2.755   4.236   5.640  0.0064  0.6021 -0.6204
 3204TIP3    H131027   2.727   4.277   5.722  0.3900 -0.2638 -0.0437
 3204TIP3    H231028   2.679   4.185   5.612  0.2881 -0.0764 -0.1576
 3205TIP3   OH231029   1.933   0.698  15.535  0.6638  0.6721  0.2417
 3205TIP3    H131030   1.999   0.629  15.531  1.2835  1.2723 -0.1374
 3205TIP3    H231031   1.971   0.771  15.486 -0.2301  1.0779  0.1249
 3206TIP3   OH231032   5.123   1.919  16.149  0.5424  0.6536 -0.5198
 3206TIP3    H131033   5.057   1.979  16.183  0.8152 -0.1897  1.6680
 3206TIP3    H231034   5.093   1.832  16.178  1.5630  0.0310 -1.2658
 3207TIP3   OH231035   0.780   1.422   0.376 -0.0266 -0.0449  1.0070
 3207TIP3    H131036   0.778   1.327   0.389 -0.8837  0.1256  2.2729
 3207TIP3    H231037   0.842   1.435   0.304 -1.0590 -1.6641 -0.2347
 3208TIP3   OH231038   3.308   3.456   4.098 -0.2716 -0.1643 -0.1350
 3208TIP3    H131039   3.224   3.457   4.144  0.6394 -0.6674  1.6052
 3208TIP3    H231040   3.331   3.548   4.088 -1.6866  0.0660 -2.0042
 3209TIP3   OH231041   0.027   5.422  12.170  0.2291 -0.7464  0.0049
 3209TIP3    H131042   0.061   5.466  12.248 -0.0116 -1.0447  0.2793
 3209TIP3    H231043   0.078   5.459  12.098  1.3093 -1.3553  0.4299
 3210TIP3   OH231044   0.267   1.240  11.634  0.5969 -0.3332 -0.8733
 3210TIP3    H131045   0.272   1.198  11.547 -0.4889  0.8588 -1.5445
 3210TIP3    H231046   0.175   1.264  11.643  0.6230 -0.7701  0.8019
 3211TIP3   OH231047   5.128   3.212  16.755 -0.1097  0.0568  0.0132
 3211TIP3    H131048   5.201   3.255  16.801  0.5141 -1.5750  0.6101
 3211TIP3    H231049   5.129   3.251  16.668  0.3306  1.3542  0.5714
 3212TIP3   OH231050   3.045   4.912   0.045 -0.1690 -0.2032 -0.0297
 3212TIP3    H131051   3.098   4.936   0.121  2.5010  3.8112 -2.8013
 3212TIP3    H231052   3.095   4.842   0.002  0.0222 -0.1944  0.1773
 3213TIP3   OH231053   4.670   0.709  16.122 -0.6459 -0.1269  0.7717
 3213TIP3    H131054   4.624   0.751  16.195 -1.2475 -0.1857  0.4389
 3213TIP3    H231055   4.600   0.668  16.071 -0.4198  1.2233 -0.7071
 3214TIP3   OH231056   1.315   1.148   3.136 -0.4600  0.2450  0.2267
 3214TIP3    H131057   1.232   1.195   3.131  1.1407  3.3046 -0.0030
 3214TIP3    H231058   1.363   1.191   3.207  1.0288 -1.3088  0.2284
 3215TIP3   OH231059   0.405   3.297   1.301 -0.3732  0.1420 -0.2267
 3215TIP3    H131060   0.356   3.215   1.299 -0.1336  0.0075 -1.3699
 3215TIP3    H231061   0.364   3.351   1.234 -0.1542  0.7399  0.1122
 3216TIP3   OH231062   3.212   3.922  11.573  0.2810 -0.2913  0.2262
 3216TIP3    H131063   3.190   3.845  11.625 -1.7568  0.5676  0.7478
 3216TIP3    H231064   3.182   3.900  11.484 -0.2710 -0.1461  0.3694
 3217TIP3   OH231065   4.897   2.066  12.786  0.2583 -0.5515 -0.1080
 3217TIP3    H131066   4.878   2.101  12.699 -0.4241 -0.3969  0.0972
 3217TIP3    H231067   4.947   1.986  12.770 -0.4346 -0.8789 -0.6696
 3218TIP3   OH231068   5.761   3.725   5.125  0.6629 -0.2333  0.4209
 3218TIP3    H131069   5.772   3.820   5.118 -0.6322 -0.0680  0.3123
 3218TIP3    H231070   5.814   3.689   5.054 -0.5852  0.5549 -0.9590
 3219TIP3   OH231071   5.158   2.324  10.459  0.5389  0.4729 -0.2575
 3219TIP3    H131072   5.075   2.359  10.425  1.3518  0.3245 -2.6190
 3219TIP3    H231073   5.143   2.230  10.466  0.5814  0.3951 -1.0431
 3220TIP3   OH231074   0.485   3.639  13.913  0.5587 -0.2535 -0.2814
 3220TIP3    H131075   0.393   3.618  13.894  0.7015 -1.0747 -0.1150
 3220TIP3    H231076   0.484   3.731  13.939 -0.3783 -0.5538  0.8142
 3221TIP3   OH231077   4.763   4.556  12.749  0.0625  0.3389  0.0793
 3221TIP3    H131078   4.789   4.610  12.824 -0.1435 -1.0803  1.2264
 3221TIP3    H231079   4.672   4.581  12.732 -0.6568 -0.9053  1.8231
 3222TIP3   OH231080   1.614   4.704  16.473 -0.2773  0.0982 -0.1407
 3222TIP3    H131081   1.654   4.778  16.518 -1.6548  0.0705  1.2110
 3222TIP3    H231082   1.677   4.632  16.485  0.2525  0.5922  0.0665
 3223TIP3   OH231083   3.375   6.190  15.518  0.3523 -0.0997  0.1832
 3223TIP3    H131084   3.377   6.201  15.613 -0.7292 -0.7533  0.3008
 3223TIP3    H231085   3.298   6.239  15.490  0.7816  0.2559 -0.3835
 3224TIP3   OH231086   4.249   0.483   3.647 -0.2869  0.0756 -0.9690
 3224TIP3    H131087   4.186   0.426   3.603  1.4027 -1.1674 -1.8810
 3224TIP3    H231088   4.285   0.538   3.576  1.1457 -0.6889 -0.8736
 3225TIP3   OH231089   2.189   4.929  12.530  0.3233  0.3923 -0.1765
 3225TIP3    H131090   2.230   4.907  12.613  0.0279  2.6028  0.6032
 3225TIP3    H231091   2.097   4.904  12.541  0.8030 -1.9827 -0.9387
 3226TIP3   OH231092   0.635   3.022   6.088 -0.0963 -0.1019 -0.7409
 3226TIP3    H131093   0.569   3.016   6.157 -0.4305  0.5104 -0.9946
 3226TIP3    H231094   0.602   2.966   6.017 -2.0364  2.6181 -2.1840
 3227TIP3   OH231095   1.359   6.020   3.158  0.2330  0.8334 -0.1308
 3227TIP3    H131096   1.395   6.086   3.217 -1.2997  2.4353 -0.8974
 3227TIP3    H231097   1.290   5.976   3.208  0.0365  1.0684 -0.1935
 3228TIP3   OH231098   6.046   4.183   6.031 -0.0683  0.7161 -0.0154
 3228TIP3    H131099   6.072   4.133   6.108  0.9166  1.1001 -0.0804
 3228TIP3    H231100   6.052   4.275   6.059  0.8761  0.8828 -0.6956
 3229TIP3   OH231101   2.700   3.371  14.738 -0.0200 -0.0455 -0.5230
 3229TIP3    H131102   2.735   3.317  14.809 -0.0043  0.1122 -0.4083
 3229TIP3    H231103   2.639   3.314  14.692  0.6819 -0.4494 -0.9662
 3230TIP3   OH231104   2.305   6.622   1.772  0.2707 -0.1116  0.2620
 3230TIP3    H131105   2.252   6.549   1.802 -1.8674  0.6697 -1.3270
 3230TIP3    H231106   2.326   6.601   1.681  1.2945  0.3672  0.3719
 3231TIP3   OH231107   0.320   2.101  11.685  0.1225  0.1015 -0.1673
 3231TIP3    H131108   0.374   2.053  11.622 -0.7612 -1.0024 -0.1284
 3231TIP3    H231109   0.237   2.115  11.639 -0.5010 -0.6327  0.6915
 3232TIP3   OH231110   6.439   0.327   1.759 -0.0848 -0.1837  0.6301
 3232TIP3    H131111   6.466   0.327   1.851  0.2123 -0.1252  0.5419
 3232TIP3    H231112   6.346   0.304   1.762  0.1009 -0.9196  0.8946
 3233TIP3   OH231113   3.685   1.604   2.919  0.5664  0.2856  0.8766
 3233TIP3    H131114   3.652   1.529   2.968 -0.0245 -0.1070 -0.0902
 3233TIP3    H231115   3.778   1.608   2.941  1.4276 -2.7659 -1.5004
 3234TIP3   OH231116   3.021   2.252   3.312 -0.5913 -0.0100 -0.1431
 3234TIP3    H131117   2.947   2.221   3.364  0.0085 -0.1254  0.6475
 3234TIP3    H231118   3.088   2.185   3.323 -0.8797 -0.6775 -2.0830
 3235TIP3   OH231119   0.622   6.314   2.574  0.0388 -0.5231 -0.7861
 3235TIP3    H131120   0.684   6.386   2.585 -1.9914  1.5341 -1.9329
 3235TIP3    H231121   0.662   6.241   2.621  1.7776  1.5801  1.2684
 3236TIP3   OH231122   2.268   6.321  10.081 -0.2193  0.0280 -0.1040
 3236TIP3    H131123   2.339   6.260  10.103 -0.9031 -0.4028  0.9666
 3236TIP3    H231124   2.189   6.267  10.079 -0.3713  0.2179 -2.7872
 3237TIP3   OH231125   3.226   2.413   0.108 -0.3202 -0.6583 -0.0863
 3237TIP3    H131126   3.185   2.482   0.056  2.5759  1.8724  0.6953
 3237TIP3    H231127   3.193   2.428   0.197 -0.6106 -1.0493 -0.1295
 3238TIP3   OH231128   0.313   6.108   5.522  0.4300  0.3544 -0.0248
 3238TIP3    H131129   0.272   6.194   5.533  0.1875  0.2164  0.2037
 3238TIP3    H231130   0.239   6.047   5.526  0.4701  0.2056 -1.3310
 3239TIP3   OH231131   4.737   2.247  13.190  0.2013  0.5556  0.1979
 3239TIP3    H131132   4.793   2.268  13.264 -0.4775 -2.3857  1.6901
 3239TIP3    H231133   4.784   2.178  13.143  0.8996  2.7142 -2.5962
 3240TIP3   OH231134   0.218   0.767   4.281  0.1542  0.3377  0.6244
 3240TIP3    H131135   0.125   0.769   4.256  0.4625  0.5988 -0.5789
 3240TIP3    H231136   0.231   0.848   4.330 -0.3168  0.1536  1.0668
 3241TIP3   OH231137   4.107   2.455  11.208 -0.2560 -0.6440 -0.5718
 3241TIP3    H131138   4.154   2.378  11.240  0.5019  0.3113  0.7640
 3241TIP3    H231139   4.171   2.502  11.154 -0.3408 -0.3913 -0.4547
 3242TIP3   OH231140   0.950   4.195   1.348  0.4136 -0.1581  0.2404
 3242TIP3    H131141   0.947   4.287   1.373 -1.7470 -0.2563  0.5242
 3242TIP3    H231142   0.919   4.194   1.257 -0.3409 -0.6549  0.4938
 3243TIP3   OH231143   1.302   4.102   5.356 -0.2634 -0.4713  0.5083
 3243TIP3    H131144   1.289   4.190   5.391  0.4558 -0.8246  1.6890
 3243TIP3    H231145   1.233   4.093   5.290 -0.8381  0.6820  0.9162
 3244TIP3   OH231146   4.011   0.149  16.292  0.4980  0.2642 -0.6039
 3244TIP3    H131147   4.030   0.128  16.384 -0.3548 -1.3719 -0.7642
 3244TIP3    H231148   3.968   0.234  16.296 -0.5699 -0.2911  0.6525
 3245TIP3   OH231149   1.724   5.047   1.701 -0.1454  0.5694 -0.0785
 3245TIP3    H131150   1.766   5.133   1.688  1.3958  0.1621  1.6670
 3245TIP3    H231151   1.702   5.018   1.613  0.1310  2.3553 -0.8000
 3246TIP3   OH231152   4.412   6.768   3.359  0.4379 -0.2532 -0.3285
 3246TIP3    H131153   4.327   6.757   3.317  0.4836  0.5733 -0.6607
 3246TIP3    H231154   4.461   6.689   3.337 -0.9227 -1.7296  1.5859
 3247TIP3   OH231155   1.533   6.208  11.327 -0.1894  0.1348 -0.6790
 3247TIP3    H131156   1.450   6.205  11.375  0.5654  2.1131  0.8718
 3247TIP3    H231157   1.530   6.290  11.279  1.7295  1.3766  1.1601
 3248TIP3   OH231158   3.016   5.022   1.613 -0.7528 -0.1129 -0.7301
 3248TIP3    H131159   2.936   5.067   1.589 -0.5594 -0.2532 -1.6944
 3248TIP3    H231160   2.988   4.937   1.646 -0.9927 -0.3396 -1.4926
 3249TIP3   OH231161   4.773   1.057   2.394 -0.0433  0.1873  0.2683
 3249TIP3    H131162   4.793   0.964   2.381 -0.1706  0.0135  1.1962
 3249TIP3    H231163   4.728   1.059   2.479 -0.2837  1.0652  0.1249
 3250TIP3   OH231164   1.012   3.962   3.460 -0.4233 -0.1622 -0.3651
 3250TIP3    H131165   0.949   3.920   3.402 -1.5304 -0.8055  1.2387
 3250TIP3    H231166   1.041   3.892   3.519  2.0043  0.0417 -1.1726
 3251TIP3   OH231167   1.432   6.530  14.291 -0.4152 -0.3164 -0.2669
 3251TIP3    H131168   1.445   6.500  14.201 -1.0092  1.1113 -0.8692
 3251TIP3    H231169   1.520   6.547  14.324 -0.2083 -0.5460 -0.6980
 3252TIP3   OH231170   5.417   6.180   0.441  0.0166  0.0158 -0.3374
 3252TIP3    H131171   5.327   6.160   0.416  0.6536 -2.1557 -1.1289
 3252TIP3    H231172   5.468   6.165   0.362  1.2871 -0.6150  0.5633
 3253TIP3   OH231173   1.851   1.909   4.534 -0.7059 -0.3225 -0.3950
 3253TIP3    H131174   1.795   1.964   4.589  0.2787 -0.4463  0.7670
 3253TIP3    H231175   1.939   1.922   4.569 -0.5329 -3.2914  0.4858
 3254TIP3   OH231176   3.937   5.083  13.887 -0.0499 -0.4524 -0.6056
 3254TIP3    H131177   4.008   5.109  13.828  1.2277 -0.9855  0.6486
 3254TIP3    H231178   3.916   4.994  13.861  1.1857 -1.0378  0.3514
 3255TIP3   OH231179   0.835   6.112   4.873 -0.1664 -0.1396  0.0518
 3255TIP3    H131180   0.859   6.201   4.899 -0.5439 -0.0229  0.0057
 3255TIP3    H231181   0.859   6.107   4.780 -0.0601 -0.1184  0.0773
 3256TIP3   OH231182   6.013   1.809   0.885  0.0308 -0.0865 -0.5731
 3256TIP3    H131183   6.002   1.729   0.834 -0.5606 -0.8853  0.7634
 3256TIP3    H231184   6.094   1.848   0.852  0.1483 -1.0626 -1.4672
 3257TIP3   OH231185   3.006   4.286  15.356  0.1210 -0.3115  0.6153
 3257TIP3    H131186   2.927   4.312  15.404 -0.0502  0.3900 -0.0178
 3257TIP3    H231187   3.059   4.366  15.353  0.4617 -0.5483  0.2961
 3258TIP3   OH231188   2.966   6.391   5.622  0.1397 -0.6180  0.4182
 3258TIP3    H131189   3.044   6.393   5.677  0.9686  3.7084 -0.6043
 3258TIP3    H231190   2.903   6.447   5.667 -0.6027 -0.1903 -1.0731
 3259TIP3   OH231191   1.267   6.360   0.109 -0.2277  0.9239 -0.5268
 3259TIP3    H131192   1.243   6.375   0.200  0.3695 -1.1349  0.0241
 3259TIP3    H231193   1.208   6.290   0.080 -1.0770  2.2045 -2.0636
 3260TIP3   OH231194   4.826   1.325   2.291  0.2133  0.5090 -0.7393
 3260TIP3    H131195   4.804   1.247   2.342  1.0440  1.5082  1.2472
 3260TIP3    H231196   4.863   1.291   2.209 -0.0174 -1.1575 -0.1775
 3261TIP3   OH231197   2.372   2.571   6.467  0.1291 -0.4037 -0.1552
 3261TIP3    H131198   2.307   2.514   6.509  0.2413  1.1236  2.3021
 3261TIP3    H231199   2.319   2.638   6.423  0.0053 -0.1550  0.3604
 3262TIP3   OH231200   5.902   4.545  11.706  0.2853  0.1007  0.8386
 3262TIP3    H131201   5.855   4.628  11.711 -0.2179 -0.1857  0.9516
 3262TIP3    H231202   5.912   4.518  11.798  2.0945  0.9395  0.9152
 3263TIP3   OH231203   3.937   3.457   5.023  0.1741  0.1311 -0.0368
 3263TIP3    H131204   3.970   3.377   4.982  0.9842  0.7173 -0.5730
 3263TIP3    H231205   3.870   3.489   4.962  0.3100  0.2003 -0.1515
 3264TIP3   OH231206   5.890   3.715   0.238 -0.2522 -0.1249  0.0497
 3264TIP3    H131207   5.828   3.694   0.308 -0.4610 -0.3600 -0.1968
 3264TIP3    H231208   5.843   3.689   0.158  0.4705 -1.0552 -0.0902
 3265TIP3   OH231209   6.772   4.818  15.613 -0.4094 -0.2752  0.8275
 3265TIP3    H131210   6.719   4.842  15.689  0.7504  0.9777  1.3056
 3265TIP3    H231211   6.841   4.762  15.649 -0.6007 -0.7554  0.4581
 3266TIP3   OH231212   4.670   6.209   5.237 -0.3136  1.0600 -0.3815
 3266TIP3    H131213   4.619   6.282   5.271 -1.2748 -0.2458  1.1250
 3266TIP3    H231214   4.713   6.172   5.314  1.0777  0.7057 -1.2807
 3267TIP3   OH231215   4.432   1.725   3.058 -0.5607 -0.2146  0.8829
 3267TIP3    H131216   4.500   1.791   3.052  0.5112 -1.3980 -0.5742
 3267TIP3    H231217   4.405   1.727   3.150 -0.0430  1.6948  1.0316
 3268TIP3   OH231218   6.399   3.498  12.075 -0.2391 -0.1023  0.8323
 3268TIP3    H131219   6.311   3.534  12.063 -0.1252  0.3604  1.3477
 3268TIP3    H231220   6.444   3.517  11.993 -0.0326  1.3844  1.2561
 3269TIP3   OH231221   0.216   1.908   5.083  0.3768 -0.6395 -0.1226
 3269TIP3    H131222   0.304   1.933   5.112 -0.1838  0.4836  0.7111
 3269TIP3    H231223   0.161   1.927   5.159 -0.6023 -1.2105 -0.6816
 3270TIP3   OH231224   0.188   0.091   5.712 -0.1880  0.3235  0.1684
 3270TIP3    H131225   0.256   0.031   5.745 -1.0188 -0.3805  0.6523
 3270TIP3    H231226   0.161   0.141   5.788 -1.2560 -0.4512  0.3181
 3271TIP3   OH231227   6.124   0.539   0.202 -0.3994  0.0046  0.7005
 3271TIP3    H131228   6.140   0.576   0.115 -1.1160  1.0388  0.9778
 3271TIP3    H231229   6.179   0.461   0.206  1.2045  1.0471  0.0701
 3272TIP3   OH231230   0.986   6.139   0.892 -0.0213 -0.3886  0.5594
 3272TIP3    H131231   1.034   6.056   0.885 -0.2370 -0.4007 -1.0856
 3272TIP3    H231232   1.029   6.197   0.830 -0.6722  0.3443  0.7786
 3273TIP3   OH231233   3.500   0.352  16.915 -0.2931  0.4457  0.6132
 3273TIP3    H131234   3.546   0.425  16.874 -0.7543  0.0970 -0.5576
 3273TIP3    H231235   3.553   0.330  16.991  2.5684 -1.2104 -1.6839
 3274TIP3   OH231236   3.856   4.645  15.083  0.3556 -0.2267  0.4514
 3274TIP3    H131237   3.829   4.701  15.010 -0.2025 -1.1511 -0.0812
 3274TIP3    H231238   3.884   4.563  15.041 -1.7015 -1.4640  1.3337
 3275TIP3   OH231239   4.525   2.564   5.744  0.5978  0.2572  0.6527
 3275TIP3    H131240   4.590   2.604   5.687  1.2911 -2.2630 -0.4977
 3275TIP3    H231241   4.530   2.470   5.723 -2.3941 -0.2149  1.5791
 3276TIP3   OH231242   5.229   6.511  11.037 -0.6498 -0.5620  0.4785
 3276TIP3    H131243   5.216   6.449  10.965 -0.2739 -0.5242  0.3803
 3276TIP3    H231244   5.257   6.457  11.111  0.3607 -0.4346  0.2034
 3277TIP3   OH231245   4.343   0.980  12.360 -0.5293  0.1579 -0.5142
 3277TIP3    H131246   4.392   1.037  12.420 -0.3791 -0.4866 -0.0092
 3277TIP3    H231247   4.257   1.021  12.352  0.1258  1.3911 -1.5315
 3278TIP3   OH231248   3.585   4.740  10.416  0.2665 -0.4705 -0.0469
 3278TIP3    H131249   3.526   4.668  10.396 -0.3542  0.3874 -1.4759
 3278TIP3    H231250   3.562   4.808  10.353  2.8872 -0.1672 -0.8074
 3279TIP3   OH231251   6.248   1.297   3.287 -0.2816  0.7447  0.0123
 3279TIP3    H131252   6.279   1.251   3.364 -1.1897  1.0430  0.5671
 3279TIP3    H231253   6.328   1.322   3.240  0.2533 -0.0394  0.4934
 3280TIP3   OH231254   5.877   0.000   4.021  0.3991  0.4976 -0.5256
 3280TIP3    H131255   5.787  -0.013   3.990 -0.8465  3.7699  1.1587
 3280TIP3    H231256   5.901   0.087   3.988  2.2137  0.5075  0.6461
 3281TIP3   OH231257   5.986   5.384   1.085  0.1216  0.2178 -0.2022
 3281TIP3    H131258   5.894   5.362   1.100  0.2106  1.4955  3.0958
 3281TIP3    H231259   5.983   5.467   1.037 -0.5549  1.0886  1.2617
 3282TIP3   OH231260   3.031   3.222  16.662 -0.4260 -0.3419  0.1753
 3282TIP3    H131261   3.086   3.196  16.588  0.5595 -2.5004  1.5691
 3282TIP3    H231262   3.063   3.309  16.686 -0.5849  0.2889 -1.7031
 3283TIP3   OH231263   5.769   6.179  13.854  0.2056  0.2417  1.0741
 3283TIP3    H131264   5.714   6.251  13.884  2.1665  2.0462  0.6116
 3283TIP3    H231265   5.812   6.147  13.934 -0.5057 -0.3009  1.2482
 3284TIP3   OH231266   2.375   1.016  13.312  0.3917 -1.1046 -0.0446
 3284TIP3    H131267   2.416   0.969  13.239 -1.3675 -3.5589  0.4271
 3284TIP3    H231268   2.283   0.989  13.309 -0.1073  0.1843  2.0050
 3285TIP3   OH231269   4.959   5.200  13.333  0.1155 -0.1132  0.1908
 3285TIP3    H131270   4.928   5.211  13.423  0.8724 -1.0885  0.5814
 3285TIP3    H231271   4.967   5.105  13.321 -1.7700 -0.1508 -1.5379
 3286TIP3   OH231272   4.244   5.344  15.767 -0.6389 -0.1572 -0.1780
 3286TIP3    H131273   4.191   5.322  15.691 -2.5095 -0.9646  1.2743
 3286TIP3    H231274   4.227   5.437  15.782  0.5453  0.2690 -1.2952
 3287TIP3   OH231275   6.100   1.882   6.407 -0.6729  0.0425  0.4437
 3287TIP3    H131276   6.074   1.827   6.334  3.1133 -1.2941 -0.1564
 3287TIP3    H231277   6.072   1.834   6.485  0.9140 -1.9444 -0.1137
 3288TIP3   OH231278   3.674   0.246  15.751 -0.2622 -0.5698  0.1590
 3288TIP3    H131279   3.734   0.318  15.734  1.4547 -2.0288 -0.2883
 3288TIP3    H231280   3.588   0.281  15.732  0.6470  0.9423 -1.3975
 3289TIP3   OH231281   3.531   5.464   2.708 -0.4815  0.0239  0.5602
 3289TIP3    H131282   3.597   5.515   2.661 -1.2798 -0.9244 -1.7603
 3289TIP3    H231283   3.580   5.394   2.750  0.0658 -0.3890 -0.7211
 3290TIP3   OH231284   4.254   2.921  13.674  0.1320 -0.4902 -0.1032
 3290TIP3    H131285   4.177   2.972  13.646  0.1917 -0.2970  0.0848
 3290TIP3    H231286   4.234   2.895  13.764  0.5933  0.1669  0.1968
 3291TIP3   OH231287   4.414   4.645  16.020 -0.4791 -0.6395 -0.5833
 3291TIP3    H131288   4.415   4.730  15.975 -0.5633 -1.0911 -1.4495
 3291TIP3    H231289   4.357   4.659  16.096 -0.4512  0.0901 -0.6895
 3292TIP3   OH231290   4.218   2.457  11.994 -0.1430 -0.6250 -0.3545
 3292TIP3    H131291   4.243   2.447  12.085  0.8319  1.0608 -0.3963
 3292TIP3    H231292   4.124   2.475  11.996 -0.0039  0.0496  0.3794
 3293TIP3   OH231293   5.775   0.625  11.852  0.1643 -0.6650  0.1478
 3293TIP3    H131294   5.802   0.535  11.872 -2.3398 -1.4659  0.3533
 3293TIP3    H231295   5.807   0.640  11.763 -1.2445 -2.6433 -0.7638
 3294TIP3   OH231296   2.008   1.948   6.001  0.2785  0.0345 -0.4887
 3294TIP3    H131297   2.049   2.008   6.064  1.8550  0.2151 -1.6298
 3294TIP3    H231298   1.918   1.979   5.993  0.3300  0.6131  0.9225
 3295TIP3   OH231299   5.281   3.428  13.821  0.6349  0.0534 -0.0211
 3295TIP3    H131300   5.286   3.347  13.771 -0.3513 -1.4224  2.1490
 3295TIP3    H231301   5.187   3.447  13.827  0.4731 -1.2433  3.3039
 3296TIP3   OH231302   2.435   1.613   5.847 -0.5378  0.3193 -0.0902
 3296TIP3    H131303   2.474   1.696   5.875 -0.4806 -0.1982  1.4457
 3296TIP3    H231304   2.341   1.628   5.851 -0.5395  0.0680  1.0021
 3297TIP3   OH231305   1.296   2.752  10.674  0.4366 -0.0506  0.0408
 3297TIP3    H131306   1.372   2.700  10.702  0.4469 -0.3859 -0.5844
 3297TIP3    H231307   1.231   2.738  10.743  1.0883  0.6035  0.8134
 3298TIP3   OH231308   0.515   4.761  11.702  0.2385 -0.6372 -0.2782
 3298TIP3    H131309   0.561   4.841  11.727  1.6897 -0.8419 -2.1111
 3298TIP3    H231310   0.575   4.691  11.725  0.0403 -1.0386 -0.9683
 3299TIP3   OH231311   1.867   1.415   5.690 -0.4077 -0.2052 -0.1513
 3299TIP3    H131312   1.901   1.404   5.779 -0.9056  0.0522  0.0790
 3299TIP3    H231313   1.773   1.426   5.702 -0.1965  2.6739 -0.4526
 3300TIP3   OH231314   5.725   5.553  14.752  0.1668 -0.1975 -0.4234
 3300TIP3    H131315   5.765   5.466  14.746  1.0050  0.1170  0.2316
 3300TIP3    H231316   5.667   5.559  14.676  2.4747 -0.1405 -2.3010
 3301TIP3   OH231317   0.735   1.912   2.152 -0.5861 -0.5460 -0.1179
 3301TIP3    H131318   0.751   1.859   2.074 -0.0334 -2.9659  1.4941
 3301TIP3    H231319   0.822   1.929   2.188 -0.8714 -1.2647  1.0053
 3302TIP3   OH231320   0.537   5.422  16.630  0.0980 -0.2660  0.0172
 3302TIP3    H131321   0.625   5.384  16.628 -0.1382 -0.8852  0.8566
 3302TIP3    H231322   0.492   5.383  16.554  1.1105  1.5564 -1.6190
 3303TIP3   OH231323   2.053   2.548  11.631  0.0717  0.8539 -0.0682
 3303TIP3    H131324   2.010   2.467  11.606  2.3855 -1.1271  1.7883
 3303TIP3    H231325   2.048   2.604  11.553 -4.3533  0.2907 -0.4184
 3304TIP3   OH231326   2.646   2.250  14.087  0.3344 -0.1012  0.2850
 3304TIP3    H131327   2.586   2.244  14.013 -0.3502  1.4406  0.6755
 3304TIP3    H231328   2.597   2.212  14.160  0.6546 -0.7577  0.1706
 3305TIP3   OH231329   0.888   1.011  13.101  0.0768  0.2245  0.1494
 3305TIP3    H131330   0.813   0.985  13.047 -0.7231 -1.5100  1.9847
 3305TIP3    H231331   0.853   1.077  13.160  0.7067  1.3841 -0.7306
 3306TIP3   OH231332   0.073   3.434   0.454  0.0599 -0.0075 -0.4475
 3306TIP3    H131333   0.151   3.483   0.480  0.3210 -0.5375 -0.2085
 3306TIP3    H231334   0.042   3.477   0.374  0.6807  0.1244 -0.6200
 3307TIP3   OH231335   1.130   6.400   3.669  0.3481  1.1568  0.0729
 3307TIP3    H131336   1.180   6.337   3.617 -0.5560  0.9559 -0.5849
 3307TIP3    H231337   1.149   6.485   3.629  2.8080  1.5711  1.9255
 3308TIP3   OH231338   5.792   2.976   3.471 -0.3410  0.3013  0.3652
 3308TIP3    H131339   5.791   2.892   3.425 -1.4450  1.0117 -0.9856
 3308TIP3    H231340   5.831   2.957   3.556  0.9350 -1.2538 -0.5140
 3309TIP3   OH231341   5.299   5.812   5.424  0.3058  0.5185  0.4591
 3309TIP3    H131342   5.387   5.786   5.394 -0.5004 -3.6160  1.1210
 3309TIP3    H231343   5.316   5.872   5.497  2.4825  1.5563 -0.7813
 3310TIP3   OH231344   2.076   1.844  14.056 -0.5800 -0.4064  0.0552
 3310TIP3    H131345   2.083   1.826  13.962  0.1760 -1.1093  0.2402
 3310TIP3    H231346   2.052   1.760  14.095 -0.8495 -0.1284  0.5042
 3311TIP3   OH231347   1.249   0.483   1.181 -0.2254 -0.6142 -0.0854
 3311TIP3    H131348   1.290   0.564   1.212 -0.2729  0.1282 -1.8385
 3311TIP3    H231349   1.156   0.496   1.197 -0.0541 -1.4056  1.9085
 3312TIP3   OH231350   4.504   3.492  12.444 -0.3140  0.9829  0.1390
 3312TIP3    H131351   4.451   3.419  12.473 -0.7838  1.0712 -0.4801
 3312TIP3    H231352   4.579   3.452  12.399 -0.5839  0.8804 -0.2219
 3313TIP3   OH231353   5.250   5.091  11.785  0.0621 -0.0115  0.1885
 3313TIP3    H131354   5.341   5.078  11.808 -0.1811 -1.7584  0.2608
 3313TIP3    H231355   5.217   5.152  11.851  0.7136 -0.8131  1.2818
 3314TIP3   OH231356   2.123   4.156   6.215 -0.4184 -0.0067 -0.7471
 3314TIP3    H131357   2.215   4.182   6.222 -1.0971  2.1736  1.4021
 3314TIP3    H231358   2.126   4.068   6.177  2.5786 -0.3331 -0.0246
 3315TIP3   OH231359   2.231   0.424  16.718  0.0801  0.3376  0.3611
 3315TIP3    H131360   2.210   0.474  16.640  0.1174 -1.3361 -0.7808
 3315TIP3    H231361   2.323   0.400  16.707 -0.0838 -0.4301  0.6022
 3316TIP3   OH231362   3.332   5.625   5.558 -0.4620 -0.2989  0.2457
 3316TIP3    H131363   3.261   5.640   5.621  1.5551  1.8670  2.2003
 3316TIP3    H231364   3.325   5.532   5.536 -4.7639  0.0794 -0.9094
 3317TIP3   OH231365   2.642   6.778  16.757  0.2707  0.1941 -0.3444
 3317TIP3    H131366   2.682   6.806  16.674  0.5732  0.1894 -0.1999
 3317TIP3    H231367   2.715   6.773  16.819  0.2009 -0.7530 -0.3218
 3318TIP3   OH231368   5.182   0.790   0.543  0.2188 -0.3466 -0.2262
 3318TIP3    H131369   5.197   0.874   0.499 -0.5045 -0.1589 -0.1430
 3318TIP3    H231370   5.144   0.814   0.627 -0.8962 -0.7696 -0.5840
 3319TIP3   OH231371   5.450   4.353   2.197  0.4940  0.4754  0.0105
 3319TIP3    H131372   5.421   4.401   2.275 -1.0615  2.9019 -1.8906
 3319TIP3    H231373   5.543   4.372   2.190  0.9180 -0.6671  1.7769
 3320TIP3   OH231374   6.171   2.064  11.353 -0.3419  0.7683 -0.2239
 3320TIP3    H131375   6.128   2.001  11.411 -1.6325 -0.7584 -2.6527
 3320TIP3    H231376   6.255   2.081  11.394 -0.5459 -1.4437  1.2991
 3321TIP3   OH231377   2.110   0.050   0.493  0.0211 -0.0980 -0.1560
 3321TIP3    H131378   2.143  -0.039   0.503  0.6342 -0.2886 -3.1492
 3321TIP3    H231379   2.019   0.039   0.466  0.4288  0.1200 -1.6633
 3322TIP3   OH231380   6.736   1.405   2.986 -0.6728  0.4107  0.1444
 3322TIP3    H131381   6.667   1.470   2.974  0.1920  1.0034 -2.1761
 3322TIP3    H231382   6.816   1.457   2.996 -0.1906 -0.2923 -0.0015
 3323TIP3   OH231383   6.700   0.677  15.585 -0.1825  0.0917  0.1764
 3323TIP3    H131384   6.627   0.616  15.593  0.5429 -0.8863 -0.5060
 3323TIP3    H231385   6.721   0.678  15.492  1.3552 -0.4533  0.4912
 3324TIP3   OH231386   2.117   3.779  14.058 -0.2986 -0.5308  0.1741
 3324TIP3    H131387   2.200   3.826  14.051 -2.2599  3.1294 -1.5035
 3324TIP3    H231388   2.138   3.690  14.031  3.9330 -1.2674  4.5755
 3325TIP3   OH231389   2.325   6.082  16.423  0.6594  0.3022  0.7746
 3325TIP3    H131390   2.320   6.157  16.364  0.4228  0.0695  0.4998
 3325TIP3    H231391   2.361   6.011  16.370 -0.6795 -0.2525  0.5627
 3326TIP3   OH231392   4.044   4.922  11.063  0.0510 -0.2306  0.0043
 3326TIP3    H131393   4.070   4.841  11.107 -1.9895 -0.8093  0.2196
 3326TIP3    H231394   3.996   4.894  10.985 -0.0003  0.7810 -0.3507
 3327TIP3   OH231395   3.550   0.556  15.689 -0.3581 -0.0202  0.1756
 3327TIP3    H131396   3.543   0.647  15.717 -0.8841  0.1099 -0.3449
 3327TIP3    H231397   3.580   0.562  15.598  1.3007 -0.4291  0.6583
 3328TIP3   OH231398   1.963   3.045  15.067 -0.0920  0.4863  0.0070
 3328TIP3    H131399   1.954   2.971  15.007 -2.1963  0.0224  0.7824
 3328TIP3    H231400   1.896   3.107  15.039  1.2465  1.8742 -0.2527
 3329TIP3   OH231401   5.012   5.189   1.545 -0.5368  0.4775 -0.9227
 3329TIP3    H131402   5.021   5.174   1.451 -0.9933 -0.9693 -0.7667
 3329TIP3    H231403   4.927   5.150   1.567 -0.6997  1.3209 -0.0101
 3330TIP3   OH231404   6.071   5.787  14.276  0.0488 -0.3215  0.8504
 3330TIP3    H131405   6.086   5.692  14.271  3.3690  0.1279 -0.2341
 3330TIP3    H231406   6.144   5.820  14.328  1.6622  2.0307 -2.5780
 3331TIP3   OH231407   4.006   6.003  13.526  0.6066 -0.7031 -0.3765
 3331TIP3    H131408   4.012   6.092  13.560 -0.4436 -0.2327 -1.3354
 3331TIP3    H231409   4.092   5.986  13.486  0.5316  0.2280 -0.9661
 3332TIP3   OH231410   4.687   5.413   6.124 -0.5866 -0.7665 -0.1571
 3332TIP3    H131411   4.748   5.399   6.197 -0.4325 -1.1387 -0.3528
 3332TIP3    H231412   4.653   5.501   6.137 -0.3512 -0.7300  0.2129
 3333TIP3   OH231413   0.295   6.135  10.532  0.3967  0.3177 -0.5964
 3333TIP3    H131414   0.232   6.064  10.518  0.1308  0.4467 -0.0577
 3333TIP3    H231415   0.303   6.142  10.627 -0.6515  1.9673 -0.6054
 3334TIP3   OH231416   0.601   6.571   5.228  0.0591  0.5751 -0.6993
 3334TIP3    H131417   0.677   6.628   5.234  0.4294  0.3887 -2.8928
 3334TIP3    H231418   0.619   6.515   5.152 -1.4497 -0.7090 -0.1643
 3335TIP3   OH231419   3.332   2.989  16.768  0.6162 -0.4196  0.7311
 3335TIP3    H131420   3.395   3.058  16.751  0.8628 -0.7033  0.4902
 3335TIP3    H231421   3.332   2.935  16.689 -1.9521  1.1317 -0.4528
 3336TIP3   OH231422   4.567   3.718   3.649 -0.3990  0.1288 -0.0054
 3336TIP3    H131423   4.605   3.787   3.594  2.1027 -1.7623 -0.8492
 3336TIP3    H231424   4.549   3.646   3.588  2.3843 -2.0180  1.4942
 3337TIP3   OH231425   2.692   5.195  11.735 -0.6337 -0.4290  0.0145
 3337TIP3    H131426   2.612   5.143  11.733 -0.5946 -0.4854 -0.1246
 3337TIP3    H231427   2.712   5.211  11.643 -0.7786  0.0402  0.0661
 3338TIP3   OH231428   5.307   5.920  12.633  0.3846 -0.8305 -0.7057
 3338TIP3    H131429   5.291   5.837  12.587 -0.6822 -0.3223 -1.3074
 3338TIP3    H231430   5.256   5.913  12.714 -0.1881 -0.5476 -1.0326
 3339TIP3   OH231431   5.925   2.188   3.950  0.2621 -0.3351  0.1829
 3339TIP3    H131432   5.841   2.166   3.990  0.1750 -1.0083 -0.3408
 3339TIP3    H231433   5.990   2.166   4.017 -0.0226  1.2017  0.9901
 3340TIP3   OH231434   4.643   1.315  12.161  0.0033  0.9859  0.4337
 3340TIP3    H131435   4.578   1.377  12.128 -0.7178  0.2896  0.5327
 3340TIP3    H231436   4.601   1.230  12.156  1.3252  0.3608 -0.5793
 3341TIP3   OH231437   3.569   6.008   6.268  0.3293 -0.4813  0.0148
 3341TIP3    H131438   3.661   5.985   6.281  1.1355  2.2086 -0.2556
 3341TIP3    H231439   3.548   5.976   6.181  1.3930 -0.1441 -0.3895
 3342TIP3   OH231440   5.507   4.301  13.443  0.1740  0.3008  0.1614
 3342TIP3    H131441   5.446   4.234  13.474  0.6833  0.0591  0.6652
 3342TIP3    H231442   5.477   4.381  13.486 -0.4195  0.4022 -0.4204
 3343TIP3   OH231443   5.953   4.316  10.804  0.0815 -0.0288 -0.0634
 3343TIP3    H131444   5.978   4.345  10.716 -1.2661 -0.0020 -0.4682
 3343TIP3    H231445   5.872   4.266  10.790 -0.0159 -0.2400  1.1426
 3344TIP3   OH231446   1.875   3.242  13.078 -0.1935 -0.5092 -0.8419
 3344TIP3    H131447   1.969   3.257  13.067 -0.1006 -0.9287 -0.6431
 3344TIP3    H231448   1.865   3.146  13.076 -0.5006 -0.4998  0.0346
 3345TIP3   OH231449   3.895   0.115  15.105 -0.1001  0.5987 -0.0961
 3345TIP3    H131450   3.871   0.029  15.139  0.8986 -0.5962 -2.2706
 3345TIP3    H231451   3.826   0.136  15.043  0.6847  0.4271 -1.0478
 3346TIP3   OH231452   3.547   6.461   1.098 -0.3090 -0.1607 -0.3408
 3346TIP3    H131453   3.569   6.448   1.006 -0.2100 -1.0420 -0.2062
 3346TIP3    H231454   3.621   6.511   1.133 -0.5165  0.4879 -0.8105
 3347TIP3   OH231455   2.765   4.256   2.451 -0.0182  0.0495 -0.8834
 3347TIP3    H131456   2.749   4.162   2.456 -0.4506  0.1851  0.9335
 3347TIP3    H231457   2.763   4.276   2.357 -0.1574 -1.6972 -1.2805
 3348TIP3   OH231458   1.246   4.448   0.023  0.1100  0.0606  0.4313
 3348TIP3    H131459   1.209   4.392  -0.045 -2.1798  1.2315  0.6366
 3348TIP3    H231460   1.298   4.389   0.078  0.6752 -1.1805 -1.3591
 3349TIP3   OH231461   3.914   2.049  15.488 -0.1346 -0.4869 -0.3679
 3349TIP3    H131462   3.970   1.987  15.440 -1.3570 -1.1975 -0.9310
 3349TIP3    H231463   3.910   2.014  15.577 -1.3204 -1.6134 -0.8320
 3350TIP3   OH231464   6.428   4.842   2.467 -0.4299  0.2563 -0.2865
 3350TIP3    H131465   6.503   4.898   2.447  0.6980  0.1613  3.0532
 3350TIP3    H231466   6.441   4.764   2.412  1.6588  0.4743 -0.1745
 3351TIP3   OH231467   0.135   1.529   0.499 -0.4982 -0.1248  0.4920
 3351TIP3    H131468   0.144   1.460   0.433 -0.7965  0.1813  0.1221
 3351TIP3    H231469   0.186   1.602   0.463 -1.9835  0.6159 -0.2103
 3352TIP3   OH231470   1.778   1.073   6.458 -0.1003 -0.2701  0.3118
 3352TIP3    H131471   1.821   1.009   6.515 -1.9367 -1.2594  0.6518
 3352TIP3    H231472   1.684   1.060   6.473 -0.5522  2.0788 -0.0888
 3353TIP3   OH231473   5.296   2.414   0.267  0.1890  0.7140  0.2502
 3353TIP3    H131474   5.359   2.411   0.195  0.4001 -1.3506  0.4722
 3353TIP3    H231475   5.229   2.476   0.238  0.5757  0.3672 -1.4582
 3354TIP3   OH231476   1.314   6.088   2.439  0.2977  0.0827  0.0437
 3354TIP3    H131477   1.408   6.102   2.432  0.4281 -0.0369  1.2967
 3354TIP3    H231478   1.301   6.060   2.529 -0.6167 -2.5269 -0.7905
 3355TIP3   OH231479   2.985   3.862   1.552  0.1031 -1.0192  0.2879
 3355TIP3    H131480   2.928   3.815   1.613  0.2814 -0.0464  1.2305
 3355TIP3    H231481   3.062   3.806   1.544  0.3415 -0.8766  1.4417
 3356TIP3   OH231482   0.467   3.957   5.529  0.3726 -0.1667 -0.0950
 3356TIP3    H131483   0.523   4.029   5.559  0.1644  0.8564 -1.9804
 3356TIP3    H231484   0.423   3.991   5.451  0.9842 -2.6231 -1.6528
 3357TIP3   OH231485   3.662   4.157  12.997 -0.3530 -0.5760  0.0703
 3357TIP3    H131486   3.741   4.178  12.947  1.0077  0.1436  2.3973
 3357TIP3    H231487   3.673   4.064  13.020  0.6713 -0.0874  1.7271
 3358TIP3   OH231488   4.565   0.927  11.289 -0.4985 -0.6847 -0.2424
 3358TIP3    H131489   4.646   0.880  11.312 -1.6603 -2.4552  0.4114
 3358TIP3    H231490   4.556   0.915  11.195 -0.6072 -1.4807 -0.1317
 3359TIP3   OH231491   2.781   6.381   4.544  0.3692  0.1657 -0.4891
 3359TIP3    H131492   2.769   6.454   4.484  0.3712  0.2824 -0.3474
 3359TIP3    H231493   2.787   6.304   4.487  0.9425  0.3443 -0.6732
 3360TIP3   OH231494   2.792   0.959  14.754 -0.5879  0.3673 -0.3387
 3360TIP3    H131495   2.720   0.909  14.793  0.8802 -0.6624  1.2044
 3360TIP3    H231496   2.809   1.029  14.817 -0.1345  0.5084 -0.6143
 3361TIP3   OH231497   0.248   4.776   0.434  0.0645  0.1986  0.3388
 3361TIP3    H131498   0.327   4.778   0.488  1.1825  0.2106 -1.2370
 3361TIP3    H231499   0.176   4.791   0.496  1.2970  0.3180  1.7887
 3362TIP3   OH231500   6.206   4.236   3.650  0.1931  0.2100  0.3703
 3362TIP3    H131501   6.292   4.251   3.690  0.4030 -0.2539  0.1040
 3362TIP3    H231502   6.160   4.180   3.713  0.4209 -0.2890  0.0981
 3363TIP3   OH231503   4.795   5.556   4.048  0.1361 -0.9394  0.1188
 3363TIP3    H131504   4.716   5.517   4.086 -0.5341 -0.0147 -0.3116
 3363TIP3    H231505   4.839   5.483   4.004 -1.0721 -1.2373 -0.6245
 3364TIP3   OH231506   6.502   4.653  16.085 -0.2697  0.0120 -0.2248
 3364TIP3    H131507   6.409   4.676  16.090 -0.5570 -0.8416 -1.2074
 3364TIP3    H231508   6.524   4.624  16.173 -1.2378 -0.8075 -0.2320
 3365TIP3   OH231509   6.613   5.027   3.071  0.3604  0.1094  0.2277
 3365TIP3    H131510   6.553   5.069   3.132 -0.0609  2.6330 -1.7799
 3365TIP3    H231511   6.638   4.945   3.114 -2.4058  0.2369  2.3038
 3366TIP3   OH231512   3.527   2.571  16.662 -0.0281  0.4057 -0.5171
 3366TIP3    H131513   3.545   2.518  16.740  0.7896 -0.2312 -1.1143
 3366TIP3    H231514   3.604   2.628  16.653  1.0817 -1.2372 -2.2083
 3367TIP3   OH231515   2.035   1.830  16.826  0.5965 -0.2147 -0.0373
 3367TIP3    H131516   2.069   1.759  16.771 -0.3590 -0.2796 -0.5665
 3367TIP3    H231517   2.009   1.787  16.908 -0.4475 -0.5916 -0.5396
 3368TIP3   OH231518   3.910   4.088  12.561 -0.6845 -0.1470 -0.2309
 3368TIP3    H131519   3.945   4.001  12.542  0.0997  0.2062 -0.4299
 3368TIP3    H231520   3.933   4.140  12.484 -2.8677 -0.2213 -1.0322
 3369TIP3   OH231521   0.067   6.681  11.426 -0.3235  0.2338 -0.5943
 3369TIP3    H131522   0.061   6.773  11.452  0.7878  0.2517 -0.3352
 3369TIP3    H231523   0.108   6.683  11.339 -1.4704  0.0287 -1.1667
 3370TIP3   OH231524   6.195   1.455   0.316  0.0502 -0.1605 -0.3882
 3370TIP3    H131525   6.172   1.422   0.229 -1.2381 -0.3011 -0.0158
 3370TIP3    H231526   6.283   1.490   0.306 -0.1646  0.0274 -1.8055
 3371TIP3   OH231527   4.380   5.256   5.537 -0.5090 -0.1169 -0.0911
 3371TIP3    H131528   4.285   5.251   5.540 -0.6566  0.3752 -2.2164
 3371TIP3    H231529   4.409   5.225   5.623 -2.5984  0.6542  0.9435
 3372TIP3   OH231530   1.106   0.439   0.291  0.3580 -0.1207 -0.1697
 3372TIP3    H131531   1.173   0.498   0.325 -0.6531  0.4495  0.9026
 3372TIP3    H231532   1.024   0.469   0.331 -0.3121 -1.7390 -0.2444
 3373TIP3   OH231533   5.066   1.839   0.796 -0.0305 -0.1763 -0.4102
 3373TIP3    H131534   5.152   1.832   0.839 -0.7488  0.1065  1.1187
 3373TIP3    H231535   5.036   1.749   0.787  0.7369 -0.3362 -1.6661
 3374TIP3   OH231536   4.103   0.180  12.284  0.1496  0.6695 -0.5505
 3374TIP3    H131537   4.069   0.164  12.196  0.8721 -0.7577 -0.5982
 3374TIP3    H231538   4.069   0.266  12.308 -1.4057  0.3635 -1.5621
 3375TIP3   OH231539   5.120   0.266   0.311  0.4049  0.2583 -0.3687
 3375TIP3    H131540   5.081   0.353   0.298  0.1900  0.0736 -1.0414
 3375TIP3    H231541   5.051   0.205   0.283  0.5588 -0.1278  0.0860
 3376TIP3   OH231542   0.395   1.813   1.662 -0.6587  1.0629  0.6342
 3376TIP3    H131543   0.450   1.779   1.592 -1.0539  0.3690  0.6540
 3376TIP3    H231544   0.454   1.818   1.738 -0.4399  1.0130  0.4692
 3377TIP3   OH231545   3.390   1.271   0.012  0.0340  0.2905 -0.6100
 3377TIP3    H131546   3.427   1.321   0.086  0.6529 -0.1671 -0.6041
 3377TIP3    H231547   3.394   1.180   0.041 -1.4086  0.2447 -0.4846
 3378TIP3   OH231548   0.313   0.731   4.855  0.6518 -0.7181  0.4697
 3378TIP3    H131549   0.342   0.781   4.932 -1.9731  1.2475  0.3341
 3378TIP3    H231550   0.295   0.644   4.890 -0.0559  0.0014  2.0290
 3379TIP3   OH231551   2.542   0.234  13.076  0.3292 -0.2161 -0.1531
 3379TIP3    H131552   2.575   0.253  13.163 -0.9922  1.1296  0.1013
 3379TIP3    H231553   2.447   0.244  13.084  0.1629 -0.2792 -1.7015
 3380TIP3   OH231554   1.411   0.150  10.769 -0.3376 -0.0234 -0.5884
 3380TIP3    H131555   1.393   0.056  10.780  0.7756 -0.0965  0.9951
 3380TIP3    H231556   1.415   0.162  10.674  0.3154 -1.7670 -0.8350
 3381TIP3   OH231557   2.582   0.759  16.107 -0.0161 -0.0310  0.0777
 3381TIP3    H131558   2.663   0.729  16.065 -0.0987  0.9064 -0.7697
 3381TIP3    H231559   2.611   0.797  16.190  0.0440 -2.9106  1.5186
 3382TIP3   OH231560   3.991   0.781  17.142 -0.5466  0.0841 -0.3999
 3382TIP3    H131561   3.899   0.804  17.130 -0.4798  0.2479 -0.6105
 3382TIP3    H231562   3.997   0.751  17.233 -0.8633 -0.2095 -0.4783
 3383TIP3   OH231563   2.393   6.570  10.501  0.2081 -0.0504 -0.0386
 3383TIP3    H131564   2.461   6.569  10.434 -0.5506  0.9291 -0.8470
 3383TIP3    H231565   2.382   6.478  10.526 -0.0077 -0.5387 -1.8031
 3384TIP3   OH231566   3.609   3.129   3.187  0.0864  0.6462 -0.1445
 3384TIP3    H131567   3.603   3.134   3.092  0.1092  0.1234 -0.1759
 3384TIP3    H231568   3.679   3.191   3.210  2.0600 -1.2213 -0.7250
 3385TIP3   OH231569   6.476   0.485  15.687 -0.1451  0.0105  0.6697
 3385TIP3    H131570   6.394   0.450  15.650  0.9779 -2.4489  0.2876
 3385TIP3    H231571   6.474   0.460  15.779  0.8424 -1.5149  0.3100
 3386TIP3   OH231572   1.214   5.745   5.830  0.1281  0.3309  0.1641
 3386TIP3    H131573   1.129   5.713   5.863  0.7756  2.3808  4.5648
 3386TIP3    H231574   1.207   5.840   5.835  1.6154  0.6919 -2.7824
 3387TIP3   OH231575   4.086   4.742  15.833  0.2283  0.3720  0.8443
 3387TIP3    H131576   4.009   4.685  15.841 -0.8811  1.4494 -1.2853
 3387TIP3    H231577   4.148   4.691  15.781 -0.2691  0.5982  0.0062
 3388TIP3   OH231578   5.261   4.690   3.341 -0.1162 -0.3038  0.5342
 3388TIP3    H131579   5.281   4.750   3.269 -0.4805 -0.6963  0.0971
 3388TIP3    H231580   5.339   4.635   3.348 -0.1711 -0.4189  0.2760
 3389TIP3   OH231581   2.942   5.863   2.722 -0.8189  0.2589  0.0419
 3389TIP3    H131582   2.988   5.812   2.655  1.2199 -1.8563  2.8177
 3389TIP3    H231583   2.992   5.943   2.730 -0.3681 -0.0006 -0.1275
 3390TIP3   OH231584   4.064   5.788   3.036 -0.2141 -0.5277  0.1021
 3390TIP3    H131585   4.058   5.796   2.941 -1.2963  0.0410  0.2012
 3390TIP3    H231586   4.155   5.762   3.053  0.6513  1.5432 -0.9639
 3391TIP3   OH231587   6.598   2.503   3.799  0.4246  0.1237 -0.2614
 3391TIP3    H131588   6.595   2.427   3.741  2.5553 -0.3399  0.1510
 3391TIP3    H231589   6.535   2.565   3.762 -0.7596 -1.5030 -1.0637
 3392TIP3   OH231590   0.113   6.509   2.760  0.0904  0.2755  0.4036
 3392TIP3    H131591   0.180   6.445   2.785 -1.6388 -1.0428  1.9597
 3392TIP3    H231592   0.149   6.552   2.682  2.5027 -0.6891  0.8892
 3393TIP3   OH231593   2.156   6.172   1.271  0.2727  0.4202 -0.3073
 3393TIP3    H131594   2.202   6.203   1.193  1.4018 -2.1337 -0.7706
 3393TIP3    H231595   2.213   6.197   1.344  0.3464  0.8348 -0.5060
 3394TIP3   OH231596   1.684   3.637  14.569 -0.2421 -0.4812 -0.0665
 3394TIP3    H131597   1.755   3.589  14.527  0.4285  1.2572 -1.0275
 3394TIP3    H231598   1.724   3.719  14.596 -1.4717 -0.2190  1.0462
 3395TIP3   OH231599   4.505   5.536  13.881 -0.0615 -0.2792 -0.3704
 3395TIP3    H131600   4.523   5.464  13.821  0.1065  1.2950 -2.3033
 3395TIP3    H231601   4.427   5.578  13.845  0.1961  0.8674  0.3628
 3396TIP3   OH231602   5.007   5.985   5.153 -0.2954  0.1485  0.6420
 3396TIP3    H131603   4.994   6.076   5.178  0.4306  0.2116  0.7885
 3396TIP3    H231604   4.952   5.974   5.075 -0.8268  0.5490  0.9499
 3397TIP3   OH231605   6.139   1.027  13.903 -0.4583  0.0250  0.2253
 3397TIP3    H131606   6.077   1.032  13.975 -1.7452  0.3367 -0.8704
 3397TIP3    H231607   6.106   0.957  13.847  0.9980 -0.7977  0.3454
 3398TIP3   OH231608   1.584   3.280  12.167  0.4266  0.3178 -0.2034
 3398TIP3    H131609   1.668   3.278  12.213  0.6512  0.2202 -0.6158
 3398TIP3    H231610   1.532   3.345  12.215  1.1703  1.3004 -0.6779
 3399TIP3   OH231611   0.950   2.915  10.742 -0.1734 -0.2010  0.0297
 3399TIP3    H131612   0.983   2.958  10.664 -0.3988  0.7500  0.4408
 3399TIP3    H231613   0.855   2.912  10.729 -0.1238 -1.0627 -0.2243
 3400TIP3   OH231614   0.380   2.781   6.257  0.6423 -0.1269 -0.6027
 3400TIP3    H131615   0.469   2.808   6.279 -0.0556  1.9267 -0.1037
 3400TIP3    H231616   0.355   2.721   6.328  1.5412 -0.5490 -0.6357
 3401TIP3   OH231617   0.432   1.744   4.617  0.1531  0.1292  0.6045
 3401TIP3    H131618   0.387   1.684   4.558 -0.2245 -0.2676  1.3000
 3401TIP3    H231619   0.433   1.827   4.569 -2.5689  0.5412  1.1256
 3402TIP3   OH231620   1.122   4.295  15.817  0.3784  0.2709  0.3357
 3402TIP3    H131621   1.081   4.258  15.739  0.7418  0.4731  0.0451
 3402TIP3    H231622   1.187   4.230  15.843  0.7048  0.4990  0.0902
 3403TIP3   OH231623   1.771   3.526   3.773  0.0085  0.3183 -0.1534
 3403TIP3    H131624   1.740   3.579   3.846 -0.3208  0.7377 -0.5928
 3403TIP3    H231625   1.866   3.522   3.784  0.2510  2.4735 -1.0739
 3404TIP3   OH231626   0.446   3.572  12.227  0.0149  0.7810 -0.1637
 3404TIP3    H131627   0.395   3.504  12.183  1.1486  0.4717 -1.0463
 3404TIP3    H231628   0.446   3.546  12.319 -0.3046  0.0757 -0.3565
 3405TIP3   OH231629   2.896   3.288   5.018  0.2546 -0.0260  0.2255
 3405TIP3    H131630   2.835   3.217   5.036 -0.5817  0.1532 -1.6567
 3405TIP3    H231631   2.940   3.262   4.937 -0.5477  1.8433 -0.8820
 3406TIP3   OH231632   4.693   6.140  14.842 -0.3702 -0.7273 -0.2227
 3406TIP3    H131633   4.787   6.157  14.846 -0.4900 -0.3858  1.7848
 3406TIP3    H231634   4.668   6.120  14.932 -3.1089  4.3268  0.5327
 3407TIP3   OH231635   4.218   5.939   4.369 -0.4468  0.4037  0.0264
 3407TIP3    H131636   4.268   5.861   4.393  3.0374  1.2936 -3.3871
 3407TIP3    H231637   4.146   5.907   4.316 -0.1891 -0.5892  0.2598
 3408TIP3   OH231638   4.495   6.055  14.669 -0.1121 -0.5531  0.4214
 3408TIP3    H131639   4.554   6.068  14.743 -0.1401  0.4145  0.2864
 3408TIP3    H231640   4.546   6.083  14.593 -1.0527  1.2362  0.4037
 3409TIP3   OH231641   4.798   0.038   3.092  0.4663 -0.1168 -0.6656
 3409TIP3    H131642   4.742   0.099   3.140  1.6915  0.6627 -0.1777
 3409TIP3    H231643   4.767  -0.048   3.118 -0.2185  0.2941 -0.0673
 3410TIP3   OH231644   3.608   1.231  16.756  0.2183  0.2552 -0.3110
 3410TIP3    H131645   3.632   1.221  16.663 -1.9557  1.8225 -1.1329
 3410TIP3    H231646   3.514   1.249  16.754 -0.2123 -1.2844  2.3575
 3411TIP3   OH231647   2.596   1.761   4.349  0.6173 -0.2924 -0.4323
 3411TIP3    H131648   2.630   1.673   4.339  2.1213  0.3559 -1.4148
 3411TIP3    H231649   2.588   1.774   4.443 -0.5477 -1.7783 -0.2838
 3412TIP3   OH231650   0.979   4.252  14.880 -0.0678 -0.0871 -0.0338
 3412TIP3    H131651   0.966   4.164  14.843 -2.3399  0.0384  0.3331
 3412TIP3    H231652   1.041   4.239  14.952  0.5184 -1.1806 -0.7124
 3413TIP3   OH231653   1.549   0.782   0.199 -0.1000  0.5468  0.2710
 3413TIP3    H131654   1.530   0.772   0.293 -0.6640  0.8516  0.2007
 3413TIP3    H231655   1.586   0.870   0.192 -1.4524  1.1337  0.0322
 3414TIP3   OH231656   1.693   1.117  16.675  0.1392  0.2164 -0.1698
 3414TIP3    H131657   1.622   1.181  16.673 -0.1788 -0.0915  0.6797
 3414TIP3    H231658   1.656   1.042  16.723  0.7824 -0.2549 -0.3950
 3415TIP3   OH231659   1.931   6.581  11.489  0.0408 -0.3925  0.5270
 3415TIP3    H131660   1.930   6.616  11.578 -0.7252 -0.1237  0.4137
 3415TIP3    H231661   2.024   6.568  11.470  0.3981  1.7803  0.5061
 3416TIP3   OH231662   2.847   6.070  11.527  0.1570  0.0039 -0.5304
 3416TIP3    H131663   2.909   6.052  11.598 -0.4795 -0.5868 -0.1065
 3416TIP3    H231664   2.900   6.069  11.448  0.7172 -0.3274 -0.1575
 3417TIP3   OH231665   1.129   1.431   6.428  0.0894 -0.0635 -0.3368
 3417TIP3    H131666   1.217   1.418   6.462 -0.0730  0.2392  0.2033
 3417TIP3    H231667   1.100   1.343   6.403 -0.4294 -0.5852  1.8771
 3418TIP3   OH231668   4.662   4.407   5.453  0.2355 -0.4614 -0.2636
 3418TIP3    H131669   4.568   4.418   5.467  0.1864 -1.3005  0.0794
 3418TIP3    H231670   4.672   4.318   5.419  0.4582  0.9365 -4.5370
 3419TIP3   OH231671   2.556   0.549   4.488  0.1768 -0.3771  0.2406
 3419TIP3    H131672   2.574   0.550   4.394  2.2416  1.8809  0.5383
 3419TIP3    H231673   2.461   0.555   4.495 -0.0568 -1.1032 -1.6796
 3420TIP3   OH231674   2.370   5.757   2.658  0.0168 -0.1097 -0.4125
 3420TIP3    H131675   2.299   5.694   2.643  1.1212 -1.3426 -0.5823
 3420TIP3    H231676   2.438   5.707   2.704  1.1074  0.8412 -0.9393
 3421TIP3   OH231677   5.092   5.536  15.042  0.1236  0.4065 -0.6016
 3421TIP3    H131678   5.183   5.565  15.040  0.0376  0.6588 -1.1712
 3421TIP3    H231679   5.089   5.463  14.979  0.1178 -0.1743  0.0588
 3422TIP3   OH231680   0.027   6.724   3.015 -0.4023 -0.4674  0.6715
 3422TIP3    H131681  -0.031   6.795   2.990  0.1652 -0.3175 -0.2425
 3422TIP3    H231682  -0.018   6.644   2.988  0.9880 -0.2608 -2.6841
 3423TIP3   OH231683   5.005   4.834  12.436 -0.1412  0.3114 -0.0598
 3423TIP3    H131684   4.927   4.888  12.427 -2.0075 -2.1653  0.2952
 3423TIP3    H231685   4.973   4.743  12.431  2.7908 -0.8246 -0.5594
 3424TIP3   OH231686   5.446   4.146  13.897 -0.3544  0.1648  0.2609
 3424TIP3    H131687   5.427   4.229  13.854 -1.1038 -0.7814 -1.3186
 3424TIP3    H231688   5.460   4.084  13.825  2.4545 -0.6299  1.3437
 3425TIP3   OH231689   0.626   0.182  16.479 -0.1588 -0.2219 -0.1067
 3425TIP3    H131690   0.589   0.221  16.400  0.9218 -1.2252 -1.1681
 3425TIP3    H231691   0.594   0.092  16.479  0.0825 -0.3138  0.4344
 3426TIP3   OH231692   4.085   3.077   1.667 -0.3277  0.1309 -0.0074
 3426TIP3    H131693   4.049   3.118   1.588 -0.0132  1.7680  0.6605
 3426TIP3    H231694   4.042   3.122   1.739  0.6736 -0.1316  0.7786
 3427TIP3   OH231695   6.507   1.250  13.384  0.0973  0.2725  0.1120
 3427TIP3    H131696   6.532   1.200  13.306 -0.1660  0.0711  0.1545
 3427TIP3    H231697   6.590   1.282  13.420  0.1717  0.8985 -0.6017
 3428TIP3   OH231698   1.630   5.876  15.291 -0.2996  0.3325 -0.0575
 3428TIP3    H131699   1.609   5.943  15.357 -1.1487 -1.4312  1.5373
 3428TIP3    H231700   1.566   5.890  15.221 -0.5926  1.0302  0.3431
 3429TIP3   OH231701   0.372   4.627  11.512 -0.2132 -0.2670 -0.8874
 3429TIP3    H131702   0.426   4.672  11.578  0.3229 -1.6876 -0.3219
 3429TIP3    H231703   0.383   4.680  11.433 -0.5924  1.2912  0.0356
 3430TIP3   OH231704   4.408   0.246   3.456  0.1954 -0.3242 -0.1160
 3430TIP3    H131705   4.468   0.266   3.528 -1.3065  1.0174  0.8490
 3430TIP3    H231706   4.401   0.150   3.457  2.0624 -0.5032 -0.0985
 3431TIP3   OH231707   0.813   6.553  14.317 -0.2517 -0.0966 -0.2405
 3431TIP3    H131708   0.876   6.597  14.260  0.4834 -0.9366 -0.0952
 3431TIP3    H231709   0.783   6.478  14.265  0.4415 -0.8801  0.4746
 3432TIP3   OH231710   6.398   6.588   4.893  0.8181  0.4410  0.1131
 3432TIP3    H131711   6.318   6.537   4.906  1.7378 -1.4794 -1.1964
 3432TIP3    H231712   6.459   6.554   4.958  1.5222 -0.3934 -0.9371
 3433TIP3   OH231713   4.461   2.675   5.010 -0.6029  0.9439 -0.2692
 3433TIP3    H131714   4.407   2.652   4.934 -0.2133  0.0790 -0.2968
 3433TIP3    H231715   4.439   2.609   5.076  0.1711  0.7861 -0.1623
 3434TIP3   OH231716   2.454   3.474   3.141 -0.6629 -0.0486 -0.8413
 3434TIP3    H131717   2.417   3.478   3.229  1.0205  1.1229 -0.1389
 3434TIP3    H231718   2.478   3.564   3.121  2.1007 -0.7594 -1.0740
 3435TIP3   OH231719   2.054   3.161  16.710 -0.0942  0.4971 -0.2804
 3435TIP3    H131720   2.085   3.245  16.674  0.1868  0.7704  0.5778
 3435TIP3    H231721   2.021   3.183  16.797 -2.8235  0.2414 -1.1433
 3436TIP3   OH231722   5.248   5.122   5.000 -0.4446 -0.2606 -0.2761
 3436TIP3    H131723   5.335   5.087   4.983 -0.8926 -1.3671 -0.3894
 3436TIP3    H231724   5.262   5.193   5.062  0.4754 -0.7895  0.1425
 3437TIP3   OH231725   5.024   3.210   4.943 -0.5375  0.3857 -0.2013
 3437TIP3    H131726   5.036   3.301   4.969  3.3088 -0.0593  0.0855
 3437TIP3    H231727   4.931   3.193   4.957 -0.7369  3.2518  3.0753
 3438TIP3   OH231728   4.498   0.949   5.386  0.0897  1.0433  0.8447
 3438TIP3    H131729   4.428   1.008   5.414 -1.0104 -0.2139  0.8710
 3438TIP3    H231730   4.452   0.874   5.348  1.4515  1.4468 -1.8419
 3439TIP3   OH231731   2.885   2.391   1.507 -0.3459  0.3459  0.0585
 3439TIP3    H131732   2.925   2.304   1.503  0.1854  0.5981 -0.2833
 3439TIP3    H231733   2.950   2.445   1.551 -0.4946  0.6620 -0.1071
 3440TIP3   OH231734   6.716   6.165  15.967 -0.0848  0.1135 -0.7408
 3440TIP3    H131735   6.732   6.152  15.873  0.7143  2.1419 -0.9275
 3440TIP3    H231736   6.685   6.080  15.997  0.1164 -0.7368 -2.7406
 3441TIP3   OH231737   1.455   5.116  11.357  0.9750 -0.4144  0.3249
 3441TIP3    H131738   1.400   5.191  11.378  3.0132  1.2382  0.1252
 3441TIP3    H231739   1.475   5.076  11.442 -0.4405 -1.0075  0.3991
 3442TIP3   OH231740   1.732   5.481   3.140  0.2345 -0.5022 -0.0059
 3442TIP3    H131741   1.736   5.494   3.234 -1.1554 -1.8917  0.2991
 3442TIP3    H231742   1.798   5.414   3.122  2.0048  1.2719 -0.3924
 3443TIP3   OH231743   3.080   0.724   5.340 -0.1764 -0.4550 -0.8639
 3443TIP3    H131744   3.060   0.676   5.420  0.1669 -0.3451 -0.7114
 3443TIP3    H231745   3.156   0.778   5.362 -0.3738 -0.0686 -1.1255
 3444TIP3   OH231746   0.510   3.003  13.097 -0.3748  0.5724  0.2147
 3444TIP3    H131747   0.423   3.042  13.090 -0.4622  0.4640  0.6653
 3444TIP3    H231748   0.494   2.916  13.135 -0.0213  0.7699  0.8230
 3445TIP3   OH231749   4.996   1.120  11.442  0.2078  0.5277 -0.0923
 3445TIP3    H131750   4.980   1.106  11.348 -2.4356  0.2533  0.3108
 3445TIP3    H231751   5.008   1.032  11.477 -2.0065  0.2880  0.2386
 3446TIP3   OH231752   4.503   0.577   0.296 -0.0815 -0.7154 -0.8205
 3446TIP3    H131753   4.599   0.580   0.289  0.1191  0.5184  1.5175
 3446TIP3    H231754   4.481   0.484   0.283  1.8597 -1.7511  2.2227
 3447TIP3   OH231755   6.326   4.722  11.461 -0.1396  0.3424 -0.9915
 3447TIP3    H131756   6.388   4.670  11.512 -0.3219 -0.3672 -1.4815
 3447TIP3    H231757   6.381   4.773  11.402 -0.0104 -0.2480 -1.3906
 3448TIP3   OH231758   3.742   2.801  15.134 -0.2876  0.9438  0.2418
 3448TIP3    H131759   3.703   2.726  15.178 -0.9613  0.8563 -0.4804
 3448TIP3    H231760   3.834   2.799  15.159 -0.4028  0.1630  0.6188
 3449TIP3   OH231761   2.727   6.180   2.044  0.1260  0.2804 -0.3936
 3449TIP3    H131762   2.713   6.261   2.093 -0.7253  2.0320 -3.2875
 3449TIP3    H231763   2.734   6.208   1.952  1.4839 -2.7790 -1.3612
 3450TIP3   OH231764   5.880   3.975  12.169 -0.1073  0.8501 -0.1853
 3450TIP3    H131765   5.934   3.904  12.205  0.1487  1.8485  1.4839
 3450TIP3    H231766   5.941   4.048  12.157 -0.4988  1.0193 -1.2606
 3451TIP3   OH231767   0.339   5.316  16.030  0.0536  0.1703  0.1267
 3451TIP3    H131768   0.251   5.303  15.995  0.3867 -0.3707 -0.5400
 3451TIP3    H231769   0.330   5.390  16.090 -1.1826 -0.9176  1.3591
 3452TIP3   OH231770   5.641   0.643  16.312 -0.3239  0.2085  0.7952
 3452TIP3    H131771   5.652   0.704  16.240  0.6024 -0.9771 -0.0870
 3452TIP3    H231772   5.586   0.691  16.375 -0.0085  1.7584 -0.0639
 3453TIP3   OH231773   3.927   0.728  11.676  0.4179 -0.2698  0.2870
 3453TIP3    H131774   3.938   0.782  11.754  0.4275  0.4711 -0.2140
 3453TIP3    H231775   4.009   0.739  11.627 -0.1121  0.3876 -0.4901
 3454TIP3   OH231776   5.334   5.393   2.486 -0.2858  0.4255  0.1750
 3454TIP3    H131777   5.330   5.352   2.400 -1.5620  1.1642 -0.1526
 3454TIP3    H231778   5.248   5.434   2.496 -0.0039  0.7052  1.6253
 3455TIP3   OH231779   1.756   1.299  10.486  0.2056  0.2253  0.0243
 3455TIP3    H131780   1.734   1.385  10.453 -1.5829  0.1148  0.8100
 3455TIP3    H231781   1.760   1.243  10.408  4.2549  1.4246 -0.8901
 3456TIP3   OH231782   2.333   5.390   1.857 -0.0198 -0.6268 -0.0427
 3456TIP3    H131783   2.244   5.358   1.871 -0.2404 -0.4379 -0.9266
 3456TIP3    H231784   2.330   5.432   1.771  0.3772  1.3310  0.8578
 3457TIP3   OH231785   6.226   1.999  11.086  0.3064 -0.1403  0.2333
 3457TIP3    H131786   6.261   2.080  11.052 -1.0103  0.2031 -0.3591
 3457TIP3    H231787   6.195   2.021  11.174 -0.4736  0.1235 -0.1030
 3458TIP3   OH231788   6.354   5.376  11.336  0.1927  0.5646  0.2493
 3458TIP3    H131789   6.317   5.370  11.248  0.7021 -0.4530  0.0793
 3458TIP3    H231790   6.436   5.326  11.330  1.1558  2.0138  0.8415
 3459TIP3   OH231791   4.952   1.726   2.821  0.0611 -0.3229  0.2286
 3459TIP3    H131792   4.980   1.817   2.832 -0.2691 -0.0639 -0.9999
 3459TIP3    H231793   5.033   1.676   2.820  0.2314 -0.0978  1.2516
 3460TIP3   OH231794   3.068   6.005  14.474  0.1955 -0.0907 -0.1490
 3460TIP3    H131795   3.055   5.922  14.427 -1.4747 -0.2520  0.5103
 3460TIP3    H231796   3.023   5.992  14.557 -1.2237  1.8968 -0.5352
 3461TIP3   OH231797   2.382   1.831   1.921 -0.1757  0.1185  0.0652
 3461TIP3    H131798   2.444   1.771   1.963 -0.8293 -2.1444 -2.0250
 3461TIP3    H231799   2.302   1.824   1.973 -0.2656 -0.8929 -0.2033
 3462TIP3   OH231800   0.731   1.697   2.388 -0.1428  0.2944  0.4944
 3462TIP3    H131801   0.659   1.752   2.354  0.5476  1.2312  0.5046
 3462TIP3    H231802   0.695   1.609   2.388 -1.0895  0.6555 -0.1080
 3463TIP3   OH231803   1.626   1.550   2.568 -0.0909 -0.4768 -0.2447
 3463TIP3    H131804   1.538   1.583   2.551 -0.3749 -0.5159  1.0494
 3463TIP3    H231805   1.663   1.534   2.482 -0.6135  1.4623 -0.8711
 3464TIP3   OH231806   0.270   3.466  14.664 -0.0849 -0.9529 -0.0641
 3464TIP3    H131807   0.179   3.494  14.673  0.6746  1.1954  2.1671
 3464TIP3    H231808   0.290   3.477  14.571 -1.5481  0.5139 -0.2481
 3465TIP3   OH231809   1.208   0.469   4.550 -0.4146 -0.1935  0.5588
 3465TIP3    H131810   1.199   0.388   4.499 -0.8836 -0.5240  1.1512
 3465TIP3    H231811   1.217   0.538   4.484 -1.3950 -0.5658  0.0076
 3466TIP3   OH231812   3.465   2.250   1.969 -0.3210  0.1262  0.0231
 3466TIP3    H131813   3.506   2.172   1.933 -0.8316 -0.1898  0.1163
 3466TIP3    H231814   3.518   2.273   2.045  1.3182  1.3230 -1.3991
 3467TIP3   OH231815   5.224   1.799   1.388  0.2996 -0.0793 -0.0442
 3467TIP3    H131816   5.231   1.894   1.379  0.7467 -0.1491 -0.4810
 3467TIP3    H231817   5.311   1.771   1.415  0.1463 -0.3556  0.1590
 3468TIP3   OH231818   1.552   4.319   4.551 -0.0309  0.4384 -0.4532
 3468TIP3    H131819   1.468   4.321   4.597 -0.7911 -0.7124 -1.6941
 3468TIP3    H231820   1.537   4.368   4.471  1.4959  3.0776  0.7323
 3469TIP3   OH231821   4.569   2.721  13.807 -0.3961  0.4721  0.0557
 3469TIP3    H131822   4.627   2.681  13.742 -1.9785  0.4002 -1.3837
 3469TIP3    H231823   4.482   2.687  13.787 -1.1833  1.6372  1.2567
 3470TIP3   OH231824   0.357   0.702   0.704  0.5063  0.1041 -0.0532
 3470TIP3    H131825   0.433   0.744   0.744 -0.9411 -0.8500  4.1464
 3470TIP3    H231826   0.376   0.608   0.709 -1.4141 -0.2456  2.4959
 3471TIP3   OH231827   2.884   5.571  12.944  0.6442 -0.2585  0.2759
 3471TIP3    H131828   2.931   5.652  12.966  0.8045 -0.5657  1.1348
 3471TIP3    H231829   2.912   5.551  12.855  0.9437  0.3985  0.2084
 3472TIP3   OH231830   6.231   2.632  16.746  0.3714  0.1638 -0.6639
 3472TIP3    H131831   6.156   2.664  16.695  0.8606  0.2093 -1.3733
 3472TIP3    H231832   6.306   2.647  16.689  0.7749 -1.0225 -0.4692
 3473TIP3   OH231833   4.226   5.885   0.256  0.1896 -0.6634  0.1213
 3473TIP3    H131834   4.181   5.802   0.271 -1.0593 -0.1126 -0.3812
 3473TIP3    H231835   4.318   5.862   0.246 -0.2107 -2.0532 -0.5579
 3474TIP3   OH231836   0.074   6.024   3.815 -0.1099  0.8324  0.5088
 3474TIP3    H131837   0.024   6.009   3.895 -0.0005  1.0408  0.6182
 3474TIP3    H231838   0.072   6.119   3.803 -0.0212  0.8122  0.3329
 3475TIP3   OH231839   3.459   1.848   0.365 -0.3249  0.0045 -0.9676
 3475TIP3    H131840   3.536   1.902   0.349 -0.9672  1.4463  0.5945
 3475TIP3    H231841   3.481   1.764   0.325  1.7835  0.5823 -1.1570
 3476TIP3   OH231842   5.870   2.774   1.961 -0.0922 -0.2044  0.4418
 3476TIP3    H131843   5.936   2.704   1.956 -0.4582 -0.4744 -1.1705
 3476TIP3    H231844   5.894   2.835   1.891 -0.3744  0.7771  1.1770
 3477TIP3   OH231845   3.240   1.521  14.115 -0.1924  0.8739 -0.2565
 3477TIP3    H131846   3.284   1.603  14.137 -2.5360  2.1014  0.1939
 3477TIP3    H231847   3.179   1.545  14.044  0.3699 -0.9075 -1.4135
 3478TIP3   OH231848   2.972   2.052   5.609  0.1897  0.3090 -0.0931
 3478TIP3    H131849   2.945   1.968   5.573  0.5875 -0.3095  0.9923
 3478TIP3    H231850   2.993   2.033   5.700  2.3897  1.1232 -0.3566
 3479TIP3   OH231851   4.101   4.354   6.075  0.4123  0.4693  0.0982
 3479TIP3    H131852   4.118   4.370   6.167 -0.4094  0.1473  0.3113
 3479TIP3    H231853   4.124   4.262   6.061  3.4137  1.2317 -0.7229
 3480TIP3   OH231854   2.140   2.157   0.922  0.2849 -0.0387  0.0883
 3480TIP3    H131855   2.065   2.181   0.868 -0.9293 -1.2671  1.1438
 3480TIP3    H231856   2.115   2.074   0.963  1.6916  0.1816  1.5089
 3481TIP3   OH231857   2.457   2.222  13.893 -0.0696 -0.0127  0.0498
 3481TIP3    H131858   2.404   2.283  13.842  0.1935  0.2376  0.0739
 3481TIP3    H231859   2.402   2.144  13.903 -1.6744  1.2963  2.5768
 3482TIP3   OH231860   2.401   0.329   4.031  0.0146 -0.0954 -0.4099
 3482TIP3    H131861   2.437   0.278   3.958 -0.2844  0.1787 -0.7504
 3482TIP3    H231862   2.367   0.263   4.091  0.5370 -0.3369 -0.3679
 3483TIP3   OH231863   5.280   1.033   0.022 -0.5348  0.6810 -0.1941
 3483TIP3    H131864   5.286   0.959   0.083 -1.1169  1.8948  1.3844
 3483TIP3    H231865   5.370   1.065   0.016 -0.0927 -0.6586 -1.6221
 3484TIP3   OH231866   3.319   4.031  11.793  0.0172 -0.0219 -0.8586
 3484TIP3    H131867   3.285   3.968  11.729  1.1462 -0.8841 -0.6332
 3484TIP3    H231868   3.386   4.080  11.745  1.1403 -0.9329 -0.2477
 3485TIP3   OH231869   3.850   3.020   4.552  0.2555  0.1375  0.5686
 3485TIP3    H131870   3.791   3.095   4.548 -0.1841 -0.0428  2.5827
 3485TIP3    H231871   3.845   2.991   4.643  0.7615 -2.0640 -0.0640
 3486TIP3   OH231872   4.933   0.576   3.558 -0.4226 -0.0667 -0.0842
 3486TIP3    H131873   4.973   0.654   3.520 -2.5852  0.5701 -1.1989
 3486TIP3    H231874   4.967   0.503   3.506 -0.7357  0.4672 -1.0495
 3487TIP3   OH231875   1.177   3.052  16.865 -0.0177  0.1579  0.6193
 3487TIP3    H131876   1.174   2.961  16.894  0.8656 -0.3521 -0.7855
 3487TIP3    H231877   1.258   3.058  16.814 -0.0358  1.7503  0.7293
 3488TIP3   OH231878   3.120   1.496   0.691  0.1030 -0.1589 -0.0118
 3488TIP3    H131879   3.091   1.483   0.782  0.5236  2.0387  0.4950
 3488TIP3    H231880   3.041   1.481   0.639 -0.6798  0.5393  0.9093
 3489TIP3   OH231881   1.471   6.693  16.143  0.1722  0.2167  0.6410
 3489TIP3    H131882   1.566   6.687  16.131  0.0283  1.3865 -1.7015
 3489TIP3    H231883   1.459   6.766  16.204  0.7752  1.2431 -0.4268
 3490TIP3   OH231884   0.960   1.475   3.082  0.1067 -0.9138  0.6001
 3490TIP3    H131885   1.015   1.397   3.081  0.8461 -0.4341 -1.3723
 3490TIP3    H231886   0.963   1.505   3.173  0.8053 -2.4673  1.1336
 3491TIP3   OH231887   3.405   3.700   3.995 -0.3875  0.0995  0.5022
 3491TIP3    H131888   3.415   3.795   3.985 -1.0038  0.2670  1.3041
 3491TIP3    H231889   3.482   3.673   4.045 -0.8531  0.3951  1.3986
 3492TIP3   OH231890   2.420   1.936   2.905  0.0854  0.3273 -0.2048
 3492TIP3    H131891   2.479   1.956   2.832 -1.3107 -0.5694 -1.6392
 3492TIP3    H231892   2.335   1.922   2.864 -1.1253  1.4022  1.7772
 3493TIP3   OH231893   0.179   4.701   3.360  0.2851 -0.2094 -0.1927
 3493TIP3    H131894   0.124   4.690   3.282  1.3889 -0.2713 -0.9873
 3493TIP3    H231895   0.209   4.792   3.355  2.0809 -0.7911 -1.0498
 3494TIP3   OH231896   4.766   1.511  13.378 -0.3604 -0.1767 -0.5592
 3494TIP3    H131897   4.758   1.573  13.305 -1.4528 -0.0711 -0.3692
 3494TIP3    H231898   4.680   1.512  13.419  0.2253 -0.2816  0.7047
 3495TIP3   OH231899   1.910   2.565   1.252  0.6768  0.3405  0.3602
 3495TIP3    H131900   1.959   2.486   1.273  0.5489 -1.0439 -3.7090
 3495TIP3    H231901   1.977   2.627   1.221  0.4354  0.5335  0.2193
 3496TIP3   OH231902   0.340   4.554  17.151 -0.4061  0.1840 -0.0919
 3496TIP3    H131903   0.401   4.540  17.224 -0.3044  1.5790  0.1187
 3496TIP3    H231904   0.307   4.467  17.131  0.4044 -0.3790  0.8894
 3497TIP3   OH231905   2.695   1.012  13.763 -0.3071  0.8334  0.0021
 3497TIP3    H131906   2.731   1.094  13.731 -0.0690  2.2278  3.3934
 3497TIP3    H231907   2.762   0.946  13.742  0.5091  1.8997 -0.8485
 3498TIP3   OH231908   0.763   2.999  11.348 -0.3009 -0.2179  0.4656
 3498TIP3    H131909   0.774   2.959  11.434 -3.4297 -1.1422  0.5569
 3498TIP3    H231910   0.777   2.927  11.286 -0.6894 -0.1891  0.3441
 3499TIP3   OH231911   0.664   5.465  13.689 -0.1689  0.8947  0.2455
 3499TIP3    H131912   0.612   5.462  13.770  1.2262  1.1071  1.1873
 3499TIP3    H231913   0.724   5.538  13.702  1.9629 -0.7476  0.2414
 3500TIP3   OH231914   5.756   3.251   5.418  0.2039 -0.0491  0.2827
 3500TIP3    H131915   5.745   3.273   5.325 -0.8460  0.0627  0.4277
 3500TIP3    H231916   5.688   3.186   5.435 -0.4184  0.8441  1.2869
 3501TIP3   OH231917   3.671   0.735   3.930  0.4521  0.2086 -0.0843
 3501TIP3    H131918   3.765   0.736   3.914  0.4926 -2.6316 -0.4638
 3501TIP3    H231919   3.632   0.748   3.843  0.4807  0.7607 -0.0189
 3502TIP3   OH231920   2.899   0.834  11.250  0.2142 -0.2288  0.4352
 3502TIP3    H131921   2.832   0.816  11.185  0.5838 -2.6909  0.6507
 3502TIP3    H231922   2.968   0.879  11.202 -0.8372  0.8475 -0.1313
 3503TIP3   OH231923   3.535   5.866  15.711  0.5251 -0.4712  0.8292
 3503TIP3    H131924   3.582   5.947  15.729  1.9333 -0.8953 -0.6254
 3503TIP3    H231925   3.448   5.879  15.747  0.7467  1.6444  0.6986
 3504TIP3   OH231926   6.005   1.356   0.583 -0.0494  0.1954  0.7946
 3504TIP3    H131927   6.092   1.339   0.548 -0.1223 -1.1696  1.2220
 3504TIP3    H231928   5.946   1.309   0.525 -0.2488 -1.2887  2.1411
 3505TIP3   OH231929   1.781   1.623  15.565 -0.4693  0.0454  0.2647
 3505TIP3    H131930   1.837   1.596  15.493  0.6897 -0.9018  1.4649
 3505TIP3    H231931   1.760   1.715  15.547  0.8677  0.2037 -0.6009
 3506TIP3   OH231932   6.683   5.752   1.655 -0.2779 -0.0109  0.1554
 3506TIP3    H131933   6.759   5.772   1.600 -0.2788  0.2221  0.2373
 3506TIP3    H231934   6.643   5.837   1.672 -0.5415 -0.1299  0.1377
 3507TIP3   OH231935   3.496   5.455  13.798 -0.2192 -0.0514  0.3737
 3507TIP3    H131936   3.532   5.509  13.868  0.1414 -1.2877  1.1768
 3507TIP3    H231937   3.538   5.488  13.718  1.0396 -0.0456  1.0145
 3508TIP3   OH231938   2.366   2.696  13.092 -0.2977 -0.0655  0.4818
 3508TIP3    H131939   2.452   2.731  13.069 -0.7208  0.1122 -0.9263
 3508TIP3    H231940   2.383   2.637  13.165  1.0638 -0.2331  0.0534
 3509TIP3   OH231941   6.129   1.381  15.873 -0.2805 -0.0467  0.1464
 3509TIP3    H131942   6.057   1.353  15.928 -1.2071  1.2579 -0.3516
 3509TIP3    H231943   6.197   1.315  15.886 -1.1571 -0.7219  1.4373
 3510TIP3   OH231944   0.296   2.928  15.840  0.0033  0.3081 -0.6324
 3510TIP3    H131945   0.269   2.841  15.811 -1.1069  0.4901 -0.2135
 3510TIP3    H231946   0.365   2.954  15.779  1.1267 -1.2929 -0.1199
 3511TIP3   OH231947   5.064   4.312  13.816  0.1084 -0.1233  0.1092
 3511TIP3    H131948   5.037   4.229  13.854  0.8149 -0.6521 -0.5120
 3511TIP3    H231949   5.100   4.289  13.730 -0.1799  0.8849 -0.3024
 3512TIP3   OH231950   6.133   6.613  15.052  0.7294 -0.1375  0.4606
 3512TIP3    H131951   6.210   6.593  14.999  1.2582  1.2264  0.6708
 3512TIP3    H231952   6.152   6.574  15.137 -0.0066 -2.1012 -0.2025
 3513TIP3   OH231953   1.307   6.502   3.241 -0.4495 -0.7719 -0.0168
 3513TIP3    H131954   1.389   6.464   3.209  0.4402  0.9426  0.1326
 3513TIP3    H231955   1.239   6.456   3.191  0.7755  0.3799 -2.9688
 3514TIP3   OH231956   0.933   2.431  13.472  0.2568  0.5508 -0.0043
 3514TIP3    H131957   0.849   2.448  13.514 -0.5105 -1.6965 -0.4801
 3514TIP3    H231958   0.945   2.504  13.411 -1.2712  0.9897  0.1873
 3515TIP3   OH231959   5.289   6.686   5.186 -0.0890 -0.3649 -0.0319
 3515TIP3    H131960   5.374   6.685   5.143  0.1089  0.7324  0.2975
 3515TIP3    H231961   5.300   6.629   5.263  0.2752 -0.4235 -0.1261
 3516TIP3   OH231962   6.127   4.753  14.988  0.5513  0.1464 -0.1511
 3516TIP3    H131963   6.169   4.808  15.053 -0.8332 -0.3419  1.2070
 3516TIP3    H231964   6.068   4.812  14.940  0.1052  0.1209  0.3649
 3517TIP3   OH231965   4.581   5.979  10.692  0.1355 -0.3099  0.1001
 3517TIP3    H131966   4.656   6.034  10.712  0.9518 -1.1193 -0.6441
 3517TIP3    H231967   4.619   5.895  10.665 -1.0765 -1.2486  1.2089
 3518TIP3   OH231968   1.785   1.906  13.836  0.4231 -0.4282 -0.5663
 3518TIP3    H131969   1.780   1.907  13.932 -1.2168 -1.7681 -0.5989
 3518TIP3    H231970   1.808   1.815  13.814  1.3659 -0.0023 -1.4484
 3519TIP3   OH231971   5.619   2.635   1.147 -0.0380  0.0041 -0.1590
 3519TIP3    H131972   5.566   2.710   1.118  1.0512  0.7295 -0.3454
 3519TIP3    H231973   5.598   2.626   1.240  0.5414  1.1793  0.1073
 3520TIP3   OH231974   5.496   0.137   5.069  0.2649  0.3215  0.3790
 3520TIP3    H131975   5.455   0.153   4.984  1.5653  1.8374  0.0037
 3520TIP3    H231976   5.531   0.222   5.096 -1.4003  0.2613  3.1806
 3521TIP3   OH231977   5.815   0.706  14.008 -0.3561 -0.2439  0.0004
 3521TIP3    H131978   5.865   0.739  14.083 -1.6109  0.6083  0.4958
 3521TIP3    H231979   5.792   0.616  14.033 -0.6447 -0.0158  0.5915
 3522TIP3   OH231980   6.371   6.003   4.682  0.0285  0.5067  0.0310
 3522TIP3    H131981   6.392   6.048   4.600  0.9537 -1.0861 -0.6648
 3522TIP3    H231982   6.407   6.059   4.750 -1.0412  2.0277 -0.6046
 3523TIP3   OH231983   0.460   1.276  16.677 -0.6255  0.0184  0.0415
 3523TIP3    H131984   0.397   1.337  16.714  1.2009  1.9051  0.2321
 3523TIP3    H231985   0.530   1.270  16.742  0.7843  0.3707 -1.3482
 3524TIP3   OH231986   0.067   6.056   1.674  0.2075  0.1713 -0.3042
 3524TIP3    H131987   0.117   6.024   1.600 -1.1068 -0.7520 -0.8376
 3524TIP3    H231988   0.018   6.131   1.640  1.7376  1.5377  0.4073
 3525TIP3   OH231989   2.208   5.125  15.435 -0.2077 -0.3683  0.1723
 3525TIP3    H131990   2.129   5.176  15.417 -0.1973 -0.7047 -0.8880
 3525TIP3    H231991   2.280   5.186  15.417 -0.2058  0.1708  1.8485
 3526TIP3   OH231992   0.447   4.829   3.623 -0.0969  0.1507  0.1527
 3526TIP3    H131993   0.507   4.758   3.603 -0.0885  0.8056 -2.4204
 3526TIP3    H231994   0.419   4.863   3.538 -0.9338  2.5273  1.2730
 3527TIP3   OH231995   4.708   2.263  14.100  0.2585  0.4490 -0.1719
 3527TIP3    H131996   4.638   2.325  14.077  0.3094  0.7107  0.3608
 3527TIP3    H231997   4.692   2.188  14.043 -1.0642  0.0816  0.6375
 3528TIP3   OH231998   4.242   4.450  16.601 -0.1373  0.2038 -0.4015
 3528TIP3    H131999   4.165   4.447  16.658 -0.0950 -3.2552 -0.2763
 3528TIP3    H232000   4.284   4.365  16.614  1.9992  0.7676 -2.8012
 3529TIP3   OH232001   1.513   1.457   1.714  0.2610 -0.0073  0.4669
 3529TIP3    H132002   1.510   1.412   1.798 -1.4105  0.6192  0.7829
 3529TIP3    H232003   1.537   1.547   1.736  0.0355  0.1068  0.2462
 3530TIP3   OH232004   5.975   2.931   0.038 -0.1982 -0.0665  0.5608
 3530TIP3    H132005   6.065   2.946   0.067  0.4854 -1.3849 -0.7102
 3530TIP3    H232006   5.928   3.011   0.063  1.5804  1.1537  0.2355
 3531TIP3   OH232007   4.309   2.908   3.892  0.3037 -0.1169 -0.1487
 3531TIP3    H132008   4.403   2.894   3.876  0.0801 -0.6663 -1.0193
 3531TIP3    H232009   4.266   2.877   3.812 -0.7877 -1.8624  1.0445
 3532TIP3   OH232010   6.029   1.769   4.302  0.0648 -0.7209 -0.0421
 3532TIP3    H132011   6.064   1.689   4.263  2.2397 -0.3789  1.0554
 3532TIP3    H232012   5.991   1.741   4.386  1.0356 -0.6051  0.4508
 3533TIP3   OH232013   6.034   3.120  13.223  0.8259  0.5228 -0.2270
 3533TIP3    H132014   6.037   3.100  13.317 -2.0315 -1.8069 -0.4737
 3533TIP3    H232015   5.952   3.167  13.211  0.1814 -0.8660 -1.7398
 3534TIP3   OH232016   2.647   0.378   1.927 -0.3104 -0.1118  0.0249
 3534TIP3    H132017   2.598   0.410   1.851 -0.8560  0.0603  0.4453
 3534TIP3    H232018   2.583   0.328   1.978 -0.4916  1.3797  1.3677
 3535TIP3   OH232019   6.364   3.979  12.361 -0.5113  0.3160  0.6651
 3535TIP3    H132020   6.319   3.980  12.445  0.0118 -0.7863  0.9692
 3535TIP3    H232021   6.452   3.948  12.380 -0.1851  0.6584 -0.1990
 3536TIP3   OH232022   3.634   1.921  12.587  0.0225 -0.0585  0.3574
 3536TIP3    H132023   3.714   1.932  12.639 -1.0103 -1.3916  2.3284
 3536TIP3    H232024   3.573   1.986  12.621 -0.2240 -0.0312 -0.1285
 3537TIP3   OH232025   0.424   4.766   0.671  0.1941 -0.3179  0.0283
 3537TIP3    H132026   0.487   4.837   0.667 -1.8529  1.5575 -2.1146
 3537TIP3    H232027   0.387   4.770   0.759 -0.8516  2.2841 -0.4395
 3538TIP3   OH232028   4.337   2.164  14.469  0.1727  0.3665  0.4065
 3538TIP3    H132029   4.254   2.183  14.511  0.8533  0.5913  1.6922
 3538TIP3    H232030   4.391   2.241  14.486 -0.0685  1.3096 -2.4442
 3539TIP3   OH232031   4.546   3.573  14.698 -0.1809 -0.0100 -1.0903
 3539TIP3    H132032   4.601   3.495  14.710 -0.1146  0.0126 -1.2431
 3539TIP3    H232033   4.525   3.573  14.604  2.1619  1.6983 -1.7166
 3540TIP3   OH232034   1.050   1.116  14.213 -0.3390 -0.8945  0.4824
 3540TIP3    H132035   1.099   1.058  14.271 -0.2034 -0.9360  0.3247
 3540TIP3    H232036   1.010   1.180  14.272 -0.5067 -1.1574  0.6593
 3541TIP3   OH232037   2.944   5.724  13.551 -0.3753 -0.1465  0.4110
 3541TIP3    H132038   2.988   5.776  13.484  1.8632 -0.5896  1.4349
 3541TIP3    H232039   2.965   5.768  13.633 -0.6902 -1.1538  1.0538
 3542TIP3   OH232040   5.252   2.798  10.980 -0.1133  0.2956  0.3097
 3542TIP3    H132041   5.274   2.857  10.908 -0.5975 -0.1942 -0.2517
 3542TIP3    H232042   5.253   2.711  10.941 -1.5976  0.1307  0.5951
 3543TIP3   OH232043   6.606   4.567  12.811 -0.1294  0.0243  0.1132
 3543TIP3    H132044   6.625   4.631  12.879 -0.7863  1.3009 -0.8492
 3543TIP3    H232045   6.585   4.487  12.858 -1.4346  1.1093  1.4667
 3544TIP3   OH232046   6.160   4.705   1.288 -0.1604 -0.2710 -0.2974
 3544TIP3    H132047   6.170   4.650   1.366 -0.6664 -0.3197 -0.2678
 3544TIP3    H232048   6.086   4.762   1.308  1.3181  1.5508  0.3544
 3545TIP3   OH232049   5.136   2.638   0.221 -0.5560 -0.2841  0.5518
 3545TIP3    H132050   5.064   2.631   0.284 -0.6429 -1.8324  0.3420
 3545TIP3    H232051   5.144   2.731   0.203 -2.7461 -0.0880  0.3194
 3546TIP3   OH232052   2.531   6.670   4.240  0.1222 -0.2816  0.2257
 3546TIP3    H132053   2.443   6.707   4.247 -0.1961 -0.5032 -1.8397
 3546TIP3    H232054   2.522   6.581   4.274 -0.8183 -0.7565 -1.1512
 3547TIP3   OH232055   6.405   3.248  11.208  0.1595 -0.3589  0.3723
 3547TIP3    H132056   6.336   3.306  11.176 -0.5879 -0.4811  1.7142
 3547TIP3    H232057   6.381   3.229  11.298  2.1142 -0.1818  0.9662
 3548TIP3   OH232058   5.237   0.718  11.635 -0.0285  0.1560 -1.0413
 3548TIP3    H132059   5.260   0.629  11.663 -0.1441  0.4673  0.0900
 3548TIP3    H232060   5.312   0.771  11.661 -0.3227  0.5251 -0.9365
 3549TIP3   OH232061   0.960   4.316   1.102 -0.2447  0.3391  0.2843
 3549TIP3    H132062   1.046   4.305   1.141 -0.3416 -0.4630  0.2771
 3549TIP3    H232063   0.976   4.362   1.020  0.1308  0.5482  0.4746
 3550TIP3   OH232064   5.978   5.120   0.267 -0.0142  0.2114  0.0632
 3550TIP3    H132065   5.898   5.155   0.227 -1.0284 -0.0962  1.7298
 3550TIP3    H232066   6.049   5.164   0.221 -1.1801  1.9106 -0.2059
 3551TIP3   OH232067   3.033   3.820  12.691 -0.3849  0.4277 -0.1347
 3551TIP3    H132068   3.117   3.861  12.671 -0.4408  0.6215  0.0291
 3551TIP3    H232069   2.983   3.888  12.736 -0.3900  0.1030  0.3581
 3552TIP3   OH232070   1.075   1.265  13.047 -0.3035  0.4180  0.0837
 3552TIP3    H132071   1.056   1.181  13.089  0.2120  0.2547 -0.0016
 3552TIP3    H232072   1.031   1.330  13.102  1.2042  0.3093  1.4813
 3553TIP3   OH232073   6.446   3.986  12.868 -0.2087 -0.7356 -0.6586
 3553TIP3    H132074   6.392   3.908  12.852 -1.3224  0.0372 -0.8550
 3553TIP3    H232075   6.424   4.045  12.795 -0.1535  0.1540  0.0295
 3554TIP3   OH232076   0.232   3.101   0.106  0.2113 -0.4444  0.1812
 3554TIP3    H132077   0.138   3.083   0.115 -0.1739  1.7424  1.2058
 3554TIP3    H232078   0.257   3.056   0.026 -1.9373 -0.3508 -0.6216
 3555TIP3   OH232079   6.070   3.345  12.278  0.4638  0.4414  0.1034
 3555TIP3    H132080   6.101   3.427  12.317 -0.3867  2.2841 -2.7761
 3555TIP3    H232081   6.003   3.373  12.215  0.5741 -2.4245 -1.4187
 3556TIP3   OH232082   3.474   3.315   3.326 -0.4570 -0.1535 -0.4936
 3556TIP3    H132083   3.487   3.235   3.275 -3.2657 -0.9943 -0.0491
 3556TIP3    H232084   3.418   3.289   3.399  1.1019  1.6207  1.4810
 3557TIP3   OH232085   2.499   1.566   4.694 -0.4796 -0.3436  0.5983
 3557TIP3    H132086   2.558   1.577   4.769  2.1482 -1.4759 -1.1580
 3557TIP3    H232087   2.501   1.651   4.650  0.4633 -0.5580  0.1860
 3558TIP3   OH232088   3.466   2.182   4.696  0.4927  0.5215  0.3490
 3558TIP3    H132089   3.510   2.238   4.759  1.3104  0.3242 -0.0367
 3558TIP3    H232090   3.431   2.243   4.631  0.7081  0.6384  0.3416
 3559TIP3   OH232091   4.935   1.252  14.053  0.5487  0.4775  0.6167
 3559TIP3    H132092   4.989   1.330  14.041  0.6935  0.1465 -1.2593
 3559TIP3    H232093   4.865   1.261  13.988  0.5157 -0.9064  0.4263
 3560TIP3   OH232094   2.430   0.763  10.071  0.3354 -0.2539 -0.3285
 3560TIP3    H132095   2.478   0.695  10.119  2.2954  1.0454 -0.3103
 3560TIP3    H232096   2.499   0.821  10.037 -1.1744  0.7130 -1.8872
 3561TIP3   OH232097   5.822   0.532   5.889  0.3631 -0.3396  0.1133
 3561TIP3    H132098   5.801   0.439   5.879  0.2566 -0.2147 -0.9537
 3561TIP3    H232099   5.835   0.563   5.800 -0.4044  0.8630  0.4043
 3562TIP3   OH232100   6.070   5.526  13.602  0.2734 -0.4376  0.5635
 3562TIP3    H132101   6.006   5.573  13.656  0.3844 -1.4723  1.6412
 3562TIP3    H232102   6.060   5.563  13.515  0.4062  1.6220  1.3651
 3563TIP3   OH232103   6.007   2.298   1.711  0.1814  0.0047 -0.4837
 3563TIP3    H132104   6.083   2.273   1.764 -0.6882 -0.8660  0.4066
 3563TIP3    H232105   5.953   2.220   1.709 -1.2033  0.9164 -0.1832
 3564TIP3   OH232106   2.021   1.307  15.084 -0.3188  0.0467  0.0992
 3564TIP3    H132107   1.961   1.368  15.128 -0.1896 -1.4488  2.5382
 3564TIP3    H232108   2.049   1.354  15.005 -3.2437  1.5409 -0.2117
 3565TIP3   OH232109   0.369   6.519   1.167 -0.5036  0.0129 -0.9482
 3565TIP3    H132110   0.306   6.588   1.190 -1.3994 -0.6025 -1.4720
 3565TIP3    H232111   0.315   6.451   1.127  0.5050 -0.5601 -1.3521
 3566TIP3   OH232112   2.706   3.359   4.601  0.3897 -0.0779  0.0276
 3566TIP3    H132113   2.703   3.268   4.632 -0.7171  0.1629  0.6645
 3566TIP3    H232114   2.799   3.377   4.590  0.6343 -1.2470  0.0260
 3567TIP3   OH232115   1.439   3.369  15.339 -0.4268  0.1643 -0.1926
 3567TIP3    H132116   1.466   3.379  15.247  0.6536  0.9494  0.1921
 3567TIP3    H232117   1.354   3.413  15.344 -0.9744 -0.7526 -1.0252
 3568TIP3   OH232118   5.550   5.611   1.873  0.3113 -0.1036  0.7695
 3568TIP3    H132119   5.555   5.704   1.896 -0.3633 -0.5323  2.9871
 3568TIP3    H232120   5.585   5.606   1.784 -0.4527  2.3760  0.2421
 3569TIP3   OH232121   1.134   3.016   1.779  0.0877 -0.0272  0.3633
 3569TIP3    H132122   1.106   3.001   1.689 -1.5706  0.1678  0.8175
 3569TIP3    H232123   1.159   2.929   1.810  1.3245  0.0051 -0.4683
 3570TIP3   OH232124   2.373   1.875  11.833 -0.1019  0.0811 -0.4770
 3570TIP3    H132125   2.409   1.816  11.899  3.0758  1.1003 -1.1061
 3570TIP3    H232126   2.361   1.821  11.755 -0.1032 -0.3302 -0.1915
 3571TIP3   OH232127   2.504   4.444   6.055  0.4686  0.3023 -0.0583
 3571TIP3    H132128   2.502   4.501   6.132  0.5933 -0.9952  0.9376
 3571TIP3    H232129   2.466   4.497   5.985 -1.3750  0.8933  1.3176
 3572TIP3   OH232130   3.622   1.041   2.189  0.0581  0.2741  0.2722
 3572TIP3    H132131   3.696   1.052   2.249  1.4603  0.0228 -1.3467
 3572TIP3    H232132   3.558   0.989   2.239  1.2497 -0.0833  1.4778
 3573TIP3   OH232133   5.613   6.043  16.484 -0.2729  0.0286 -0.0438
 3573TIP3    H132134   5.642   5.956  16.457  0.1155 -0.0762  0.6765
 3573TIP3    H232135   5.654   6.056  16.570 -0.4164  0.8752 -0.0926
 3574TIP3   OH232136   0.094   2.400   1.845  0.3124  0.7131  0.2606
 3574TIP3    H132137   0.151   2.454   1.899  0.5997 -1.4612  2.2953
 3574TIP3    H232138   0.018   2.382   1.901  0.3598 -1.1521 -0.2185
 3575TIP3   OH232139   2.808   2.401  15.317  0.1753 -0.4171  0.2868
 3575TIP3    H132140   2.716   2.403  15.292  0.2749 -0.0448 -0.0551
 3575TIP3    H232141   2.853   2.452  15.250  0.5959 -0.3618  0.6031
 3576TIP3   OH232142   5.135   5.188   4.632 -0.1818  1.4445  0.0895
 3576TIP3    H132143   5.075   5.246   4.679 -0.5389 -0.6201  2.3894
 3576TIP3    H232144   5.095   5.102   4.638  2.3948  0.1891  0.7171
 3577TIP3   OH232145   4.988   4.940   4.579 -0.2293 -0.2396 -0.1177
 3577TIP3    H132146   4.985   4.878   4.507  0.6954  0.9803 -1.2576
 3577TIP3    H232147   4.897   4.954   4.604 -0.5484 -0.7787 -0.9679
 3578TIP3   OH232148   2.993   5.874   2.393 -0.3466  0.4495  0.3098
 3578TIP3    H132149   2.899   5.890   2.400 -0.2292  0.8375  1.0286
 3578TIP3    H232150   3.028   5.956   2.358 -0.3529  0.0631 -0.6458
 3579TIP3   OH232151   3.759   2.195   1.612 -0.0167 -0.0967  0.0953
 3579TIP3    H132152   3.709   2.222   1.688 -1.1432  1.3080 -1.1002
 3579TIP3    H232153   3.696   2.148   1.557  0.9314 -1.6495  0.2709
 3580TIP3   OH232154   6.298   4.427   3.186  0.0911  0.1480 -0.0810
 3580TIP3    H132155   6.271   4.352   3.239 -0.2379  0.5183  0.2835
 3580TIP3    H232156   6.360   4.391   3.122 -0.9311 -0.6378 -0.6491
 3581TIP3   OH232157   0.407   2.290  16.777  0.4924 -0.4237  0.4065
 3581TIP3    H132158   0.321   2.332  16.773  0.5556 -0.3648 -0.5649
 3581TIP3    H232159   0.453   2.337  16.847  0.3728  0.7742 -0.2949
 3582TIP3   OH232160   0.005   6.322   0.559 -0.3726 -0.1361 -0.0316
 3582TIP3    H132161   0.097   6.312   0.534 -0.4188 -0.6820  0.0025
 3582TIP3    H232162  -0.022   6.405   0.520  0.0717 -0.0817 -0.2279
 3583TIP3   OH232163   6.167   4.897   3.101  0.0849 -0.1468  0.9791
 3583TIP3    H132164   6.183   4.911   3.194  1.4965  0.6851  0.6491
 3583TIP3    H232165   6.151   4.984   3.066  1.7195 -0.1510  0.1084
 3584TIP3   OH232166   6.468   5.941   4.959  0.4076 -0.4484  0.0419
 3584TIP3    H132167   6.433   5.898   5.037  0.2099 -0.6802 -0.1738
 3584TIP3    H232168   6.563   5.947   4.976  0.5127 -1.4343 -0.1417
 3585TIP3   OH232169   6.227   0.394   3.742 -0.1675 -0.0934 -0.0337
 3585TIP3    H132170   6.234   0.336   3.818 -0.0912  1.2058  0.9801
 3585TIP3    H232171   6.317   0.419   3.723 -0.0150 -1.6498 -1.5780
 3586TIP3   OH232172   3.533   6.343  10.758 -0.3153  0.0440  0.7812
 3586TIP3    H132173   3.528   6.292  10.678  1.5223  0.9090  0.0602
 3586TIP3    H232174   3.627   6.356  10.773 -0.6536  0.9492  2.3924
 3587TIP3   OH232175   5.748   5.284  12.289 -0.5024  0.2623 -0.1099
 3587TIP3    H132176   5.700   5.341  12.228 -0.9554  0.1581  0.1424
 3587TIP3    H232177   5.839   5.293  12.262 -0.7202 -0.0018 -0.9909
 3588TIP3   OH232178   5.015   1.130   5.758  0.0756  0.3254 -0.5760
 3588TIP3    H132179   4.994   1.080   5.679  1.8362 -1.5393  0.0382
 3588TIP3    H232180   5.104   1.162   5.743 -0.4957  2.1706 -0.3578
 3589TIP3   OH232181   3.924   6.605   4.615 -0.1682  0.2969  0.4184
 3589TIP3    H132182   3.922   6.561   4.531 -1.2066  0.8196  0.1511
 3589TIP3    H232183   3.854   6.564   4.666  0.5056 -0.0749  1.0645
 3590TIP3   OH232184   1.128   0.341  13.537  0.4637  0.1639  0.4672
 3590TIP3    H132185   1.074   0.402  13.587 -0.7510  0.4040 -1.0656
 3590TIP3    H232186   1.073   0.314  13.463  1.1500 -2.4033  0.7866
 3591TIP3   OH232187   1.001   4.507  16.153 -0.1512 -0.1882 -0.2124
 3591TIP3    H132188   1.075   4.446  16.155  1.6915  1.9138  0.5091
 3591TIP3    H232189   0.965   4.497  16.065  0.8824 -1.3952 -0.5379
 3592TIP3   OH232190   3.933   1.425   3.539  0.4252  0.1317  0.3481
 3592TIP3    H132191   3.945   1.405   3.632  0.9593  0.8086  0.4334
 3592TIP3    H232192   3.865   1.493   3.539  0.7077  0.4185  0.2800
 3593TIP3   OH232193   4.726   1.624  12.772  0.1668  0.1522 -0.2276
 3593TIP3    H132194   4.713   1.548  12.715 -0.1320  0.1302 -0.1312
 3593TIP3    H232195   4.811   1.659  12.745  0.8593 -0.8944  0.4954
 3594TIP3   OH232196   2.546   2.108  11.948  0.2415 -0.5799 -0.1724
 3594TIP3    H132197   2.536   2.153  12.032  3.0616 -1.9802  1.0647
 3594TIP3    H232198   2.463   2.063  11.934  0.3054 -1.8879  2.9057
 3595TIP3   OH232199   0.287   6.439   5.658  0.6676  0.9759  0.1191
 3595TIP3    H132200   0.304   6.527   5.692 -0.5509  0.8813  1.0610
 3595TIP3    H232201   0.241   6.395   5.729  2.3888 -0.8742  0.1788
 3596TIP3   OH232202   2.342   3.275   4.531  0.5017 -0.4959 -0.2379
 3596TIP3    H132203   2.249   3.260   4.549  0.2350 -0.9414 -1.7958
 3596TIP3    H232204   2.366   3.204   4.471  1.0973  1.1901 -2.1104
 3597TIP3   OH232205   0.987   4.056  14.220  0.8479  0.2966  0.4493
 3597TIP3    H132206   0.954   3.982  14.270 -0.4417 -0.9087 -1.9850
 3597TIP3    H232207   1.081   4.042  14.216  0.6739 -0.9996  0.4051
 3598TIP3   OH232208   1.599   5.858   3.704  0.2542 -0.1110  0.1269
 3598TIP3    H132209   1.588   5.807   3.623  0.3046 -2.2441  1.3884
 3598TIP3    H232210   1.551   5.939   3.687  0.1485 -0.5471 -1.9898
 3599TIP3   OH232211   0.056   5.479  12.999  0.4699  0.1759  0.3533
 3599TIP3    H132212   0.014   5.426  13.066  0.8467 -1.9510 -0.9845
 3599TIP3    H232213   0.009   5.457  12.918  1.0324  1.4714 -0.3560
 3600TIP3   OH232214   3.418   5.036  13.128 -0.1331  0.1124  0.3414
 3600TIP3    H132215   3.369   4.972  13.179  0.0982  0.9699  1.6979
 3600TIP3    H232216   3.504   5.041  13.170  0.5914 -0.2053 -1.0364
 3601TIP3   OH232217   6.557   2.555   4.183 -0.2293 -0.2036  0.2024
 3601TIP3    H132218   6.595   2.597   4.260  0.4747  0.3845 -0.4463
 3601TIP3    H232219   6.633   2.530   4.130 -0.6998 -0.7372 -0.2249
 3602TIP3   OH232220   1.267   1.778  13.804 -0.0773 -0.4979 -0.0215
 3602TIP3    H132221   1.320   1.847  13.845  1.1611 -0.7647 -1.1185
 3602TIP3    H232222   1.312   1.697  13.827 -1.4206 -0.9638  1.0970
 3603TIP3   OH232223   4.733   3.790   1.187 -0.0547  0.1750  0.4120
 3603TIP3    H132224   4.820   3.832   1.186  0.2363 -0.4308  0.0362
 3603TIP3    H232225   4.702   3.798   1.097  0.4431 -1.3161  0.0906
 3604TIP3   OH232226   3.395   0.673  13.867 -0.0736  0.0709 -0.3066
 3604TIP3    H132227   3.312   0.642  13.905 -0.5409  2.5114  0.8664
 3604TIP3    H232228   3.460   0.652  13.934  0.1458 -0.9901 -0.8221
 3605TIP3   OH232229   2.183   4.515   4.955  0.4587  0.3973  0.1690
 3605TIP3    H132230   2.220   4.590   4.907  0.8726 -0.8987 -1.6604
 3605TIP3    H232231   2.235   4.510   5.035  2.0542  0.6572 -0.7864
 3606TIP3   OH232232   1.370   0.053  14.267  0.0941  0.4752  0.0942
 3606TIP3    H132233   1.278   0.029  14.261 -0.4873  2.8041 -2.6284
 3606TIP3    H232234   1.417  -0.020  14.226 -0.5989 -0.2669  0.5956
 3607TIP3   OH232235   1.792   3.979   3.356 -0.4539 -0.5284 -0.1117
 3607TIP3    H132236   1.705   3.977   3.397 -0.2193  0.8525  0.5055
 3607TIP3    H232237   1.792   4.060   3.304 -0.1032 -1.3410 -1.4236
 3608TIP3   OH232238   1.439   2.692   5.899 -0.0116  0.1244  1.2034
 3608TIP3    H132239   1.381   2.627   5.861 -1.9470  2.0781  0.6298
 3608TIP3    H232240   1.507   2.706   5.833  0.3011 -1.0916  1.2435
 3609TIP3   OH232241   1.737   6.313  15.466  0.2780  0.2668 -0.5306
 3609TIP3    H132242   1.767   6.227  15.438 -0.1310 -0.5582  1.4509
 3609TIP3    H232243   1.805   6.345  15.525  0.2189  1.1340 -0.9073
 3610TIP3   OH232244   6.175   3.512   5.073 -0.1349 -0.0750  0.1753
 3610TIP3    H132245   6.151   3.430   5.116 -0.0843 -0.2980 -0.2181
 3610TIP3    H232246   6.096   3.539   5.027 -0.1392  0.0783  0.2715
 3611TIP3   OH232247   5.171   0.059  14.209 -0.1595  0.0778  0.1910
 3611TIP3    H132248   5.172   0.105  14.293 -0.2848 -1.0730  0.8379
 3611TIP3    H232249   5.236   0.105  14.156  0.6254  0.2159  1.2480
 3612TIP3   OH232250   2.659   6.419  11.257 -0.1215 -0.7372 -1.0282
 3612TIP3    H132251   2.655   6.509  11.288  4.7709  0.0588 -2.0112
 3612TIP3    H232252   2.676   6.367  11.336  1.6982 -0.1121 -0.9687
 3613TIP3   OH232253   4.862   5.393  14.213 -0.0317  0.5794  0.2637
 3613TIP3    H132254   4.778   5.437  14.222  0.8225  2.1171  1.0986
 3613TIP3    H232255   4.920   5.438  14.275  1.7986  0.5523 -1.3342
 3614TIP3   OH232256   4.011   0.345   1.668  0.2719  0.2170  0.8691
 3614TIP3    H132257   4.064   0.408   1.620 -1.0503 -0.7461 -2.0805
 3614TIP3    H232258   4.070   0.310   1.735  2.8296  0.4460 -1.1112
 3615TIP3   OH232259   1.526   2.767  14.722  0.0540  0.3056 -0.0089
 3615TIP3    H132260   1.554   2.730  14.638  0.0023  1.0606 -0.3652
 3615TIP3    H232261   1.597   2.826  14.747  0.4500 -0.5308  0.8918
 3616TIP3   OH232262   5.567   4.600   3.880  0.1663 -0.4789 -0.1171
 3616TIP3    H132263   5.652   4.597   3.836  0.8854 -1.4018  1.2676
 3616TIP3    H232264   5.509   4.552   3.820  0.7529 -0.3773 -0.7880
 3617TIP3   OH232265   6.764   5.459   4.566  0.3889  1.3118 -0.2339
 3617TIP3    H132266   6.717   5.434   4.487  1.1012 -1.8026  0.2084
 3617TIP3    H232267   6.855   5.469   4.537  0.7274 -0.2615  0.2149
 3618TIP3   OH232268   4.112   3.853   1.026  0.3791 -0.4090 -0.1316
 3618TIP3    H132269   4.084   3.772   0.984  0.0484 -1.3424  1.7847
 3618TIP3    H232270   4.030   3.895   1.053  0.5700 -1.8905  3.2036
 3619TIP3   OH232271   6.148   1.072   0.558  0.5781 -0.5056 -0.2242
 3619TIP3    H132272   6.131   1.063   0.464  0.3415 -1.6795 -0.0762
 3619TIP3    H232273   6.194   1.156   0.565  1.9245 -1.0826 -1.5562
 3620TIP3   OH232274   4.179   3.343   3.258 -0.0590  0.0461  0.1275
 3620TIP3    H132275   4.117   3.287   3.306 -0.5328 -0.5432 -1.1148
 3620TIP3    H232276   4.123   3.404   3.210  0.2705 -0.7542 -1.3298
 3621TIP3   OH232277   5.705   4.645   1.573 -0.3559  0.4721  0.4733
 3621TIP3    H132278   5.767   4.608   1.636 -0.6945  0.2410  0.6736
 3621TIP3    H232279   5.686   4.573   1.513 -0.5987  0.4778  0.5428
 3622TIP3   OH232280   0.821   0.986   1.833 -0.4999 -0.4120 -0.3208
 3622TIP3    H132281   0.864   0.908   1.798  1.8631  1.3339 -1.5426
 3622TIP3    H232282   0.783   1.029   1.757  2.4150  2.0633 -0.5321
 3623TIP3   OH232283   6.766   2.734   2.190  0.6433 -0.3235  0.2108
 3623TIP3    H132284   6.835   2.766   2.248 -1.0730  0.6787  1.8200
 3623TIP3    H232285   6.753   2.643   2.217  0.1375  0.0167  1.1906
 3624TIP3   OH232286   6.538   1.723   5.199 -0.0876  0.1970  0.3241
 3624TIP3    H132287   6.615   1.727   5.143 -0.3160  0.6875  0.0473
 3624TIP3    H232288   6.559   1.654   5.263 -0.3151 -1.2580 -1.1022
 3625TIP3   OH232289   6.491   2.814   5.553  0.1384 -0.4270  0.6128
 3625TIP3    H132290   6.434   2.817   5.629 -0.2873 -0.3204  0.2953
 3625TIP3    H232291   6.579   2.824   5.588 -0.1044  0.3306  1.0295
 3626TIP3   OH232292   4.794   0.458   0.124 -0.3491 -0.3770  0.2054
 3626TIP3    H132293   4.882   0.471   0.090 -0.3886 -0.2956  0.1357
 3626TIP3    H232294   4.749   0.410   0.055 -0.6367  0.3942 -0.1492
 3627TIP3   OH232295   2.914   5.683   1.061  0.6512  0.5956 -0.0789
 3627TIP3    H132296   2.852   5.612   1.079 -0.3013  1.1062 -1.2039
 3627TIP3    H232297   2.994   5.657   1.107 -0.6254  0.3352  2.1503
 3628TIP3   OH232298   4.954   1.595  12.211 -0.1770  0.5829 -0.1676
 3628TIP3    H132299   5.012   1.653  12.162  0.1671  0.5415  0.1944
 3628TIP3    H232300   4.900   1.553  12.143 -0.2826  1.1598 -0.4435
 3629TIP3   OH232301   5.785   6.597  11.451  0.0618  0.2289  0.4036
 3629TIP3    H132302   5.760   6.506  11.434  0.7263  0.3682 -1.5236
 3629TIP3    H232303   5.718   6.649  11.405  1.2673  0.6541 -0.9268
 3630TIP3   OH232304   5.704   2.236  11.864  0.3447  0.1218 -0.7954
 3630TIP3    H132305   5.684   2.170  11.797  0.8658  0.3224 -1.1505
 3630TIP3    H232306   5.679   2.319  11.824 -1.3523  0.0690  0.0568
 3631TIP3   OH232307   4.254   3.383  12.876  0.1467 -0.1669 -0.5328
 3631TIP3    H132308   4.345   3.354  12.871 -0.1427 -1.2246  0.1874
 3631TIP3    H232309   4.213   3.348  12.797  0.2479 -0.0696 -0.6299
 3632TIP3   OH232310   6.285   4.902   1.057  0.3280 -0.2977  0.2678
 3632TIP3    H132311   6.226   4.951   1.114  1.0077  1.2592 -0.3208
 3632TIP3    H232312   6.330   4.841   1.116  0.2961  0.5878  1.2263
 3633TIP3   OH232313   6.217   3.310   0.595  0.5549 -0.0874 -0.1188
 3633TIP3    H132314   6.250   3.341   0.510 -1.3293  0.1515 -0.8355
 3633TIP3    H232315   6.149   3.247   0.572 -1.7824  1.8324  1.0748
 3634TIP3   OH232316   2.573   3.262  12.277  0.2337 -0.3811 -0.6158
 3634TIP3    H132317   2.660   3.227  12.258  0.1361 -0.2219 -1.3924
 3634TIP3    H232318   2.526   3.190  12.319  0.8454 -0.3559  0.1350
 3635TIP3   OH232319   6.010   4.675   2.814 -0.1263 -0.1791  0.2108
 3635TIP3    H132320   6.099   4.692   2.781 -0.3592  0.5978 -0.0282
 3635TIP3    H232321   6.024   4.616   2.888  0.5323 -0.6481 -0.2758
 3636TIP3   OH232322   0.867   6.111   3.205  0.3173  0.6994 -0.0690
 3636TIP3    H132323   0.798   6.175   3.225 -1.1104 -0.8271  0.1642
 3636TIP3    H232324   0.838   6.070   3.124  0.4400 -0.6404  0.5423
 3637TIP3   OH232325   3.321   5.024  14.480 -0.1715  0.3310 -0.0681
 3637TIP3    H132326   3.344   5.107  14.523 -1.7810  1.3684 -1.1126
 3637TIP3    H232327   3.249   4.989  14.532  1.1405 -1.0149  0.9751
 3638TIP3   OH232328   1.946   6.686   2.891 -0.2335  0.4593  0.2890
 3638TIP3    H132329   2.036   6.688   2.857  0.2975 -1.3725  1.4586
 3638TIP3    H232330   1.895   6.733   2.825  1.3899  0.5401 -0.9838
 3639TIP3   OH232331   0.252   5.648  16.585  0.2137 -0.1120 -0.0692
 3639TIP3    H132332   0.185   5.582  16.565 -0.1479  0.3965 -0.5583
 3639TIP3    H232333   0.306   5.652  16.506  0.3748  0.0096  0.0465
 3640TIP3   OH232334   4.935   5.276  12.842  0.1462  0.5844  0.6614
 3640TIP3    H132335   5.022   5.243  12.820  0.1192 -0.6056  2.1092
 3640TIP3    H232336   4.905   5.217  12.912 -2.3959  0.0844 -0.7259
 3641TIP3   OH232337   3.936   4.092   2.501  0.3154 -1.0524 -0.0594
 3641TIP3    H132338   3.854   4.048   2.528  0.3079 -0.5233  0.8401
 3641TIP3    H232339   3.938   4.171   2.555  0.3476  0.0461 -1.6316
 3642TIP3   OH232340   0.544   2.626  12.359  0.5586  0.4118  0.3206
 3642TIP3    H132341   0.579   2.606  12.446  2.0387 -0.2706 -0.3981
 3642TIP3    H232342   0.619   2.618  12.300 -0.4419  0.7178 -1.0522
 3643TIP3   OH232343   6.783   2.461  14.514 -0.5873  0.1520 -0.4339
 3643TIP3    H132344   6.737   2.394  14.565  0.3597 -0.2442 -0.0688
 3643TIP3    H232345   6.873   2.429  14.509 -0.9963 -0.9708 -4.1908
 3644TIP3   OH232346   2.069   5.519   3.045  0.1732  0.1758  0.1483
 3644TIP3    H132347   2.004   5.588   3.033 -0.2827 -0.3081 -0.2454
 3644TIP3    H232348   2.144   5.563   3.084 -0.9225  0.4984  2.0277
 3645TIP3   OH232349   3.999   2.833  11.269  0.2512 -0.6037 -0.5592
 3645TIP3    H132350   4.080   2.850  11.317  0.3998 -1.1752 -0.6018
 3645TIP3    H232351   4.025   2.831  11.177 -0.2089  1.5579 -0.7790
 3646TIP3   OH232352   6.450   0.444   4.670 -0.1977  0.7890  0.5368
 3646TIP3    H132353   6.357   0.448   4.647  0.0216  0.4431 -0.4615
 3646TIP3    H232354   6.492   0.409   4.592  0.7709  0.8978  1.0007
 3647TIP3   OH232355   4.190   3.464   2.567 -0.1135  0.3096 -0.4215
 3647TIP3    H132356   4.220   3.416   2.644  2.0857 -0.4896 -1.6619
 3647TIP3    H232357   4.218   3.409   2.493 -0.1871  2.0756 -1.8231
 3648TIP3   OH232358   2.371   4.039   4.847  0.0529 -0.5840 -0.0577
 3648TIP3    H132359   2.331   4.115   4.890  0.7098 -0.7264  0.8575
 3648TIP3    H232360   2.299   3.980   4.829 -0.2659 -0.4779  0.8072
 3649TIP3   OH232361   2.703   6.393   4.794 -0.6845 -0.1623 -0.2087
 3649TIP3    H132362   2.773   6.366   4.854 -1.0925 -2.2622 -0.6242
 3649TIP3    H232363   2.737   6.375   4.707 -1.0880  0.4722 -0.5087
 3650TIP3   OH232364   5.897   6.635   5.485  0.7510 -0.3620 -0.1842
 3650TIP3    H132365   5.944   6.718   5.493  0.5340 -0.4114  2.3229
 3650TIP3    H232366   5.825   6.642   5.548  0.8702 -2.5320  0.2758
 3651TIP3   OH232367   2.726   3.797   1.907  0.3352  0.4479 -0.1990
 3651TIP3    H132368   2.694   3.770   1.820  0.2958  0.2806 -0.1332
 3651TIP3    H232369   2.728   3.716   1.957 -0.6076  0.6944  0.2617
 3652TIP3   OH232370   2.125   3.228  12.404 -0.2101 -0.4243 -0.1279
 3652TIP3    H132371   2.064   3.300  12.416  0.4636  0.6781 -2.5428
 3652TIP3    H232372   2.200   3.250  12.459  1.2315  2.3961 -2.9259
 3653TIP3   OH232373   4.621   0.147  14.494  0.4760  0.0260 -0.3453
 3653TIP3    H132374   4.599   0.087  14.566 -0.0462  2.1825  1.3885
 3653TIP3    H232375   4.716   0.158  14.500  0.3328  0.9164  0.6815
 3654TIP3   OH232376   6.424   3.533  14.906 -0.2997 -0.5732  0.5323
 3654TIP3    H132377   6.413   3.547  14.812  2.2338  2.0123  0.4807
 3654TIP3    H232378   6.365   3.596  14.947  2.4994  2.3165  0.4642
 3655TIP3   OH232379   0.078   5.552  13.339 -0.3655  0.4165  0.8726
 3655TIP3    H132380   0.025   5.497  13.281 -1.2182 -0.0264  2.0114
 3655TIP3    H232381   0.033   5.546  13.424  0.1359  2.0174  1.2843
 3656TIP3   OH232382   0.166   6.204   4.733  0.3868  0.6272 -0.5252
 3656TIP3    H132383   0.262   6.211   4.734  0.7081 -2.1478  1.3477
 3656TIP3    H232384   0.140   6.215   4.825 -1.3588  3.1336 -1.2330
 3657TIP3   OH232385   4.085   4.986  11.355 -0.0400 -0.4450  0.2230
 3657TIP3    H132386   4.039   4.929  11.417 -0.0491 -0.1146  0.5268
 3657TIP3    H232387   4.028   5.063  11.349  0.6887  0.1725  0.9574
 3658TIP3   OH232388   0.125   2.947   3.248 -0.3879 -0.4634 -0.5828
 3658TIP3    H132389   0.127   2.902   3.332 -0.8354  0.0259 -0.3000
 3658TIP3    H232390   0.216   2.949   3.219  0.1686  1.4193  1.0063
 3659TIP3   OH232391   0.739   2.965   5.535 -0.6154  0.2917 -0.1049
 3659TIP3    H132392   0.678   3.038   5.538  1.5161  2.2054 -0.5759
 3659TIP3    H232393   0.781   2.972   5.449 -0.1338 -1.3360 -0.0452
 3660TIP3   OH232394   2.824   0.666   2.229 -0.2446 -0.0767 -0.3784
 3660TIP3    H132395   2.887   0.663   2.156  0.0509  1.4969 -0.2309
 3660TIP3    H232396   2.879   0.671   2.307 -0.5450  0.3301 -0.1883
 3661TIP3   OH232397   2.730   3.762  11.993 -0.2119  0.2194 -0.1525
 3661TIP3    H132398   2.677   3.758  12.072  0.5473 -1.9155  0.3193
 3661TIP3    H232399   2.678   3.718  11.926  0.6727 -1.4004  0.1759
 3662TIP3   OH232400   2.157   4.097  15.918  0.3938 -0.3444 -0.4501
 3662TIP3    H132401   2.197   4.123  15.835  1.7565 -2.0029 -0.3786
 3662TIP3    H232402   2.227   4.106  15.982 -1.4547  4.0936  1.3440
 3663TIP3   OH232403   1.220   6.722   1.918 -0.6911 -0.1735  0.7415
 3663TIP3    H132404   1.302   6.770   1.927 -1.3130  1.3857 -1.2802
 3663TIP3    H232405   1.246   6.635   1.888  0.2886 -0.1731  1.5390
 3664TIP3   OH232406   0.173   4.009   4.859 -0.3314 -0.2669 -0.0810
 3664TIP3    H132407   0.240   3.958   4.813  1.6343  0.4527  1.7638
 3664TIP3    H232408   0.125   3.944   4.910  0.3742 -0.6112  0.1724
 3665TIP3   OH232409   5.033   0.482  17.057 -0.1894  0.5393  0.7044
 3665TIP3    H132410   5.044   0.577  17.048 -0.4456  0.5968  0.9761
 3665TIP3    H232411   5.043   0.466  17.151  0.0259  0.2742  0.6354
 3666TIP3   OH232412   4.241   0.202  16.170 -0.4004 -0.1096 -0.8098
 3666TIP3    H132413   4.165   0.155  16.205 -0.7674  0.7018 -0.4840
 3666TIP3    H232414   4.205   0.285  16.138  0.3161  0.1989 -0.8357
 3667TIP3   OH232415   0.947   5.357   0.764  0.2671 -0.0388 -0.5395
 3667TIP3    H132416   0.891   5.409   0.706 -0.1174  1.3203  0.9896
 3667TIP3    H232417   0.994   5.298   0.705 -0.9950  0.4559 -2.0988
 3668TIP3   OH232418   0.684   0.708  10.931  0.4254 -0.1858  0.2287
 3668TIP3    H132419   0.642   0.651  10.866  0.2043 -0.5221  0.6660
 3668TIP3    H232420   0.662   0.796  10.902  1.5411 -0.2605 -0.9880
 3669TIP3   OH232421   0.036   5.140   2.578 -0.1855 -0.5162 -0.1019
 3669TIP3    H132422  -0.006   5.146   2.665  1.2133  1.7943  0.5092
 3669TIP3    H232423   0.080   5.224   2.568  1.8275 -1.7209 -1.9844
 3670TIP3   OH232424   1.685   2.501  14.688  0.0976  0.3751  0.2050
 3670TIP3    H132425   1.678   2.577  14.630 -0.1836  0.2905  0.1278
 3670TIP3    H232426   1.598   2.494  14.729 -0.7252 -1.4659 -1.7286
 3671TIP3   OH232427   4.136   4.371   5.738  0.4863  0.1094 -0.1540
 3671TIP3    H132428   4.209   4.421   5.774  1.3272 -0.3348 -1.1801
 3671TIP3    H232429   4.124   4.298   5.799  0.1457  0.8030  0.6192
 3672TIP3   OH232430   3.988   5.561  14.976  0.2034  0.2431  0.0761
 3672TIP3    H132431   3.975   5.477  15.021  1.0861  1.0003  1.8204
 3672TIP3    H232432   3.904   5.577  14.932 -1.6820  0.5929  3.4286
 3673TIP3   OH232433   0.562   4.996  17.088  0.2760 -0.1684  0.3245
 3673TIP3    H132434   0.490   5.026  17.032  1.3093  0.7913 -0.5397
 3673TIP3    H232435   0.604   5.077  17.117  1.6257 -0.7193 -0.0319
 3674TIP3   OH232436   1.212   6.134   1.207 -0.0020  0.0844 -0.0829
 3674TIP3    H132437   1.234   6.175   1.291  0.3422  0.7127 -0.4657
 3674TIP3    H232438   1.297   6.109   1.170  0.0841  1.9228 -1.2786
 3675TIP3   OH232439   5.259   3.176  13.704 -0.2334  0.4800 -0.5356
 3675TIP3    H132440   5.343   3.132  13.695 -0.5179 -0.3257  0.5466
 3675TIP3    H232441   5.197   3.117  13.661 -0.3172  0.8456 -0.9212
 3676TIP3   OH232442   5.776   2.434  17.180  0.7006 -0.2975 -0.5120
 3676TIP3    H132443   5.718   2.503  17.211  1.9498  0.7461 -0.4150
 3676TIP3    H232444   5.782   2.372  17.252  0.3404 -0.0052 -0.2298
 3677TIP3   OH232445   0.393   3.859   4.748  0.2583  0.3392 -0.0324
 3677TIP3    H132446   0.448   3.919   4.699  1.6170  0.1954  1.2190
 3677TIP3    H232447   0.455   3.810   4.803 -1.1151  0.2043  1.4803
 3678TIP3   OH232448   4.846   0.909   4.089  0.2405 -0.5709  0.0828
 3678TIP3    H132449   4.933   0.928   4.052 -0.3768  0.5836 -0.8347
 3678TIP3    H232450   4.792   0.888   4.013 -1.2131  2.4168  0.1758
 3679TIP3   OH232451   4.760   5.803  11.510 -0.3667 -0.0099 -0.6230
 3679TIP3    H132452   4.692   5.818  11.444 -0.0830  0.0886 -0.8926
 3679TIP3    H232453   4.772   5.708  11.510 -1.7275 -0.2123  0.6539
 3680TIP3   OH232454   6.131   3.646  16.915  0.1892 -0.6731  0.0485
 3680TIP3    H132455   6.061   3.704  16.885 -0.7358 -1.4825  0.5406
 3680TIP3    H232456   6.145   3.670  17.006 -0.7862 -1.7303  0.5065
 3681TIP3   OH232457   6.682   5.363  14.774 -0.0078  0.5835  0.1057
 3681TIP3    H132458   6.621   5.343  14.845 -1.5753  1.8552 -0.8180
 3681TIP3    H232459   6.769   5.354  14.814 -0.7716 -1.0002  1.5266
 3682TIP3   OH232460   3.406   0.584  10.966 -0.3003  0.2751  0.2005
 3682TIP3    H132461   3.496   0.581  10.996 -0.7133 -0.5699  1.4450
 3682TIP3    H232462   3.363   0.512  11.013 -1.2629 -0.3506 -1.5517
 3683TIP3   OH232463   4.962   6.534   0.337 -0.1290 -0.5857 -0.1180
 3683TIP3    H132464   4.894   6.601   0.342  0.1885 -0.2710  0.0658
 3683TIP3    H232465   5.044   6.583   0.325  0.7567 -0.5287  4.3538
 3684TIP3   OH232466   5.341   4.995  15.227 -0.0403  0.6600  0.1148
 3684TIP3    H132467   5.261   5.023  15.272 -0.9575  0.3818 -1.2789
 3684TIP3    H232468   5.339   4.900  15.230 -0.7573  0.5896 -1.5198
 3685TIP3   OH232469   0.706   5.850  11.861 -0.1698 -0.0944  0.2708
 3685TIP3    H132470   0.636   5.877  11.802  0.9244 -0.7338 -1.3809
 3685TIP3    H232471   0.752   5.781  11.814 -1.1962 -3.0302  3.2108
 3686TIP3   OH232472   5.413   1.831   5.788  0.1381 -0.5287  0.1549
 3686TIP3    H132473   5.319   1.822   5.804  0.0396  1.3134  0.8341
 3686TIP3    H232474   5.448   1.742   5.798 -1.3375 -1.0200  1.2333
 3687TIP3   OH232475   4.507   1.473   6.079  0.2018  0.1016  0.4276
 3687TIP3    H132476   4.467   1.429   6.004  1.8825 -0.0305 -0.4276
 3687TIP3    H232477   4.443   1.540   6.104 -0.5700 -0.1219 -0.8503
 3688TIP3   OH232478   4.217   0.065   2.861 -0.1316  0.5595 -0.3272
 3688TIP3    H132479   4.196   0.036   2.950  0.3208  1.6231  0.1434
 3688TIP3    H232480   4.294   0.014   2.837 -0.2342  0.2938 -0.1032
 3689TIP3   OH232481   3.845   2.941  11.808  0.3066  0.1591  0.4296
 3689TIP3    H132482   3.911   2.919  11.874 -0.9149  0.1391  1.6923
 3689TIP3    H232483   3.838   2.862  11.754  0.3259 -0.3506  1.1584
 3690TIP3   OH232484   0.414   4.014   2.397 -0.6177 -0.0864  0.2913
 3690TIP3    H132485   0.444   3.971   2.477  0.7627 -0.4223 -0.3805
 3690TIP3    H232486   0.381   4.099   2.426  1.1252  0.3674  1.0974
 3691TIP3   OH232487   5.464   3.141   4.066  0.8377 -0.7212  0.2434
 3691TIP3    H132488   5.457   3.201   3.992  1.0981  0.1445  0.8990
 3691TIP3    H232489   5.400   3.072   4.047  2.8025 -2.0265 -2.1087
 3692TIP3   OH232490   3.817   5.565  14.761 -0.5437 -0.1495  0.3169
 3692TIP3    H132491   3.878   5.581  14.689 -1.1568  1.8821  0.1950
 3692TIP3    H232492   3.734   5.544  14.717 -0.5135 -0.5673  0.4561
 3693TIP3   OH232493   4.923   5.558  13.967  0.5502 -0.1328  0.1847
 3693TIP3    H132494   4.841   5.606  13.974  1.7317  2.0164  0.1119
 3693TIP3    H232495   4.922   5.496  14.040 -0.6680  0.6016  0.8081
 3694TIP3   OH232496   4.309   6.511   6.509 -0.3567 -0.2712  0.2820
 3694TIP3    H132497   4.234   6.455   6.488 -1.0015  0.8517 -0.5299
 3694TIP3    H232498   4.281   6.599   6.485  1.2620  0.1679 -0.1295
 3695TIP3   OH232499   0.094   5.268  11.129 -0.1371  0.2668 -0.0913
 3695TIP3    H132500   0.132   5.265  11.041 -0.9505 -3.8042 -0.5193
 3695TIP3    H232501   0.154   5.218  11.184 -0.6200  1.0734  1.2224
 3696TIP3   OH232502   6.161   0.006   2.517 -0.5886  0.1904 -0.2972
 3696TIP3    H132503   6.113  -0.065   2.474 -1.1525  1.2503 -1.4474
 3696TIP3    H232504   6.253  -0.014   2.497 -0.8430  0.8725 -2.4279
 3697TIP3   OH232505   2.772   2.536  13.827 -0.4626 -0.2069  0.1058
 3697TIP3    H132506   2.679   2.537  13.803 -0.8342 -0.5401  1.4375
 3697TIP3    H232507   2.772   2.520  13.921  0.9825 -0.8809  0.0130
 3698TIP3   OH232508   4.361   0.387   3.129 -0.1219 -0.2452  0.0569
 3698TIP3    H132509   4.370   0.433   3.045  0.9725 -0.2030  0.1772
 3698TIP3    H232510   4.433   0.420   3.182  1.3064 -2.7537 -0.1718
 3699TIP3   OH232511   5.464   4.359  12.819 -0.2086  0.3918 -0.4673
 3699TIP3    H132512   5.415   4.283  12.787  0.6073 -0.6463  0.6668
 3699TIP3    H232513   5.475   4.414  12.741 -1.9832  0.0202 -1.0340
 3700TIP3   OH232514   2.719   4.019  10.348  0.4637 -0.0581 -0.4111
 3700TIP3    H132515   2.710   3.938  10.398 -2.1597 -0.4095 -1.2846
 3700TIP3    H232516   2.805   4.013  10.307  1.2657 -1.3129  1.3397
 3701TIP3   OH232517   3.350   2.422   4.949  0.5795 -0.0322  0.2633
 3701TIP3    H132518   3.399   2.501   4.929  0.7761 -0.7378 -2.4498
 3701TIP3    H232519   3.397   2.383   5.023  2.1083  1.0075 -0.0990
 3702TIP3   OH232520   3.432   5.495  14.784  0.2293  0.3072 -0.4091
 3702TIP3    H132521   3.484   5.570  14.812 -0.2405 -0.0438  1.5248
 3702TIP3    H232522   3.357   5.494  14.843  1.3579 -2.9648  1.2404
 3703TIP3   OH232523   5.636   3.506   2.259  0.4240 -0.2096 -0.5389
 3703TIP3    H132524   5.602   3.513   2.169 -0.8960 -0.9396 -0.1268
 3703TIP3    H232525   5.686   3.586   2.272  0.3396  0.0715 -1.8104
 3704TIP3   OH232526   1.281   0.747   0.779 -0.5517 -0.3221  0.0161
 3704TIP3    H132527   1.213   0.783   0.723  0.0824 -0.9406 -1.1903
 3704TIP3    H232528   1.360   0.794   0.753 -0.1637 -0.9422  0.0463
 3705TIP3   OH232529   0.505   3.126   3.475 -0.0808 -0.5641  0.3809
 3705TIP3    H132530   0.478   3.217   3.482  1.1427 -0.1770  0.3188
 3705TIP3    H232531   0.520   3.112   3.382 -0.0196 -0.7472  0.4161
 3706TIP3   OH232532   2.535   4.368  12.522  0.4729  0.1450 -0.2760
 3706TIP3    H132533   2.461   4.364  12.462 -0.1115 -0.4182  0.4600
 3706TIP3    H232534   2.562   4.276  12.532  0.4232  0.2066  0.4835
 3707TIP3   OH232535   0.911   5.705  17.063 -0.0657  0.2683  0.1867
 3707TIP3    H132536   0.996   5.670  17.039 -0.0396  0.4869 -0.0484
 3707TIP3    H232537   0.849   5.635  17.043  0.1315 -0.1430  1.0106
 3708TIP3   OH232538   1.276   0.645  11.089 -0.2700  0.4690 -0.0211
 3708TIP3    H132539   1.360   0.601  11.072 -0.0287  0.8149  0.2559
 3708TIP3    H232540   1.297   0.739  11.086  0.0945  0.6301  3.3445
 3709TIP3   OH232541   4.144   4.664  10.349  0.0567  0.6833 -0.0967
 3709TIP3    H132542   4.074   4.718  10.385 -1.1331 -0.5963 -0.4255
 3709TIP3    H232543   4.114   4.574  10.360  0.7453  0.1653 -2.0783
 3710TIP3   OH232544   1.306   4.791   1.136  0.0806 -0.4481 -0.2589
 3710TIP3    H132545   1.271   4.876   1.108  1.2168 -0.2608 -1.1603
 3710TIP3    H232546   1.233   4.750   1.184 -0.6565  0.8048 -0.2581
 3711TIP3   OH232547   2.082   0.046   4.489 -0.2268 -0.0596  0.1952
 3711TIP3    H132548   2.104   0.031   4.581  0.2606 -1.5214 -0.1368
 3711TIP3    H232549   1.991   0.076   4.490  0.0418  0.7658  1.1982
 3712TIP3   OH232550   6.659   5.375  13.189  0.0657 -0.4103 -0.3064
 3712TIP3    H132551   6.600   5.352  13.117 -0.0713  0.3551 -0.4499
 3712TIP3    H232552   6.603   5.379  13.266  0.4476 -2.6591  0.1532
 3713TIP3   OH232553   6.751   2.283  15.171  0.3418 -0.7391 -0.1109
 3713TIP3    H132554   6.776   2.196  15.139 -0.0637 -0.7900 -0.2937
 3713TIP3    H232555   6.731   2.269  15.263  1.0889 -0.6755  0.0724
 3714TIP3   OH232556   5.894   6.636  17.122  0.3952 -0.2559  0.1066
 3714TIP3    H132557   5.850   6.632  17.207  2.8935 -0.0819  1.5050
 3714TIP3    H232558   5.890   6.547  17.089 -2.3809  0.0559 -0.6554
 3715TIP3   OH232559   3.541   1.393  11.205  0.5588 -0.1007 -0.2264
 3715TIP3    H132560   3.538   1.368  11.113 -0.6981  1.4622 -0.6470
 3715TIP3    H232561   3.601   1.467  11.208 -0.1583  0.4855  0.0211
 3716TIP3   OH232562   2.628   1.878   1.262  1.0951  0.5012 -0.2308
 3716TIP3    H132563   2.548   1.926   1.284  0.4276 -0.9022  0.5158
 3716TIP3    H232564   2.643   1.897   1.169  0.3142  1.3608 -0.1928
 3717TIP3   OH232565   0.988   1.983   2.261  0.3363  0.2087  0.1797
 3717TIP3    H132566   1.041   2.009   2.185 -0.0719 -0.1586 -0.2342
 3717TIP3    H232567   0.966   2.066   2.304 -2.8708  0.9182 -2.3980
 3718TIP3   OH232568   1.076   0.674   0.997 -0.3121 -0.5271 -0.1211
 3718TIP3    H132569   1.125   0.749   1.029 -1.0315 -0.4426  0.8176
 3718TIP3    H232570   1.138   0.628   0.940  0.1896  0.6705 -0.5819
 3719TIP3   OH232571   5.667   4.549   4.529 -0.8118  0.2457  0.3554
 3719TIP3    H132572   5.621   4.512   4.604 -1.6897 -0.4979 -0.5254
 3719TIP3    H232573   5.597   4.582   4.472 -0.3174 -1.2402 -1.1826
 3720TIP3   OH232574   3.647   0.342   4.368  0.3706 -0.5233  0.2915
 3720TIP3    H132575   3.638   0.428   4.408 -1.2945 -0.4981 -0.0682
 3720TIP3    H232576   3.741   0.333   4.351  0.6479  0.9382  0.9177
 3721TIP3   OH232577   3.534   4.796   5.697 -0.1947 -0.1786  0.3131
 3721TIP3    H132578   3.553   4.739   5.772 -0.9856  0.4623  1.0312
 3721TIP3    H232579   3.616   4.843   5.681  0.7281 -2.1028 -0.8418
 3722TIP3   OH232580   4.356   5.280  16.082 -0.5675 -0.5305  0.1392
 3722TIP3    H132581   4.295   5.290  16.008  1.1493 -3.1159 -1.8058
 3722TIP3    H232582   4.397   5.366  16.092 -0.9354 -0.0804 -1.8618
 3723TIP3   OH232583   4.898   6.468   2.286 -0.0164  0.5391  0.3835
 3723TIP3    H132584   4.943   6.392   2.249  0.0482  0.2457  1.0484
 3723TIP3    H232585   4.822   6.431   2.332 -0.0265  0.8819  0.6474
 3724TIP3   OH232586   6.697   3.621  13.645 -0.3866  0.2052  0.2799
 3724TIP3    H132587   6.747   3.693  13.683 -0.2475 -0.3037  1.0839
 3724TIP3    H232588   6.714   3.627  13.551 -0.9347  1.6303  0.2517
 3725TIP3   OH232589   6.611   4.284  15.440 -0.0468  0.1180  0.5547
 3725TIP3    H132590   6.690   4.336  15.432  1.0933 -1.6237  0.0117
 3725TIP3    H232591   6.638   4.205  15.487 -1.9654  0.4673  2.3895
 3726TIP3   OH232592   0.095   2.933   4.511 -0.0259  0.4349 -0.3229
 3726TIP3    H132593   0.080   2.839   4.499 -0.3525  0.3256  0.7441
 3726TIP3    H232594   0.189   2.941   4.527 -0.1919  0.0904  0.9779
 3727TIP3   OH232595   3.271   3.490  12.789 -0.2389  0.1047 -0.0030
 3727TIP3    H132596   3.284   3.548  12.714  0.3834 -0.2982 -0.2152
 3727TIP3    H232597   3.217   3.419  12.754  1.6063 -1.0784 -0.6171
 3728TIP3   OH232598   6.655   3.418  12.389 -0.2313 -0.3765 -0.1396
 3728TIP3    H132599   6.652   3.363  12.311  0.4079  1.7573 -1.7627
 3728TIP3    H232600   6.595   3.490  12.370  0.9822  0.9102  0.7202
 3729TIP3   OH232601   3.142   4.212   4.463 -0.1960 -0.1536 -0.4111
 3729TIP3    H132602   3.161   4.252   4.379 -0.6617  0.0291 -0.4348
 3729TIP3    H232603   3.227   4.199   4.504  0.1033 -1.0259 -1.2624
 3730TIP3   OH232604   5.847   2.319  14.642 -0.9430 -0.1552 -0.3134
 3730TIP3    H132605   5.822   2.358  14.726  1.2717  1.3436 -0.2555
 3730TIP3    H232606   5.806   2.233  14.642  0.0933 -0.7880  2.9590
 3731TIP3   OH232607   2.026   3.228   4.322  0.2426  0.5413  0.4144
 3731TIP3    H132608   2.108   3.253   4.280  0.5912  1.4522  1.5891
 3731TIP3    H232609   1.981   3.311   4.339 -1.2298  0.0294 -0.7717
 3732TIP3   OH232610   4.748   4.490   2.304  0.5726  0.4189 -0.6111
 3732TIP3    H132611   4.713   4.517   2.388  1.5995  2.3758 -0.7652
 3732TIP3    H232612   4.839   4.468   2.321 -0.2808 -3.8771 -0.3631
 3733TIP3   OH232613   2.248   5.959  13.356 -0.1276 -0.3111  0.0159
 3733TIP3    H132614   2.196   5.970  13.436  1.9223  1.0022  1.2762
 3733TIP3    H232615   2.327   6.011  13.373  2.0786 -3.0174 -1.3532
 3734TIP3   OH232616   1.292   6.353   1.477  0.0177 -0.6596  0.1852
 3734TIP3    H132617   1.327   6.299   1.547  0.8810 -0.5511 -0.1548
 3734TIP3    H232618   1.219   6.400   1.518 -0.1617 -1.3872  0.7210
 3735TIP3   OH232619   4.796   0.338   4.053 -0.7134  0.1221 -0.0890
 3735TIP3    H132620   4.701   0.344   4.041 -0.3312  2.2584 -2.9630
 3735TIP3    H232621   4.821   0.424   4.087  0.3226  0.0470 -0.6341
 3736TIP3   OH232622   3.023   6.170  12.834  0.0464 -0.2393 -0.3899
 3736TIP3    H132623   3.029   6.187  12.928  0.1205  0.8221 -0.5720
 3736TIP3    H232624   3.064   6.247  12.793 -0.1333 -0.6083 -1.2924
 3737TIP3   OH232625   6.558   1.275  13.780 -0.0164 -0.2329 -0.1246
 3737TIP3    H132626   6.644   1.237  13.796 -0.1102 -0.8289 -1.0032
 3737TIP3    H232627   6.511   1.209  13.730 -0.1300  1.0928 -1.8502
 3738TIP3   OH232628   3.101   5.452  12.198 -0.1952 -0.0727  0.0599
 3738TIP3    H132629   3.068   5.541  12.184 -2.6010 -1.3265 -4.3741
 3738TIP3    H232630   3.022   5.399  12.209  1.0681 -1.9267  0.6169
 3739TIP3   OH232631   1.351   2.134  12.887  0.2028  0.8345 -0.4326
 3739TIP3    H132632   1.340   2.188  12.965 -0.3817 -0.7007  0.5985
 3739TIP3    H232633   1.364   2.045  12.921 -1.8203 -0.1808 -2.1159
 3740TIP3   OH232634   3.523   5.250  16.700  0.6109 -0.1409  0.4936
 3740TIP3    H132635   3.456   5.229  16.636 -1.6131 -0.3263  2.7548
 3740TIP3    H232636   3.482   5.313  16.759  2.4400 -0.2043  1.9442
 3741TIP3   OH232637   6.505   1.420   2.594 -0.2083 -0.0024  0.2729
 3741TIP3    H132638   6.470   1.481   2.659 -0.0298  1.3940 -0.8612
 3741TIP3    H232639   6.551   1.353   2.644 -0.4555  0.7874  1.5842
 3742TIP3   OH232640   1.112   1.413  14.926 -0.1397  0.3331  0.2033
 3742TIP3    H132641   1.139   1.442  15.013  2.2045  0.6959 -0.5546
 3742TIP3    H232642   1.018   1.427  14.924 -0.1625  0.9804  2.4192
 3743TIP3   OH232643   4.173   0.155   1.773  0.2799 -0.2267 -0.6747
 3743TIP3    H132644   4.229   0.137   1.697 -1.8692 -2.0588 -1.9328
 3743TIP3    H232645   4.120   0.076   1.784 -0.1828  0.3586  2.1798
 3744TIP3   OH232646   3.296   1.750   0.761  0.1629  0.0634  0.3459
 3744TIP3    H132647   3.240   1.684   0.803 -0.8982  0.4273 -0.4746
 3744TIP3    H232648   3.385   1.726   0.789 -0.1830 -1.7616  0.0324
 3745TIP3   OH232649   2.716   4.987   5.483  0.1304 -0.0580 -0.1533
 3745TIP3    H132650   2.694   4.895   5.471  0.8241 -0.7077  2.7763
 3745TIP3    H232651   2.804   4.986   5.520 -0.8784  1.5224  2.5813
 3746TIP3   OH232652   5.038   4.388   5.659  0.7081 -0.1850 -0.0878
 3746TIP3    H132653   5.028   4.309   5.712 -1.9891  0.1888  0.1318
 3746TIP3    H232654   5.044   4.356   5.569 -2.1536 -0.7066 -0.1911
 3747TIP3   OH232655   1.548   6.390  16.126 -0.0688 -0.4501 -0.4271
 3747TIP3    H132656   1.534   6.370  16.218 -0.5350  0.0395 -0.3864
 3747TIP3    H232657   1.511   6.478  16.115  0.6942 -0.1804 -0.9016
 3748TIP3   OH232658   2.676   6.568   0.307 -0.0323  0.1081  0.0829
 3748TIP3    H132659   2.709   6.585   0.395  0.7833 -0.1837 -0.1506
 3748TIP3    H232660   2.629   6.485   0.314  0.2301 -0.0331  0.2063
 3749TIP3   OH232661   0.990   6.024   5.309 -0.5772 -0.0533 -0.4552
 3749TIP3    H132662   0.946   6.103   5.340  0.1439  0.5064 -0.8110
 3749TIP3    H232663   0.919   5.965   5.285 -1.1872 -0.6879  2.5572
 3750TIP3   OH232664   5.539   3.630   0.184  0.1596 -0.5898 -0.0393
 3750TIP3    H132665   5.581   3.587   0.258  0.7935 -0.1238 -0.1227
 3750TIP3    H232666   5.463   3.675   0.222 -0.2448 -1.3791  0.1190
 3751TIP3   OH232667   4.249   2.734  15.070  0.2642 -0.0397 -0.1961
 3751TIP3    H132668   4.341   2.758  15.082  0.4780 -0.6358 -0.6162
 3751TIP3    H232669   4.242   2.645  15.106 -0.4709  0.5282  1.1509
 3752TIP3   OH232670   3.243   0.857  16.328 -0.0248 -0.3992  0.2028
 3752TIP3    H132671   3.290   0.897  16.255 -0.3454 -0.3431  0.0242
 3752TIP3    H232672   3.288   0.889  16.406  1.0293 -1.3394  0.0094
 3753TIP3   OH232673   2.623   0.834   2.745  0.6816  0.2804 -0.0853
 3753TIP3    H132674   2.624   0.749   2.701 -1.0066 -0.1082  0.5372
 3753TIP3    H232675   2.698   0.830   2.805  1.3151 -0.2906 -0.8878
 3754TIP3   OH232676   6.592   1.077  16.984 -0.3558 -0.1086 -0.1725
 3754TIP3    H132677   6.576   1.045  16.895  0.5435  1.0738 -0.7860
 3754TIP3    H232678   6.659   1.019  17.019 -0.2214 -0.1643 -0.5198
 3755TIP3   OH232679   0.857   1.774   1.479 -0.4731 -0.0187  0.3664
 3755TIP3    H132680   0.868   1.755   1.386  1.6879  0.5738  0.4404
 3755TIP3    H232681   0.940   1.813   1.506 -0.5074 -1.4128  2.8783
 3756TIP3   OH232682   1.679   4.098  12.595  0.4501  0.0946 -0.1743
 3756TIP3    H132683   1.682   4.183  12.638 -0.7845  0.2157 -0.3129
 3756TIP3    H232684   1.697   4.117  12.503  0.5692  0.1485 -0.1402
 3757TIP3   OH232685   6.551   0.449  13.286 -0.2107  0.4484 -0.6945
 3757TIP3    H132686   6.545   0.465  13.192 -1.0164  1.6439 -0.4672
 3757TIP3    H232687   6.581   0.358  13.293 -1.7614 -0.2299 -2.1188
 3758TIP3   OH232688   6.785   6.584  16.564  0.7056 -0.0619  0.3447
 3758TIP3    H132689   6.800   6.637  16.642  1.1000  0.1408  0.1382
 3758TIP3    H232690   6.742   6.505  16.596  0.9318 -0.0149  0.7767
 3759TIP3   OH232691   3.288   6.255   1.421 -0.2971 -0.3299 -0.4563
 3759TIP3    H132692   3.363   6.203   1.450 -0.6024 -1.7217 -1.9870
 3759TIP3    H232693   3.327   6.333   1.382  0.1483  1.0088  2.4209
 3760TIP3   OH232694   2.959   3.593   4.585 -0.0153  0.2294 -0.2079
 3760TIP3    H132695   2.955   3.508   4.542  0.5786  1.2508 -2.4082
 3760TIP3    H232696   2.923   3.577   4.672 -1.5067 -1.9069 -1.1238
 3761TIP3   OH232697   0.980   3.923  13.331 -0.6914  0.6149  0.0103
 3761TIP3    H132698   0.901   3.956  13.289  0.0198  1.7594 -0.4782
 3761TIP3    H232699   0.973   3.828  13.325 -1.7548  0.7129 -0.5137
 3762TIP3   OH232700   6.587   2.068  11.241 -0.3506 -0.0746 -0.1045
 3762TIP3    H132701   6.592   2.113  11.325 -2.6939 -1.4200  0.8486
 3762TIP3    H232702   6.526   1.996  11.256  0.5531 -1.4486 -2.5057
 3763TIP3   OH232703   5.584   1.942  15.657  0.1713  0.4390 -0.0980
 3763TIP3    H132704   5.597   1.936  15.752 -1.2532  0.5604  0.1177
 3763TIP3    H232705   5.528   2.018  15.645 -1.5902 -0.8891 -0.8219
 3764TIP3   OH232706   1.711   1.143  15.419  0.0716  0.4249  0.2248
 3764TIP3    H132707   1.715   1.239  15.423  1.0835  0.3515  2.5388
 3764TIP3    H232708   1.794   1.114  15.457 -0.3671 -1.3817 -0.1285
 3765TIP3   OH232709   2.040   3.424   5.462 -0.2059  0.1007  0.0017
 3765TIP3    H132710   2.026   3.391   5.374 -1.3522  0.0898  0.1793
 3765TIP3    H232711   1.953   3.429   5.501  0.2271  0.6044  0.9574
 3766TIP3   OH232712   3.483   5.979  11.464 -0.0946  0.2617  0.4772
 3766TIP3    H132713   3.570   6.015  11.445  0.4840 -1.0283  0.6192
 3766TIP3    H232714   3.431   6.003  11.387  1.3300 -1.9877 -1.3413
 3767TIP3   OH232715   3.335   1.306   5.796 -0.1509 -0.2144  0.3197
 3767TIP3    H132716   3.393   1.262   5.858 -2.7444 -1.3864  2.1205
 3767TIP3    H232717   3.275   1.356   5.852 -0.6321  1.3127 -1.4591
 3768TIP3   OH232718   6.374   5.630   1.151 -0.1966  0.0780 -0.3985
 3768TIP3    H132719   6.288   5.667   1.132 -0.0376  0.2818 -0.7302
 3768TIP3    H232720   6.406   5.680   1.227 -0.3083  0.1012 -0.3670
 3769TIP3   OH232721   2.820   6.437   2.178 -0.3900  0.0146  0.8598
 3769TIP3    H132722   2.764   6.514   2.192 -1.5879 -0.9221  1.3580
 3769TIP3    H232723   2.900   6.473   2.140 -0.1638  1.7627  2.7684
 3770TIP3   OH232724   4.404   3.701   5.891 -0.1425 -0.2793  0.7195
 3770TIP3    H132725   4.492   3.670   5.872 -0.7607 -1.3528 -0.6218
 3770TIP3    H232726   4.395   3.694   5.986  1.5997  1.0126  1.0169
 3771TIP3   OH232727   0.352   5.029   1.329 -0.1457  0.3712  0.2636
 3771TIP3    H132728   0.405   4.999   1.403  0.5864  1.6815  0.3018
 3771TIP3    H232729   0.280   4.967   1.324  0.7467 -0.7530  0.9782
 3772TIP3   OH232730   2.282   2.175  13.108  0.1385  0.3550  0.3939
 3772TIP3    H132731   2.273   2.081  13.091 -0.1297  0.0882  1.8525
 3772TIP3    H232732   2.290   2.181  13.203 -0.1218  1.8378  0.3411
 3773TIP3   OH232733   0.472   1.431   3.927  0.3162 -0.1832  0.5805
 3773TIP3    H132734   0.397   1.413   3.871  0.5098  0.9441 -0.0692
 3773TIP3    H232735   0.502   1.345   3.955 -1.4164 -0.6327  1.1458
 3774TIP3   OH232736   0.083   0.513  12.625 -0.6512 -0.2650  0.4405
 3774TIP3    H132737   0.045   0.537  12.541 -0.8404  0.6278  0.7622
 3774TIP3    H232738   0.076   0.418  12.629  1.0496 -0.5339 -1.3552
 3775TIP3   OH232739   1.698   1.192  14.322 -0.0830  0.0155  0.0359
 3775TIP3    H132740   1.684   1.281  14.290 -0.1543 -0.6562 -1.9177
 3775TIP3    H232741   1.764   1.155  14.263  2.2787 -0.3012  2.6242
 3776TIP3   OH232742   2.120   6.128  16.040 -0.3116  0.2199  0.3075
 3776TIP3    H132743   2.147   6.210  16.080 -0.6642  0.2469  0.4894
 3776TIP3    H232744   2.037   6.107  16.082  0.7374 -1.2873  1.7708
 3777TIP3   OH232745   2.715   5.004  11.038 -0.2770  0.1029 -0.6295
 3777TIP3    H132746   2.682   4.972  10.954  1.1756 -0.3827 -1.0521
 3777TIP3    H232747   2.801   5.041  11.017 -0.5331  1.3631  0.4022
 3778TIP3   OH232748   1.504   5.013   3.388  0.8524  0.0071 -0.0085
 3778TIP3    H132749   1.460   4.965   3.458 -3.2823 -0.6808 -2.7361
 3778TIP3    H232750   1.567   4.951   3.351  1.5954 -0.3093  1.7081
 3779TIP3   OH232751   2.032   3.589   1.029  0.2001 -0.1348  0.1097
 3779TIP3    H132752   1.988   3.673   1.038  1.6117  0.7456 -0.8418
 3779TIP3    H232753   2.051   3.562   1.119  0.1195  0.7767  0.4050
 3780TIP3   OH232754   5.153   0.769   4.417 -0.8086  0.7240  0.1527
 3780TIP3    H132755   5.161   0.717   4.336  1.1588  0.9906  0.1130
 3780TIP3    H232756   5.178   0.857   4.391 -0.7683  0.9451  0.9175
 3781TIP3   OH232757   5.443   6.435  17.139  0.5029  0.0933  0.3964
 3781TIP3    H132758   5.451   6.481  17.223  0.2858  0.5088  0.1920
 3781TIP3    H232759   5.532   6.404  17.121  0.8918  1.3597  0.0183
 3782TIP3   OH232760   2.618   1.341   4.525  0.3879 -0.4382  0.1085
 3782TIP3    H132761   2.613   1.406   4.595  3.3907 -0.6981  0.6732
 3782TIP3    H232762   2.580   1.262   4.563  3.0486 -0.9267  1.9709
 3783TIP3   OH232763   3.845   3.803  14.179 -0.3059  0.2555  0.2377
 3783TIP3    H132764   3.913   3.735  14.184  0.1539  0.7178  0.3875
 3783TIP3    H232765   3.764   3.758  14.203 -0.4502 -0.8383 -2.0113
 3784TIP3   OH232766   2.631   5.613   1.747  0.3240  0.1730  0.3043
 3784TIP3    H132767   2.606   5.571   1.830  0.7041  3.0845  2.0156
 3784TIP3    H232768   2.685   5.547   1.702  2.8324 -0.4840  3.8485
 3785TIP3   OH232769   1.295   3.687   0.965  0.0326 -0.1961  0.1397
 3785TIP3    H132770   1.348   3.608   0.959  0.5352  0.2117 -1.7710
 3785TIP3    H232771   1.286   3.716   0.874 -1.4317  1.0962  0.6536
 3786TIP3   OH232772   5.718   5.556   0.889  0.1190 -0.1531  0.0040
 3786TIP3    H132773   5.771   5.477   0.881 -0.4049 -0.3617 -1.5943
 3786TIP3    H232774   5.727   5.600   0.804 -0.4855  0.9447  0.4878
 3787TIP3   OH232775   3.615   5.960   4.199 -1.1139  0.0296 -0.4884
 3787TIP3    H132776   3.545   5.919   4.250 -0.2976 -0.1254  0.5437
 3787TIP3    H232777   3.633   5.897   4.129 -0.0168 -1.3431  0.9525
 3788TIP3   OH232778   3.395   4.943   2.757  0.2661 -0.1791 -0.3720
 3788TIP3    H132779   3.356   4.953   2.844  0.6026  0.8441 -0.3324
 3788TIP3    H232780   3.489   4.954   2.772  0.4813 -1.4985 -0.6418
 3789TIP3   OH232781   6.643   1.995   4.728  0.1509  0.1122  0.2551
 3789TIP3    H132782   6.570   1.935   4.711  1.2345 -0.3149 -3.9148
 3789TIP3    H232783   6.601   2.075   4.758 -2.0454 -0.3318 -1.3204
 3790TIP3   OH232784   3.685   5.335  11.474 -0.1910  0.4791  0.6964
 3790TIP3    H132785   3.601   5.332  11.520 -0.0392  2.3060  1.2068
 3790TIP3    H232786   3.663   5.369  11.387 -0.1309 -0.2400  0.3995
 3791TIP3   OH232787   3.740   6.157   1.055 -0.0042  0.1873 -0.4225
 3791TIP3    H132788   3.749   6.231   0.996  1.7445  1.1009  0.8830
 3791TIP3    H232789   3.759   6.080   1.002  0.2165  0.8591 -1.3271
 3792TIP3   OH232790   0.630   3.032  15.838  0.0041  0.1136 -0.2796
 3792TIP3    H132791   0.675   2.974  15.899 -0.8848  0.9702  1.2520
 3792TIP3    H232792   0.592   2.973  15.772  0.0044 -0.9469  0.6500
 3793TIP3   OH232793   5.797   1.522  12.703 -0.2079 -0.2992 -0.0343
 3793TIP3    H132794   5.766   1.490  12.788 -0.4152  2.7043  1.1067
 3793TIP3    H232795   5.772   1.452  12.642 -0.8039 -2.1859  2.2047
 3794TIP3   OH232796   0.055   0.192  16.550 -0.4551 -0.1465 -0.2206
 3794TIP3    H132797  -0.029   0.175  16.508 -0.9398  1.2105  0.1461
 3794TIP3    H232798   0.050   0.145  16.633 -1.1804  0.5226  0.1343
 3795TIP3   OH232799   2.168   3.592  12.330  0.0396  0.2563 -0.1332
 3795TIP3    H132800   2.086   3.617  12.288  0.3631 -0.0755 -0.9862
 3795TIP3    H232801   2.145   3.519  12.387 -0.0174 -0.8146 -1.4833
 3796TIP3   OH232802   6.002   5.994   5.546 -0.3040 -0.0141  0.1259
 3796TIP3    H132803   6.028   5.916   5.497  0.0631 -0.3544  0.8331
 3796TIP3    H232804   6.042   6.067   5.499 -1.1618 -0.1810 -0.8944
 3797TIP3   OH232805   0.575   2.668  14.199 -0.4448  0.0131 -0.1881
 3797TIP3    H132806   0.649   2.683  14.140  0.1004 -1.3786  0.0868
 3797TIP3    H232807   0.575   2.743  14.258  0.8028  0.0140 -0.1589
 3798TIP3   OH232808   2.854   2.658   3.534  0.2359  0.7052  0.7970
 3798TIP3    H132809   2.843   2.563   3.523 -3.6033  0.8650  1.8712
 3798TIP3    H232810   2.891   2.687   3.451  1.6221 -1.6967  0.4650
 3799TIP3   OH232811   0.258   4.959  16.682  0.2273 -0.5339  0.7838
 3799TIP3    H132812   0.279   4.891  16.745 -0.1216 -2.3615 -0.9607
 3799TIP3    H232813   0.241   4.912  16.600 -0.6202  1.6094 -0.3698
 3800TIP3   OH232814   5.272   0.248   1.241  0.0790  0.2870  0.2237
 3800TIP3    H132815   5.367   0.242   1.232  0.0789  1.7697 -1.0923
 3800TIP3    H232816   5.238   0.180   1.183  0.3017 -1.3870  1.9462
 3801TIP3   OH232817   3.659   3.851  16.667  0.6260  0.0432  0.2083
 3801TIP3    H132818   3.650   3.813  16.579  0.3937 -0.6741  0.5346
 3801TIP3    H232819   3.658   3.946  16.652 -0.7542 -0.0370 -0.4527
 3802TIP3   OH232820   5.240   4.657   3.892  0.6940 -0.5090  0.7036
 3802TIP3    H132821   5.245   4.586   3.956  0.9706  0.0970  1.3794
 3802TIP3    H232822   5.260   4.617   3.808 -0.9448 -1.5919  0.7821
 3803TIP3   OH232823   3.681   3.753  11.742 -0.1645  0.2475 -0.2976
 3803TIP3    H132824   3.730   3.675  11.716 -0.6969  0.4279 -1.9403
 3803TIP3    H232825   3.710   3.771  11.831  0.4642 -1.4333 -0.1309
 3804TIP3   OH232826   3.645   0.360   2.581 -0.7603  0.7076  0.8459
 3804TIP3    H132827   3.638   0.265   2.581  1.2024  0.4992 -0.4505
 3804TIP3    H232828   3.719   0.379   2.639  0.3908  1.2231 -0.7219
 3805TIP3   OH232829   4.330   1.859   5.408 -0.2435 -0.0505  0.2089
 3805TIP3    H132830   4.418   1.859   5.370  0.9017  0.4436  2.6358
 3805TIP3    H232831   4.311   1.766   5.424  0.1013 -0.1151  0.2526
 3806TIP3   OH232832   0.018   5.690  14.455 -0.4462  0.2565  0.1886
 3806TIP3    H132833  -0.024   5.776  14.455  0.7063  0.8739  1.6938
 3806TIP3    H232834  -0.054   5.628  14.456 -1.3085  1.1720 -1.1084
 3807TIP3   OH232835   5.931   3.507   3.765  0.5452 -0.0767 -0.2563
 3807TIP3    H132836   5.869   3.436   3.748 -1.6070  1.9005 -1.2643
 3807TIP3    H232837   6.015   3.475   3.731  0.2301 -2.9390  1.3900
 3808TIP3   OH232838   2.702   6.710   1.439  0.0834 -0.1350  0.0066
 3808TIP3    H132839   2.772   6.663   1.393 -1.1639 -1.9298 -0.1576
 3808TIP3    H232840   2.687   6.658   1.518 -1.1446  0.1550 -0.0223
 3809TIP3   OH232841   3.694   2.503  11.831  0.3904 -0.0708 -0.0298
 3809TIP3    H132842   3.672   2.457  11.750  0.0044  1.3728 -0.7821
 3809TIP3    H232843   3.629   2.473  11.894 -1.4030  1.2033 -1.1766
 3810TIP3   OH232844   1.381   1.234   4.679  0.6856  0.0064 -0.4225
 3810TIP3    H132845   1.335   1.276   4.752  1.4839  1.3427 -0.6600
 3810TIP3    H232846   1.313   1.187   4.631 -0.3267  1.3968 -0.3921
 3811TIP3   OH232847   0.519   3.454   3.107 -0.3036 -0.4871 -0.3616
 3811TIP3    H132848   0.440   3.417   3.147  0.4121  0.5823  2.2755
 3811TIP3    H232849   0.487   3.527   3.053 -1.1557 -0.0332  0.7116
 3812TIP3   OH232850   5.477   4.961  15.551  0.0324 -0.0481 -0.1270
 3812TIP3    H132851   5.538   5.035  15.559  0.7628 -0.8091  1.8830
 3812TIP3    H232852   5.506   4.899  15.617 -1.3440 -1.6113 -0.9267
 3813TIP3   OH232853   6.512   1.784   3.090  0.4276 -0.1319  0.0671
 3813TIP3    H132854   6.483   1.871   3.118  0.1394 -0.1166 -0.2846
 3813TIP3    H232855   6.438   1.747   3.043  0.8534 -0.2277 -0.5351
 3814TIP3   OH232856   0.937   3.651  15.314 -1.0345  0.1699 -0.8527
 3814TIP3    H132857   0.875   3.657  15.242 -0.9304  0.4543 -0.9183
 3814TIP3    H232858   1.000   3.721  15.298 -1.2467  0.5075 -0.2631
 3815TIP3   OH232859   0.352   2.158  15.974  0.0575 -0.5922 -0.3125
 3815TIP3    H132860   0.291   2.171  15.901 -0.9289  0.8405  0.7297
 3815TIP3    H232861   0.354   2.063  15.987 -2.2119 -0.6637 -0.1765
 3816TIP3   OH232862   3.415   0.033  10.992 -0.1030 -0.2727  0.2704
 3816TIP3    H132863   3.478  -0.026  10.950  2.4205  1.5959  1.1355
 3816TIP3    H232864   3.469   0.090  11.047 -2.6858  0.9864  1.7009
 3817TIP3   OH232865   6.632   1.828   4.470  0.3426  0.4399  0.6820
 3817TIP3    H132866   6.701   1.894   4.466  0.8004 -0.0644 -0.0193
 3817TIP3    H232867   6.640   1.792   4.559  1.3977 -0.0311  0.4196
 3818TIP3   OH232868   5.133   0.384  11.925 -1.2337 -0.2941 -0.2584
 3818TIP3    H132869   5.080   0.370  11.847 -0.0832  1.0379 -1.3139
 3818TIP3    H232870   5.100   0.465  11.963 -0.6239  0.0198 -0.3812
 3819TIP3   OH232871   0.181   1.474  13.099  0.1824  0.3607  0.0632
 3819TIP3    H132872   0.106   1.526  13.129 -0.0672 -0.0398  0.1419
 3819TIP3    H232873   0.232   1.534  13.045 -0.0771  0.7015  0.1955
 3820TIP3   OH232874   1.803   5.016   4.329  0.0953 -0.1608 -0.4679
 3820TIP3    H132875   1.708   5.022   4.337  0.1000 -0.6560 -0.0055
 3820TIP3    H232876   1.833   4.987   4.415  0.6235 -0.4778 -0.7541
 3821TIP3   OH232877   0.565   2.578  11.777  0.9102  1.0128  0.0885
 3821TIP3    H132878   0.573   2.654  11.835  2.8139  0.8476  0.1058
 3821TIP3    H232879   0.653   2.540  11.775  0.0261 -1.2056  0.0782
 3822TIP3   OH232880   4.406   5.319   6.047 -0.0953 -0.3285 -0.2708
 3822TIP3    H132881   4.417   5.399   6.098 -0.7639 -0.3099 -0.1396
 3822TIP3    H232882   4.318   5.327   6.009  0.3994 -0.3262 -1.4512
 3823TIP3   OH232883   0.001   1.882  12.741  0.2352  0.6521  0.1767
 3823TIP3    H132884  -0.027   1.974  12.743  0.6966  0.7997 -0.0144
 3823TIP3    H232885   0.078   1.880  12.797 -1.3114 -0.1608  2.3954
 3824TIP3   OH232886   0.583   1.631  12.945 -0.4147  0.6468 -0.1179
 3824TIP3    H132887   0.541   1.577  12.878  1.1603  0.5486 -1.0967
 3824TIP3    H232888   0.602   1.714  12.900  0.8859  0.4914  0.0958
 3825TIP3   OH232889   5.999   4.719  16.155 -0.5093 -0.5269 -0.1950
 3825TIP3    H132890   5.948   4.749  16.230  2.7513  0.0692  1.9970
 3825TIP3    H232891   6.012   4.625  16.171  0.3565 -0.3605  0.1698
 3826TIP3   OH232892   1.819   4.345   4.404  0.1478 -0.5665 -0.2869
 3826TIP3    H132893   1.786   4.409   4.466 -0.6537 -0.6265 -0.6400
 3826TIP3    H232894   1.768   4.266   4.421 -0.4011 -0.4530 -1.3127
 3827TIP3   OH232895   4.853   6.587   5.705  0.0870 -0.1742  0.0988
 3827TIP3    H132896   4.857   6.603   5.611  0.8514 -0.2423  0.1150
 3827TIP3    H232897   4.763   6.558   5.721 -0.4190  1.0522 -0.4067
 3828TIP3   OH232898   4.832   3.181   1.956  0.5231  0.0791  0.1614
 3828TIP3    H132899   4.784   3.204   2.035  0.8646 -0.5230  0.5593
 3828TIP3    H232900   4.774   3.120   1.910  0.9380 -0.7371  0.6983
 3829TIP3   OH232901   4.058   4.550  14.334 -0.0966 -0.0944  0.3303
 3829TIP3    H132902   4.062   4.584  14.245  0.8125  0.3911  0.5479
 3829TIP3    H232903   4.149   4.546  14.363 -0.3716 -0.3465  1.2019
 3830TIP3   OH232904   5.272   2.874  15.315  0.1222  0.6175 -0.7071
 3830TIP3    H132905   5.270   2.781  15.340  1.4697  0.1788 -2.0777
 3830TIP3    H232906   5.182   2.903  15.325 -0.5937 -1.1781 -1.4337
 3831TIP3   OH232907   6.626   6.071  12.051 -0.1587  0.3591  0.1125
 3831TIP3    H132908   6.669   6.078  11.966 -1.7015  1.6129 -0.6133
 3831TIP3    H232909   6.694   6.095  12.114  0.7231  0.4362 -0.8272
 3832TIP3   OH232910   1.186   2.415  16.290 -0.4554  0.3187 -0.1548
 3832TIP3    H132911   1.184   2.502  16.331 -0.6710  0.3890 -0.3170
 3832TIP3    H232912   1.119   2.418  16.222 -1.0855 -0.2643  0.4270
 3833TIP3   OH232913   4.353   4.637   1.174 -0.6531  0.1231  0.3229
 3833TIP3    H132914   4.315   4.627   1.261 -0.0165 -0.4099  0.5515
 3833TIP3    H232915   4.347   4.730   1.155  0.6432  0.5034  1.6156
 3834TIP3   OH232916   4.364   3.436   5.454 -0.0603  0.6821  0.2768
 3834TIP3    H132917   4.275   3.423   5.423  0.4489  0.4134 -1.1290
 3834TIP3    H232918   4.362   3.522   5.496 -1.2763  0.1023  1.4702
 3835TIP3   OH232919   3.336   3.441   2.700 -0.5012 -0.4831  0.0299
 3835TIP3    H132920   3.342   3.480   2.787  0.2988 -0.2236 -0.1350
 3835TIP3    H232921   3.385   3.500   2.643 -0.4775 -0.9794 -0.4789
 3836TIP3   OH232922   1.517   1.046   6.564  0.2755  0.1271 -0.1906
 3836TIP3    H132923   1.433   1.018   6.601  1.4778 -1.9879  1.1834
 3836TIP3    H232924   1.539   1.126   6.611 -0.7381  0.4523 -0.2419
 3837TIP3   OH232925   5.395   5.844  15.477  0.2553 -0.4856  0.2665
 3837TIP3    H132926   5.454   5.883  15.413 -1.2891  0.5449 -0.5877
 3837TIP3    H232927   5.432   5.869  15.562  0.5624  0.9081 -0.2531
 3838TIP3   OH232928   0.629   0.430  13.525  0.1714 -0.5664 -0.5449
 3838TIP3    H132929   0.595   0.494  13.463  0.0939 -1.4085 -1.3960
 3838TIP3    H232930   0.593   0.346  13.495  2.4353 -1.3980 -1.0888
 3839TIP3   OH232931   4.579   1.271   5.508 -0.3338 -0.0130 -0.7000
 3839TIP3    H132932   4.651   1.296   5.567 -2.7876  1.1959  2.0104
 3839TIP3    H232933   4.605   1.307   5.423  1.6578  1.5462  0.4653
 3840TIP3   OH232934   0.765   0.065   1.196  0.5525  0.0948  0.1994
 3840TIP3    H132935   0.802   0.095   1.112  1.3509  0.1463  0.5603
 3840TIP3    H232936   0.834   0.011   1.234  0.3166  0.3397  0.9770
 3841TIP3   OH232937   2.169   4.201  11.446 -0.2451 -0.1997 -0.4879
 3841TIP3    H132938   2.218   4.132  11.403  1.2020  0.8712 -0.6371
 3841TIP3    H232939   2.079   4.190  11.414 -0.2707 -2.5170  0.1873
 3842TIP3   OH232940   4.943   5.006  12.973  0.6344  0.6520  0.1333
 3842TIP3    H132941   5.013   4.955  13.016  1.6898  0.7003 -1.4460
 3842TIP3    H232942   4.885   4.940  12.937  1.3086  0.5572 -0.8090
 3843TIP3   OH232943   3.375   1.746  14.190  0.5819  0.0873  0.1705
 3843TIP3    H132944   3.436   1.807  14.231  0.2058  0.9456 -0.5039
 3843TIP3    H232945   3.289   1.773  14.221  0.1789  1.4414 -1.9395
 3844TIP3   OH232946   2.097   0.615   1.689  0.2087  0.0530  0.6968
 3844TIP3    H132947   2.133   0.548   1.746 -0.8522  0.1559  1.5067
 3844TIP3    H232948   2.144   0.695   1.714 -2.7075  0.9562  4.1533
 3845TIP3   OH232949   0.992   5.956  16.210 -0.3951  0.0133  0.0473
 3845TIP3    H132950   1.055   5.956  16.138  0.6520  1.2954  0.8936
 3845TIP3    H232951   0.930   5.887  16.189 -0.5715  0.8631 -2.4479
 3846TIP3   OH232952   0.194   6.277  14.290 -0.2135  0.1503 -0.5665
 3846TIP3    H132953   0.148   6.305  14.210  0.3096  1.3735 -0.4683
 3846TIP3    H232954   0.286   6.274  14.264 -0.0420  0.5558 -0.0161
 3847TIP3   OH232955   5.482   2.999   2.915 -0.0685 -0.0840  0.3109
 3847TIP3    H132956   5.523   3.055   2.848 -1.1999  0.0554 -0.2765
 3847TIP3    H232957   5.392   2.987   2.885  0.2383 -2.5938  0.1939
 3848TIP3   OH232958   5.881   5.872  16.822 -0.4863  0.8335 -0.1540
 3848TIP3    H132959   5.921   5.882  16.908  1.6188  0.8242 -1.0719
 3848TIP3    H232960   5.893   5.780  16.800 -0.1691  1.0274 -0.8281
 3849TIP3   OH232961   4.712   5.775  17.053  0.2142  0.4153  0.5342
 3849TIP3    H132962   4.794   5.823  17.040 -0.0541  1.0936  1.2466
 3849TIP3    H232963   4.711   5.756  17.147 -1.1333  1.7065  0.8133
 3850TIP3   OH232964   2.323   5.008   2.150 -0.2215 -0.8126  0.2368
 3850TIP3    H132965   2.314   5.044   2.239 -1.3069  1.1143 -0.5859
 3850TIP3    H232966   2.302   5.082   2.093 -1.9679 -2.6178 -1.6067
 3851TIP3   OH232967   4.084   6.461  13.869 -0.4170 -0.2328  1.1137
 3851TIP3    H132968   4.134   6.509  13.935  0.7760  0.8633 -0.5413
 3851TIP3    H232969   3.993   6.473  13.896 -0.0231  1.1128  1.9505
 3852TIP3   OH232970   6.463   3.447  16.765 -0.3869  0.2643 -0.2832
 3852TIP3    H132971   6.389   3.393  16.737 -0.6294 -0.1964  1.1653
 3852TIP3    H232972   6.535   3.419  16.709 -0.2266 -2.3946  1.0993
 3853TIP3   OH232973   6.152   2.750   5.637 -0.2408  0.0443  0.3876
 3853TIP3    H132974   6.151   2.796   5.721  1.7715  0.6028  0.1595
 3853TIP3    H232975   6.061   2.749   5.609 -0.7924  0.8978  2.0108
 3854TIP3   OH232976   4.267   0.064  14.700 -0.1594  0.2245 -0.3660
 3854TIP3    H132977   4.228   0.064  14.787 -0.8939  2.0000 -0.6589
 3854TIP3    H232978   4.203   0.017  14.646  0.9713 -2.2174  0.2492
 3855TIP3   OH232979   1.073   5.998  16.480 -0.1071  0.4019 -0.6297
 3855TIP3    H132980   1.073   5.986  16.385  0.2197  0.6443 -0.6611
 3855TIP3    H232981   1.141   6.064  16.496 -1.6598  2.0249 -0.4359
 3856TIP3   OH232982   5.912   0.119   2.031 -0.4423  0.6527  0.3486
 3856TIP3    H132983   5.897   0.054   2.099 -2.5095 -0.1525 -0.7512
 3856TIP3    H232984   5.929   0.200   2.078 -0.0594 -0.2326  1.7879
 3857TIP3   OH232985   2.426   0.646  14.466 -0.1953 -0.0863 -0.0732
 3857TIP3    H132986   2.373   0.715  14.425 -2.1202 -1.7911 -0.6149
 3857TIP3    H232987   2.414   0.659  14.560 -1.5866 -0.4001 -0.1841
 3858TIP3   OH232988   2.923   1.374   3.253  0.1150  0.3920 -0.2405
 3858TIP3    H132989   3.007   1.344   3.220 -0.4792 -0.2579 -1.2134
 3858TIP3    H232990   2.944   1.449   3.308  1.3122  0.3342 -0.5996
 3859TIP3   OH232991   5.934   5.336  16.164  0.8542  0.2818  0.3302
 3859TIP3    H132992   5.982   5.397  16.220  1.3178  0.3949 -0.1790
 3859TIP3    H232993   5.888   5.279  16.225  1.6425  0.1689  0.8384
 3860TIP3   OH232994   0.259   3.859  17.122 -0.6740 -0.0402 -0.7235
 3860TIP3    H132995   0.242   3.813  17.040 -1.4405  2.0816 -1.8274
 3860TIP3    H232996   0.353   3.876  17.121 -0.8896  1.3439 -2.0009
 3861TIP3   OH232997   5.187   3.909  13.222 -0.7420 -0.1520 -0.0842
 3861TIP3    H132998   5.145   3.860  13.293  0.2987 -0.1031  0.5883
 3861TIP3    H232999   5.229   3.842  13.168  0.6602 -0.0423  0.8217
 3862TIP3   OH233000   2.866   2.389   2.114 -0.1470 -0.0673 -0.0761
 3862TIP3    H133001   2.776   2.361   2.093 -0.2221  0.6612 -0.7827
 3862TIP3    H233002   2.918   2.357   2.040  0.1970 -0.5260  0.3535
 3863TIP3   OH233003   6.633   5.775   0.417 -0.0163  0.0995 -0.4672
 3863TIP3    H133004   6.697   5.708   0.393 -1.3924 -1.2125 -0.6275
 3863TIP3    H233005   6.639   5.781   0.513 -0.1360 -0.5492 -0.4132
 3864TIP3   OH233006   3.880   1.458   0.182  0.7436 -0.0581 -0.2755
 3864TIP3    H133007   3.846   1.372   0.207 -0.3197  0.1570 -0.9142
 3864TIP3    H233008   3.852   1.517   0.252  2.1657 -0.3513  0.5758
 3865TIP3   OH233009   6.500   0.208   6.269 -0.0343  0.3993  0.2340
 3865TIP3    H133010   6.423   0.246   6.312 -0.7556  0.3088 -0.9367
 3865TIP3    H233011   6.574   0.241   6.320 -0.7236  2.2204  0.1521
 3866TIP3   OH233012   1.127   6.708  15.738  0.0163  0.2027 -0.0652
 3866TIP3    H133013   1.106   6.739  15.649 -0.5135  0.1937  0.0568
 3866TIP3    H233014   1.093   6.619  15.741 -2.7305  1.1998  1.1272
 3867TIP3   OH233015   1.069   4.632   0.888 -0.4674 -0.1875  0.1619
 3867TIP3    H133016   0.976   4.649   0.872 -0.2603  0.6795 -0.1801
 3867TIP3    H233017   1.111   4.717   0.875  0.4257 -0.6548 -0.0786
 3868TIP3   OH233018   0.432   1.410  13.990 -0.2899  0.0515 -0.3726
 3868TIP3    H133019   0.384   1.333  14.019 -0.3466  0.6425  1.2144
 3868TIP3    H233020   0.365   1.477  13.977 -0.2721 -0.2127 -2.0264
 3869TIP3   OH233021   1.090   3.575   4.824 -0.3586 -0.7133 -0.6096
 3869TIP3    H133022   1.100   3.586   4.919 -0.3605  0.1208 -0.6953
 3869TIP3    H233023   1.053   3.487   4.813 -1.9260 -0.2091  0.2695
 3870TIP3   OH233024   5.294   5.416   1.077  0.5874  0.3814  0.0253
 3870TIP3    H133025   5.216   5.471   1.088  0.1553 -0.1460 -0.3334
 3870TIP3    H233026   5.364   5.464   1.123  0.4365  1.6572 -1.0265
 3871TIP3   OH233027   6.651   2.118  12.695  0.2027 -0.4868 -0.2374
 3871TIP3    H133028   6.603   2.094  12.774 -0.4221 -0.4482 -0.5969
 3871TIP3    H233029   6.706   2.192  12.721 -1.0455  0.4406 -0.1832
 3872TIP3   OH233030   0.840   6.462  13.576  0.0324  0.4253  0.4023
 3872TIP3    H133031   0.798   6.526  13.633  1.4584  0.7019  1.1800
 3872TIP3    H233032   0.920   6.504  13.546  1.8645 -1.5148  2.2333
 3873TIP3   OH233033   6.716   6.001   4.041 -0.3358 -0.0878 -0.2898
 3873TIP3    H133034   6.746   6.041   4.122 -1.3627 -0.3661  0.2469
 3873TIP3    H233035   6.625   6.029   4.033 -0.9045 -1.7974 -0.2138
 3874TIP3   OH233036   3.167   0.788   4.461  0.1458  0.0705 -0.5566
 3874TIP3    H133037   3.150   0.835   4.543 -0.1111 -0.8417 -0.0786
 3874TIP3    H233038   3.094   0.727   4.452  1.9814 -2.4552  0.4783
 3875TIP3   OH233039   2.755   1.083  11.080  0.2936 -0.1136 -0.1990
 3875TIP3    H133040   2.766   0.990  11.060 -0.7150  0.0664 -1.7803
 3875TIP3    H233041   2.680   1.086  11.139  0.4634 -0.3132  0.0281
 3876TIP3   OH233042   6.095   0.587  13.748  0.2763 -0.2215  0.3606
 3876TIP3    H133043   6.128   0.510  13.701 -1.1077 -0.2188 -0.7031
 3876TIP3    H233044   6.159   0.656  13.731  0.3510 -0.5196 -0.6659
 3877TIP3   OH233045   2.991   4.148  11.581 -0.0021  0.5414 -0.2360
 3877TIP3    H133046   2.989   4.210  11.508  3.0876  0.1078 -0.8509
 3877TIP3    H233047   2.947   4.070  11.547 -0.0089  0.8974 -1.0688
 3878TIP3   OH233048   3.877   3.945   2.102  0.3347 -0.2676 -0.2919
 3878TIP3    H133049   3.923   4.001   2.165 -0.4330  1.6369 -1.3497
 3878TIP3    H233050   3.945   3.915   2.042  1.1209 -2.2918  1.4679
 3879TIP3   OH233051   0.684   1.369  12.293  0.0796  0.3699  0.1678
 3879TIP3    H133052   0.746   1.413  12.235  0.5813  0.1065  0.5000
 3879TIP3    H233053   0.603   1.366  12.243  0.5549 -0.0326 -0.6052
 3880TIP3   OH233054   4.954   6.554  14.134  0.7775 -0.2471 -0.5931
 3880TIP3    H133055   4.916   6.556  14.046  0.5138  1.6819 -0.4723
 3880TIP3    H233056   5.048   6.546  14.119  0.7421  0.1584 -1.0512
 3881TIP3   OH233057   4.022   4.448  16.777 -0.1077 -0.3304  0.2591
 3881TIP3    H133058   4.020   4.402  16.861  0.9973 -0.7386  0.0870
 3881TIP3    H233059   3.930   4.458  16.752 -0.4101 -1.2686  0.9502
 3882TIP3   OH233060   5.114   3.273   2.992  0.4010 -0.2956 -0.4932
 3882TIP3    H133061   5.109   3.366   3.013 -0.2627 -0.4658  0.1410
 3882TIP3    H233062   5.115   3.228   3.077  1.6793 -0.8393 -0.7692
 3883TIP3   OH233063   4.648   6.251  12.226 -0.1983 -0.6875  0.1554
 3883TIP3    H133064   4.647   6.236  12.321 -0.5842 -0.6823  0.1562
 3883TIP3    H233065   4.682   6.340  12.215  0.4884 -0.9347  0.2498
 3884TIP3   OH233066   2.892   3.221  15.690 -0.0953 -0.1904  0.3866
 3884TIP3    H133067   2.882   3.190  15.600 -2.0496 -0.2023  0.5668
 3884TIP3    H233068   2.864   3.148  15.744 -2.0145  0.8576  0.8896
 3885TIP3   OH233069   6.198   0.698  11.288 -0.0786  0.4289 -0.0616
 3885TIP3    H133070   6.253   0.772  11.265  0.4425  0.3300  0.7962
 3885TIP3    H233071   6.125   0.701  11.227  0.8434  0.6042 -1.1774
 3886TIP3   OH233072   0.928   2.061  16.878  0.3733 -0.0893  0.0053
 3886TIP3    H133073   0.938   2.077  16.972  0.8702  3.0282 -0.4743
 3886TIP3    H233074   1.013   2.027  16.850  0.6074  0.0669  0.5107
 3887TIP3   OH233075   2.718   0.959   4.470  0.3910  0.2406  0.4875
 3887TIP3    H133076   2.809   0.985   4.459  0.6561 -0.4986  0.8807
 3887TIP3    H233077   2.720   0.890   4.537 -0.5234  0.6422  0.9580
 3888TIP3   OH233078   1.880   1.059   3.369 -0.6067 -0.6530  0.1402
 3888TIP3    H133079   1.862   0.967   3.388  0.6985 -0.8759  0.4433
 3888TIP3    H233080   1.902   1.060   3.276 -1.0231 -0.5816  0.0436
 3889TIP3   OH233081   6.431   0.289  10.482  0.3032  0.0921  0.5852
 3889TIP3    H133082   6.440   0.239  10.563  1.4725 -0.1614  0.3185
 3889TIP3    H233083   6.505   0.262  10.428 -0.9276 -0.4244 -0.9601
 3890TIP3   OH233084   6.184   6.463   5.388  0.0809  0.4862 -0.2538
 3890TIP3    H133085   6.151   6.524   5.454  0.8719 -0.1479  0.7626
 3890TIP3    H233086   6.277   6.487   5.378  0.1721  0.0286 -0.5295
 3891TIP3   OH233087   4.062   3.857   1.913 -0.0574 -0.1604  0.1384
 3891TIP3    H133088   4.087   3.787   1.973  1.2583 -0.3531 -0.6077
 3891TIP3    H233089   4.101   3.833   1.829  2.9138  2.7984  0.4560
 3892TIP3   OH233090   3.811   4.365  14.960  0.0141  0.4301  0.3290
 3892TIP3    H133091   3.847   4.416  14.887 -1.0661  1.3734  0.4276
 3892TIP3    H233092   3.746   4.308  14.920 -1.3143  1.6749  0.6560
 3893TIP3   OH233093   4.680   4.875   1.429  0.4617 -0.2267  0.4332
 3893TIP3    H133094   4.608   4.824   1.466 -0.1329  0.0252 -0.3357
 3893TIP3    H233095   4.748   4.811   1.411 -0.3282 -0.8099 -0.6429
 3894TIP3   OH233096   4.500   0.852  15.621  0.3852  0.2751  0.2905
 3894TIP3    H133097   4.481   0.775  15.675  0.7355 -0.6887 -0.9032
 3894TIP3    H233098   4.500   0.819  15.531 -0.5438  1.9016 -0.3550
 3895TIP3   OH233099   2.043   1.930   0.043  0.2753  0.4619  0.0350
 3895TIP3    H133100   1.997   1.982   0.108  0.9087  0.5872  0.3836
 3895TIP3    H233101   2.079   1.856   0.092  0.3095  0.2730 -0.2683
 3896TIP3   OH233102   0.596   5.463   1.250 -0.2310 -1.1558 -0.5779
 3896TIP3    H133103   0.579   5.368   1.254 -2.4863 -0.8150 -0.4271
 3896TIP3    H233104   0.571   5.488   1.162 -1.7090 -0.4059  0.0160
 3897TIP3   OH233105   6.660   4.193   1.731 -0.2218 -0.1466 -0.1673
 3897TIP3    H133106   6.735   4.232   1.777  0.8910 -0.4662 -1.6367
 3897TIP3    H233107   6.636   4.257   1.665 -1.5835  0.1555  0.5780
 3898TIP3   OH233108   2.835   2.280  12.816 -0.4809 -0.0967  0.7037
 3898TIP3    H133109   2.895   2.325  12.876  0.0817  0.2623 -0.1040
 3898TIP3    H233110   2.865   2.307  12.729 -2.4308  0.8827  0.2890
 3899TIP3   OH233111   0.797   0.271  14.039  0.0881  0.0871  0.0368
 3899TIP3    H133112   0.759   0.313  13.963 -0.5690  0.2670  0.4567
 3899TIP3    H233113   0.724   0.258  14.099  0.6205  0.1241  0.7144
 3900TIP3   OH233114   1.859   4.445  13.619 -0.5020  0.3151 -0.0028
 3900TIP3    H133115   1.770   4.410  13.628 -0.7700  1.1473  0.6573
 3900TIP3    H233116   1.849   4.520  13.560 -0.5186  1.3837  1.3222
 3901TIP3   OH233117   4.574   5.218   0.209  0.0456 -0.2504 -0.4329
 3901TIP3    H133118   4.620   5.134   0.203  2.4541  1.1194 -3.6357
 3901TIP3    H233119   4.600   5.253   0.294  0.6941 -1.7894  0.0489
 3902TIP3   OH233120   0.125   6.581   2.324 -0.0835 -0.1189 -0.2567
 3902TIP3    H133121   0.096   6.594   2.233  0.9448  2.0515 -0.3408
 3902TIP3    H233122   0.056   6.528   2.364 -0.9995 -0.3729 -2.0670
 3903TIP3   OH233123   4.602   0.820   2.139 -0.0801 -0.3162  0.2387
 3903TIP3    H133124   4.659   0.808   2.215 -0.0696  1.5627  0.5703
 3903TIP3    H233125   4.634   0.757   2.075  1.6732 -0.0702  0.8139
 3904TIP3   OH233126   5.530   3.379  10.537 -0.1549  0.1872 -0.1665
 3904TIP3    H133127   5.486   3.462  10.518 -1.3319 -0.0963  1.0876
 3904TIP3    H233128   5.458   3.316  10.543  0.5141 -0.5029  0.9158
 3905TIP3   OH233129   2.206   5.531   2.618 -0.1801  0.6336 -0.0215
 3905TIP3    H133130   2.211   5.459   2.681  0.1651 -0.0930 -0.8504
 3905TIP3    H233131   2.206   5.487   2.532  2.5396  1.6797 -0.6558
 3906TIP3   OH233132   1.255   5.145  10.386 -0.1824 -0.2805  0.2148
 3906TIP3    H133133   1.254   5.183  10.474 -1.3310 -1.1356  0.5951
 3906TIP3    H233134   1.183   5.081  10.387  0.2963 -0.8628 -1.0961
 3907TIP3   OH233135   1.131   6.519  14.240  0.3305 -0.2778 -0.5477
 3907TIP3    H133136   1.184   6.476  14.172  0.0483  0.3371 -1.1690
 3907TIP3    H233137   1.156   6.475  14.321  1.3671 -0.4002 -0.9157
 3908TIP3   OH233138   3.788   1.318   1.466 -0.1533  0.4379  0.3400
 3908TIP3    H133139   3.753   1.363   1.543  2.8369  1.4668  1.2551
 3908TIP3    H233140   3.813   1.389   1.407 -0.6003 -0.2838 -0.7399
 3909TIP3   OH233141   1.311   1.158  16.927  0.1821  0.1369  0.1971
 3909TIP3    H133142   1.300   1.092  16.859 -0.4572 -0.1401  0.5615
 3909TIP3    H233143   1.233   1.213  16.921  0.1933  0.2038  0.6014
 3910TIP3   OH233144   3.854   2.837   5.211 -0.2699  0.3440  0.3745
 3910TIP3    H133145   3.768   2.848   5.253 -0.2088  2.1312  0.1212
 3910TIP3    H233146   3.838   2.777   5.138 -1.5328  1.3803 -0.2443
 3911TIP3   OH233147   0.500   3.113   5.322 -0.4217 -0.0769 -0.4498
 3911TIP3    H133148   0.529   3.119   5.232  0.3892 -0.9383 -0.2560
 3911TIP3    H233149   0.464   3.199   5.342  0.9754  0.6693 -1.0552
 3912TIP3   OH233150   2.202   5.957   5.070 -0.5612 -0.3585  0.2051
 3912TIP3    H133151   2.164   6.044   5.061 -0.3712 -0.3168 -0.2491
 3912TIP3    H233152   2.154   5.916   5.142  0.1370  0.5416  1.1939
 3913TIP3   OH233153   1.197   5.982  14.971 -0.9415 -0.0556 -0.0100
 3913TIP3    H133154   1.197   6.034  14.890 -1.1182  1.4503  0.9150
 3913TIP3    H233155   1.108   5.949  14.978 -0.8872 -0.3204 -0.4917
 3914TIP3   OH233156   4.706   0.980  12.999 -0.3498  0.3021  0.7563
 3914TIP3    H133157   4.788   0.955  12.958 -0.0020 -0.0718  1.6444
 3914TIP3    H233158   4.718   1.072  13.024  0.2889 -0.1016  2.0062
 3915TIP3   OH233159   0.297   0.019  15.470 -0.0336  0.1895 -0.5822
 3915TIP3    H133160   0.287  -0.016  15.559 -1.3893 -1.1867 -1.2221
 3915TIP3    H233161   0.265  -0.051  15.413  3.1564  0.0328 -2.3652
 3916TIP3   OH233162   4.701   6.763   1.175  1.4816 -0.2839  0.1432
 3916TIP3    H133163   4.692   6.740   1.083  0.9711  2.7805 -0.7034
 3916TIP3    H233164   4.641   6.704   1.221  0.4094 -0.7257 -1.7235
 3917TIP3   OH233165   2.025   1.162  12.092  0.1332 -0.3681 -0.1805
 3917TIP3    H133166   1.936   1.130  12.110  0.5394 -1.6224 -0.3447
 3917TIP3    H233167   2.012   1.230  12.026 -1.0645  2.1230  2.4059
 3918TIP3   OH233168   1.667   3.659  11.221 -0.4326  0.3208 -0.0710
 3918TIP3    H133169   1.716   3.589  11.265 -0.5222  0.0276 -0.4280
 3918TIP3    H233170   1.583   3.619  11.200 -1.2157  1.1340  1.4344
 3919TIP3   OH233171   2.114   4.815  16.748  0.2602  0.0110  0.0314
 3919TIP3    H133172   2.166   4.885  16.788  0.1268 -0.9954  2.0870
 3919TIP3    H233173   2.172   4.739  16.749 -0.5199 -0.5953  0.4321
 3920TIP3   OH233174   2.695   4.309  13.754  0.4824  0.1913  0.3607
 3920TIP3    H133175   2.655   4.323  13.669 -0.9464  0.8444  1.0967
 3920TIP3    H233176   2.656   4.376  13.810 -0.1225 -1.4351  2.0042
 3921TIP3   OH233177   2.160   5.159   0.210  0.1590 -0.4020  0.6360
 3921TIP3    H133178   2.199   5.198   0.132  1.9064 -2.0709  0.5937
 3921TIP3    H233179   2.213   5.082   0.228 -1.7650 -1.5178  2.0021
 3922TIP3   OH233180   2.552   4.810  13.721  0.1542  0.1805  0.0910
 3922TIP3    H133181   2.493   4.864  13.773  0.0572  1.0946 -0.9170
 3922TIP3    H233182   2.503   4.729  13.705 -0.6047  0.6957 -0.2473
 3923TIP3   OH233183   1.060   0.932  13.573  0.1968 -0.1590  0.2850
 3923TIP3    H133184   1.044   1.014  13.527  1.9301  0.7499  1.2031
 3923TIP3    H233185   0.975   0.907  13.609 -0.7451  0.2201 -1.5404
 3924TIP3   OH233186   0.025   2.991   2.731  0.2474  0.1523  0.6615
 3924TIP3    H133187   0.002   2.938   2.654 -0.9785  1.7123 -0.1020
 3924TIP3    H233188   0.121   2.996   2.727  0.2836 -0.6897 -0.1375
 3925TIP3   OH233189   0.323   4.675   4.855 -0.1613 -0.1968  0.0491
 3925TIP3    H133190   0.398   4.701   4.908 -1.3865  0.3809  1.5966
 3925TIP3    H233191   0.267   4.752   4.853 -0.5971 -0.5195 -1.3284
 3926TIP3   OH233192   1.536   5.772   1.037 -0.0146 -0.2432  0.4462
 3926TIP3    H133193   1.520   5.780   0.943 -0.9956  1.2026  0.7051
 3926TIP3    H233194   1.465   5.717   1.070  0.2375 -0.6169  0.3664
 3927TIP3   OH233195   5.723   3.380  16.902  0.4226  0.2352 -0.0312
 3927TIP3    H133196   5.790   3.376  16.833 -0.2020 -1.0079 -0.5988
 3927TIP3    H233197   5.681   3.465  16.889  0.5265  0.1559 -0.9935
 3928TIP3   OH233198   5.904   2.674   0.547 -0.0619  0.4930  0.2783
 3928TIP3    H133199   5.884   2.750   0.493 -1.9413  1.3221  1.9821
 3928TIP3    H233200   5.989   2.695   0.586  0.1812  0.9891 -0.4975
 3929TIP3   OH233201   5.693   1.724   4.940 -1.0946  0.4469  0.0008
 3929TIP3    H133202   5.751   1.796   4.916 -1.3456  1.3359  1.9214
 3929TIP3    H233203   5.605   1.754   4.914 -1.0087  0.1293 -0.6778
 3930TIP3   OH233204   2.533   6.377   1.892 -0.0590  0.2385 -0.0360
 3930TIP3    H133205   2.466   6.369   1.825 -0.5718 -0.8538  0.5833
 3930TIP3    H233206   2.584   6.455   1.866  0.2735 -0.6065 -2.1291
 3931TIP3   OH233207   0.786   0.575   3.016 -0.1637 -0.1744 -0.1587
 3931TIP3    H133208   0.867   0.614   2.984  0.4042  0.1356  1.5780
 3931TIP3    H233209   0.733   0.562   2.937  1.8316 -1.0369 -1.4203
 3932TIP3   OH233210   3.469   5.826   3.775 -0.5200 -0.2355 -0.0812
 3932TIP3    H133211   3.499   5.752   3.827  2.7824  0.1764 -1.1691
 3932TIP3    H233212   3.401   5.790   3.718  0.9123 -2.4245 -0.5014
 3933TIP3   OH233213   4.581   5.645   5.376  0.2055  0.1826 -0.0994
 3933TIP3    H133214   4.633   5.711   5.423  0.7891 -1.8336  2.2919
 3933TIP3    H233215   4.590   5.669   5.284  2.0671  2.2432  0.5144
 3934TIP3   OH233216   4.331   4.082   1.032 -0.0126  0.2062 -0.0657
 3934TIP3    H133217   4.265   4.074   1.101 -1.9390  2.9223 -1.4115
 3934TIP3    H233218   4.303   4.020   0.965 -1.6935  1.8170 -0.9183
 3935TIP3   OH233219   4.276   5.757   5.189  0.0021 -0.3114 -0.2077
 3935TIP3    H133220   4.322   5.831   5.228 -0.3589  0.1154 -0.5737
 3935TIP3    H233221   4.343   5.709   5.141  0.3581 -0.5812  0.5537
 3936TIP3   OH233222   1.834   3.720  14.033  0.0029  0.4837  0.1734
 3936TIP3    H133223   1.791   3.699  14.116  0.7637 -0.9095  0.2437
 3936TIP3    H233224   1.915   3.764  14.058 -0.8352  2.1939  0.0653
 3937TIP3   OH233225   3.316   6.640   4.537 -0.5913 -0.0375  0.2471
 3937TIP3    H133226   3.291   6.549   4.522 -1.1888 -0.0119  1.0096
 3937TIP3    H233227   3.327   6.677   4.449  2.8038 -1.6302 -0.1511
 3938TIP3   OH233228   0.069   5.980   0.591 -0.4131 -0.1128 -0.3494
 3938TIP3    H133229  -0.020   5.996   0.622 -0.2927 -0.1675  0.0336
 3938TIP3    H233230   0.065   5.997   0.497 -0.7409  0.2424 -0.2733
 3939TIP3   OH233231   0.993   0.089   5.133 -0.3171 -0.2581 -0.9117
 3939TIP3    H133232   1.029   0.144   5.064 -0.0619  0.0073 -0.5734
 3939TIP3    H233233   1.065   0.078   5.195 -0.6126 -0.2952 -0.5689
 3940TIP3   OH233234   2.164   0.287  15.299 -0.1353 -0.1266  0.2615
 3940TIP3    H133235   2.138   0.249  15.215  0.8849  0.2715 -0.2635
 3940TIP3    H233236   2.219   0.362  15.275 -0.1696  0.2451  1.2870
 3941TIP3   OH233237   6.120   0.524   1.103 -0.0948  0.4262  0.3187
 3941TIP3    H133238   6.033   0.486   1.090  0.2150 -0.4183  0.6620
 3941TIP3    H233239   6.103   0.616   1.122 -0.8998  0.3253  0.1334
 3942TIP3   OH233240   5.648   4.097  11.543 -0.1459  0.2306 -0.6534
 3942TIP3    H133241   5.711   4.160  11.508  0.3280  0.4614  0.5445
 3942TIP3    H233242   5.703   4.028  11.582 -0.5060  1.4255  2.2426
 3943TIP3   OH233243   3.866   2.845  12.613  0.0929 -0.1108 -0.6623
 3943TIP3    H133244   3.786   2.806  12.580  0.0451  0.9279 -1.8528
 3943TIP3    H233245   3.851   2.940  12.609  1.4993  0.1179 -1.2758
 3944TIP3   OH233246   4.842   4.280  13.118  0.2675 -0.5229  0.0761
 3944TIP3    H133247   4.916   4.242  13.164  1.7680 -0.6876 -2.2852
 3944TIP3    H233248   4.788   4.205  13.093  0.8124 -0.6900 -0.6238
 3945TIP3   OH233249   2.009   5.263  14.552  0.8702 -0.0306 -0.0095
 3945TIP3    H133250   2.088   5.316  14.561  0.7473  0.1185  0.2201
 3945TIP3    H233251   1.985   5.270  14.460  1.2560 -0.2670 -0.1294
 3946TIP3   OH233252   3.457   3.652  16.107  0.1985 -0.4995 -0.1266
 3946TIP3    H133253   3.414   3.722  16.156  0.4371  1.5036 -2.5873
 3946TIP3    H233254   3.386   3.598  16.074 -0.1392 -0.0725 -0.1022
 3947TIP3   OH233255   4.594   4.071  12.034  0.0881 -0.2947  0.5177
 3947TIP3    H133256   4.563   4.155  12.066  0.7606  0.0492  0.3059
 3947TIP3    H233257   4.612   4.019  12.112  0.8164  0.1964  0.6838
 3948TIP3   OH233258   1.933   3.125  14.331  0.0381  0.1745 -0.1442
 3948TIP3    H133259   1.889   3.176  14.399 -1.1989  0.3063 -1.0153
 3948TIP3    H233260   1.945   3.038  14.371 -4.1312 -0.9991 -0.8956
 3949TIP3   OH233261   1.840   1.175  11.305 -0.0470  0.1787  0.6920
 3949TIP3    H133262   1.882   1.094  11.277 -0.2191  1.3411 -3.6569
 3949TIP3    H233263   1.749   1.166  11.277 -0.8025  0.8342  2.7475
 3950TIP3   OH233264   2.607   5.796   3.711 -0.2982 -0.1635 -0.2587
 3950TIP3    H133265   2.518   5.761   3.718  0.7482 -2.7928  1.0179
 3950TIP3    H233266   2.614   5.857   3.784 -0.9995 -0.0561 -0.2695
 3951TIP3   OH233267   2.976   4.791   5.484  0.0469  0.1421  0.2266
 3951TIP3    H133268   3.043   4.743   5.436  0.9916  0.4237  1.2280
 3951TIP3    H233269   2.927   4.723   5.531 -0.7297 -0.1108 -0.9048
 3952TIP3   OH233270   5.525   3.229   2.699 -0.4117  0.0329 -0.2003
 3952TIP3    H133271   5.437   3.255   2.669 -0.8828  0.7330  1.6291
 3952TIP3    H233272   5.555   3.167   2.633 -0.5828  2.7558 -3.1105
 3953TIP3   OH233273   6.120   5.907   3.154  0.4679  0.2603  0.1794
 3953TIP3    H133274   6.085   5.846   3.219 -0.9027  0.1950 -0.5745
 3953TIP3    H233275   6.117   5.858   3.071  1.1741  0.7076 -0.1248
 3954TIP3   OH233276   6.215   2.977   0.376  0.1574  0.5728  0.3492
 3954TIP3    H133277   6.122   2.960   0.389  0.0377  0.4163 -0.6020
 3954TIP3    H233278   6.219   3.021   0.291  0.9955  0.1165  0.1454
 3955TIP3   OH233279   0.749   1.921  13.894  0.2246  0.0535 -0.1201
 3955TIP3    H133280   0.840   1.902  13.870  0.2456 -0.5485  0.3974
 3955TIP3    H233281   0.712   1.965  13.818  1.4381  1.8866  0.2887
 3956TIP3   OH233282   3.525   3.652   4.270 -0.3751  0.3945 -0.4680
 3956TIP3    H133283   3.501   3.563   4.297  0.4421 -0.0251 -1.0636
 3956TIP3    H233284   3.443   3.700   4.268 -0.6946 -0.0822  0.8361
 3957TIP3   OH233285   3.706   0.152   3.329 -0.9559  0.2617 -0.1115
 3957TIP3    H133286   3.739   0.121   3.245  1.4225 -0.3744  0.9503
 3957TIP3    H233287   3.639   0.089   3.354  0.7352 -1.6027  0.0028
 3958TIP3   OH233288   0.924   6.341   0.391 -0.0528  0.1635  0.9383
 3958TIP3    H133289   0.894   6.414   0.446  1.0277  0.9877  0.4728
 3958TIP3    H233290   0.858   6.334   0.323  0.8303  2.0919 -0.1976
 3959TIP3   OH233291   3.268   1.954  11.178 -0.0405 -0.1982 -0.1745
 3959TIP3    H133292   3.271   1.961  11.273  0.0814  0.1577 -0.2012
 3959TIP3    H233293   3.183   1.991  11.154  0.6280  1.3254 -0.3203
 3960TIP3   OH233294   0.703   3.569  17.133  0.3083  0.4667  0.0057
 3960TIP3    H133295   0.691   3.613  17.217 -1.8056 -3.0285  1.7997
 3960TIP3    H233296   0.783   3.517  17.144  0.1075  0.1111 -0.1915
 3961TIP3   OH233297   3.720   2.818   2.110 -0.0210 -0.3143  0.7109
 3961TIP3    H133298   3.805   2.776   2.098 -1.0984 -2.1882 -1.0498
 3961TIP3    H233299   3.685   2.779   2.189  0.5655  0.1731  1.2225
 3962TIP3   OH233300   1.766   2.957  11.474 -0.0706 -0.4796 -0.0404
 3962TIP3    H133301   1.705   3.030  11.464 -0.0325 -0.5145 -0.5492
 3962TIP3    H233302   1.710   2.879  11.482 -0.0936 -0.5067 -0.4640
 3963TIP3   OH233303   1.475   5.092  13.319 -0.3159 -0.2990  0.3058
 3963TIP3    H133304   1.395   5.074  13.367 -1.3566 -0.6095 -1.4522
 3963TIP3    H233305   1.447   5.107  13.229  1.3376  2.3308  0.1215
 3964TIP3   OH233306   1.235   1.742  16.899  0.0212 -0.2351 -0.5044
 3964TIP3    H133307   1.163   1.797  16.927  1.0664  0.8106  0.2242
 3964TIP3    H233308   1.262   1.779  16.815  0.2565 -0.0883 -0.3645
 3965TIP3   OH233309   0.635   4.612   3.616  0.1250 -0.4018  0.3130
 3965TIP3    H133310   0.670   4.594   3.703 -0.6459 -0.6001  0.5929
 3965TIP3    H233311   0.577   4.538   3.598  0.7024 -0.6445 -0.6105
 3966TIP3   OH233312   0.539   0.578  10.741 -0.2423 -0.0044  0.4970
 3966TIP3    H133313   0.483   0.650  10.710  0.9456  1.1536  0.9428
 3966TIP3    H233314   0.553   0.524  10.663 -1.2156  0.1920  0.1675
 3967TIP3   OH233315   6.124   3.253   1.508  0.1078  0.1587  0.1836
 3967TIP3    H133316   6.096   3.162   1.513  2.0445 -0.4895  0.0453
 3967TIP3    H233317   6.214   3.252   1.541 -0.0320  2.1337  0.7503
 3968TIP3   OH233318   1.369   0.080   0.136  0.5625  0.6453 -0.2878
 3968TIP3    H133319   1.373   0.144   0.208  1.4855 -1.1596  1.3677
 3968TIP3    H233320   1.382   0.132   0.057 -1.2762  2.8476  0.7239
 3969TIP3   OH233321   4.383   0.928   5.833 -0.0081  0.0687  0.1407
 3969TIP3    H133322   4.371   0.896   5.922  0.8103  0.3003  0.3389
 3969TIP3    H233323   4.393   1.023   5.842  1.1705 -0.0259 -0.0763
 3970TIP3   OH233324   5.472   3.035   4.951 -0.0884 -0.0085 -0.0434
 3970TIP3    H133325   5.548   3.029   5.009 -0.1230 -1.1514 -0.0919
 3970TIP3    H233326   5.486   3.115   4.901  0.0936  0.8453  1.3204
 3971TIP3   OH233327   0.279   3.559   5.485  0.0276  0.1129 -0.0090
 3971TIP3    H133328   0.190   3.528   5.467 -0.1953 -0.4930  1.8699
 3971TIP3    H233329   0.266   3.633   5.545  0.8041 -0.8739  1.4272
 3972TIP3   OH233330   3.862   6.637   5.306 -0.5629  0.0872  0.3092
 3972TIP3    H133331   3.805   6.661   5.380  0.3718  1.0106  0.7497
 3972TIP3    H233332   3.941   6.603   5.347 -0.3240 -0.0725 -0.2795
 3973TIP3   OH233333   1.681   4.341  12.699  0.2215  0.7358  0.0911
 3973TIP3    H133334   1.773   4.360  12.713  0.9230 -2.8280  1.4574
 3973TIP3    H233335   1.637   4.374  12.777  0.9165 -0.4338  1.0169
 3974TIP3   OH233336   3.379   3.865  12.800  0.0305 -0.8072  0.4088
 3974TIP3    H133337   3.474   3.869  12.795 -0.0008 -0.8987 -0.2720
 3974TIP3    H233338   3.355   3.942  12.853  0.5585 -1.5484  1.7664
 3975TIP3   OH233339   2.374   2.649   4.281 -0.0284  0.0264  0.0826
 3975TIP3    H133340   2.446   2.627   4.223  1.2996 -0.5129  1.8474
 3975TIP3    H233341   2.325   2.567   4.292  0.2303 -0.0866  0.3988
 3976TIP3   OH233342   0.084   5.212   3.977 -0.0003 -0.1078 -0.0332
 3976TIP3    H133343   0.109   5.143   3.915 -0.7199  0.6301 -1.1782
 3976TIP3    H233344  -0.008   5.195   3.995 -0.0558  0.2808  0.0398
 3977TIP3   OH233345   3.325   4.704  15.363  0.0187 -0.2834  0.1391
 3977TIP3    H133346   3.276   4.627  15.335  0.0379 -0.4847  0.6378
 3977TIP3    H233347   3.303   4.771  15.299  0.2949 -0.8074 -0.5235
 3978TIP3   OH233348   6.629   1.600  13.364  0.1218  0.3186 -0.0962
 3978TIP3    H133349   6.710   1.644  13.387  0.1896  0.7199 -1.0303
 3978TIP3    H233350   6.602   1.555  13.443 -0.0763  2.2392  0.9963
 3979TIP3   OH233351   6.314   1.585  14.542  0.5599  0.3668  0.6979
 3979TIP3    H133352   6.289   1.674  14.516 -1.6525 -0.6153 -0.8366
 3979TIP3    H233353   6.384   1.598  14.607 -0.9463  3.2488  1.9329
 3980TIP3   OH233354   1.318   5.940  13.046 -0.2257 -0.5376  0.1923
 3980TIP3    H133355   1.266   6.010  13.085  1.5392 -0.0692  1.8898
 3980TIP3    H233356   1.272   5.859  13.069 -0.8818 -0.0690  0.5473
 3981TIP3   OH233357   6.469   4.413  12.600 -0.3133  0.0696 -0.1949
 3981TIP3    H133358   6.417   4.475  12.548  1.3433 -0.0372 -2.1099
 3981TIP3    H233359   6.523   4.468  12.656  0.8476  0.4041 -1.5894
 3982TIP3   OH233360   5.937   5.675   1.159  0.1134  0.0140  0.1079
 3982TIP3    H133361   5.993   5.745   1.192  0.1745 -0.1944  0.4608
 3982TIP3    H233362   5.973   5.596   1.199 -0.2682 -0.1530  0.1245
 3983TIP3   OH233363   5.919   2.106  16.019 -0.3840  0.3391  0.3527
 3983TIP3    H133364   5.826   2.125  16.030 -0.1998  1.2918  0.3882
 3983TIP3    H233365   5.958   2.190  15.993  0.7392  0.4147  2.0922
 3984TIP3   OH233366   5.585   2.293   0.505 -0.3529 -0.3298  0.1408
 3984TIP3    H133367   5.506   2.338   0.474 -1.4743  0.4261  3.6243
 3984TIP3    H233368   5.569   2.200   0.485 -0.8172  0.0816 -1.6144
 3985TIP3   OH233369   2.386   2.607   2.255  0.3769 -0.4000  0.1250
 3985TIP3    H133370   2.298   2.570   2.250 -0.3040  1.1019  0.4262
 3985TIP3    H233371   2.408   2.630   2.165  0.2033 -0.2117  0.1309
 3986TIP3   OH233372   6.776   1.718   0.239 -0.1499 -0.5505  0.5211
 3986TIP3    H133373   6.831   1.741   0.314  2.0772  1.2749 -1.5265
 3986TIP3    H233374   6.796   1.626   0.222  1.5772 -0.1753  0.4155
 3987TIP3   OH233375   5.129   4.865  12.755 -0.2847  0.2101  0.0132
 3987TIP3    H133376   5.139   4.939  12.815  0.7585 -0.3543  0.5563
 3987TIP3    H233377   5.147   4.903  12.668  0.8910  0.4797  0.3517
 3988TIP3   OH233378   3.323   4.742   0.610  0.2168  0.2567 -0.3569
 3988TIP3    H133379   3.325   4.833   0.640 -0.5723 -0.4997  2.2226
 3988TIP3    H233380   3.238   4.732   0.568  0.0891  0.5802 -0.1814
 3989TIP3   OH233381   6.687   5.070  14.440  0.3246  0.0967 -0.1282
 3989TIP3    H133382   6.675   5.082  14.346 -0.8374 -1.5851 -0.2282
 3989TIP3    H233383   6.626   5.131  14.481  0.5308  0.5313 -0.4648
 3990TIP3   OH233384   3.394   4.645   4.157  0.4051 -0.6064 -0.5390
 3990TIP3    H133385   3.438   4.579   4.210 -2.3328 -0.8736  1.6580
 3990TIP3    H233386   3.458   4.715   4.148  1.5993 -1.3098  1.6691
 3991TIP3   OH233387   3.346   1.157  13.143 -0.1135  0.3456 -0.1146
 3991TIP3    H133388   3.272   1.149  13.083  0.4287  0.2146 -0.7784
 3991TIP3    H233389   3.312   1.126  13.227 -1.4791  2.3957  0.1587
 3992TIP3   OH233390   6.212   1.426   2.751 -0.5146  0.4330  0.3076
 3992TIP3    H133391   6.221   1.432   2.656  2.0339  1.7294  0.5422
 3992TIP3    H233392   6.253   1.343   2.774 -0.4425  0.4688  0.3113
 3993TIP3   OH233393   0.538   2.077   3.793 -0.1968 -0.3091 -0.5163
 3993TIP3    H133394   0.565   1.987   3.814 -1.7810 -0.7732 -0.3210
 3993TIP3    H233395   0.506   2.071   3.702 -5.0995 -1.2338  0.9777
 3994TIP3   OH233396   4.139   3.330  13.553  0.3313 -0.2228 -0.2149
 3994TIP3    H133397   4.199   3.273  13.504 -0.4296 -1.3546  0.1177
 3994TIP3    H233398   4.104   3.390  13.487  1.3209  0.0201 -0.5352
 3995TIP3   OH233399   2.644   5.254  11.197 -0.0283 -0.1933 -0.5739
 3995TIP3    H133400   2.725   5.262  11.146  0.0699 -1.0424 -0.5574
 3995TIP3    H233401   2.584   5.208  11.140 -0.7476  1.0300 -0.8459
 3996TIP3   OH233402   2.815   4.316  13.028  0.5337 -0.6540  0.3621
 3996TIP3    H133403   2.826   4.364  12.946  0.1692 -0.7561  0.2501
 3996TIP3    H233404   2.724   4.288  13.027  0.4512 -0.4306  0.9272
 3997TIP3   OH233405   2.292   4.485   3.121  0.6013  0.2106 -0.1870
 3997TIP3    H133406   2.356   4.532   3.067  0.9767  0.9544  0.8871
 3997TIP3    H233407   2.330   4.397   3.131  0.1864 -0.1696 -1.7020
 3998TIP3   OH233408   1.698   0.240   2.521  0.3063 -0.1345 -0.2204
 3998TIP3    H133409   1.610   0.257   2.488  1.4366  2.8975 -2.0303
 3998TIP3    H233410   1.691   0.250   2.616 -0.8851  2.4820 -0.5246
 3999TIP3   OH233411   1.523   2.967   5.247 -0.0866  0.5942  0.1011
 3999TIP3    H133412   1.545   2.985   5.338  0.3768  1.5792 -0.1975
 3999TIP3    H233413   1.545   3.047   5.200  0.4771 -0.1779 -1.0118
 4000TIP3   OH233414   0.291   3.263   0.316  0.2240  0.0017 -0.3629
 4000TIP3    H133415   0.244   3.258   0.399 -0.1077  1.7183 -0.3992
 4000TIP3    H233416   0.258   3.190   0.265 -1.2053  0.1995  0.2306
 4001TIP3   OH233417   6.639   2.292  15.752 -0.3895 -0.8698 -0.3183
 4001TIP3    H133418   6.707   2.318  15.690 -0.7684 -0.5992 -0.6282
 4001TIP3    H233419   6.567   2.353  15.736 -1.1152 -1.8114 -0.7287
 4002TIP3   OH233420   4.577   2.569   1.223  0.0338  0.0036  0.4044
 4002TIP3    H133421   4.538   2.645   1.265  0.1160  1.5277 -2.0520
 4002TIP3    H233422   4.669   2.571   1.250 -0.2216  0.0435  1.3017
 4003TIP3   OH233423   2.202   1.286  15.340  0.0117 -0.0088  0.0287
 4003TIP3    H133424   2.156   1.313  15.420 -1.5931  1.7470 -1.3803
 4003TIP3    H233425   2.132   1.274  15.275  1.3856  0.8378 -1.7000
 4004TIP3   OH233426   0.928   4.876  14.080  1.0803  0.6389 -0.0869
 4004TIP3    H133427   1.017   4.865  14.114  0.9942  3.0634  1.1292
 4004TIP3    H233428   0.872   4.844  14.151  0.8885 -2.1505 -1.3615
 4005TIP3   OH233429   6.033   4.245   5.687  0.2418  0.1550  0.2799
 4005TIP3    H133430   6.109   4.203   5.728  1.0557 -0.1225 -1.4306
 4005TIP3    H233431   6.043   4.338   5.709 -0.6302 -0.2269  2.6167
 4006TIP3   OH233432   3.893   5.806  12.997 -0.2790  0.7616  0.6134
 4006TIP3    H133433   3.845   5.824  12.916  4.0637  1.7595 -2.0173
 4006TIP3    H233434   3.866   5.717  13.021 -1.1068  0.0739 -2.4146
 4007TIP3   OH233435   1.943   0.564  12.863  0.0814 -0.6225 -0.3690
 4007TIP3    H133436   1.861   0.597  12.900 -0.2666  0.5575 -2.0637
 4007TIP3    H233437   1.922   0.475  12.835 -1.7455  0.6833 -3.7525
 4008TIP3   OH233438   4.317   4.219   0.749  0.3322 -0.4742 -0.1172
 4008TIP3    H133439   4.233   4.215   0.703 -0.8678  0.1958  1.9117
 4008TIP3    H233440   4.310   4.295   0.807  2.3085 -0.4694  0.1922
 4009TIP3   OH233441   2.557   0.381   0.801  0.0692  0.9354  0.1081
 4009TIP3    H133442   2.577   0.434   0.878  2.7483 -0.2403  0.3459
 4009TIP3    H233443   2.483   0.327   0.827 -0.3555  1.9539  1.1265
 4010TIP3   OH233444   1.049   4.846  12.197  0.3080 -0.3727  0.1578
 4010TIP3    H133445   0.970   4.811  12.240  0.7587 -1.7579 -0.0744
 4010TIP3    H233446   1.043   4.815  12.107  1.1706 -0.5870  0.1650
 4011TIP3   OH233447   6.694   1.089  13.248 -0.0555  0.1440  0.3336
 4011TIP3    H133448   6.755   1.016  13.257 -2.5393 -2.3665 -1.1506
 4011TIP3    H233449   6.734   1.145  13.182  1.1316 -0.8869  0.1327
 4012TIP3   OH233450   6.607   5.323  15.837 -0.0882  0.3583  0.3510
 4012TIP3    H133451   6.559   5.404  15.853 -1.3275 -0.6044  1.8346
 4012TIP3    H233452   6.699   5.348  15.843 -0.4472  1.5887  1.1554
 4013TIP3   OH233453   4.201   5.997   2.563 -0.1343  0.3931  0.0609
 4013TIP3    H133454   4.271   6.010   2.626 -1.2785 -1.4397  1.8412
 4013TIP3    H233455   4.246   5.975   2.481  1.3626  1.4195  0.5726
 4014TIP3   OH233456   4.619   3.203   2.120 -0.3704 -0.8818  0.0751
 4014TIP3    H133457   4.591   3.161   2.038  1.1605 -0.3483 -0.7734
 4014TIP3    H233458   4.550   3.182   2.183 -1.8538 -0.8990 -1.4707
 4015TIP3   OH233459   0.505   0.238  14.755 -0.7551 -0.2237 -1.0649
 4015TIP3    H133460   0.571   0.244  14.687 -0.6785 -0.5775 -1.0246
 4015TIP3    H233461   0.436   0.299  14.728 -0.5089 -0.0147 -1.2141
 4016TIP3   OH233462   4.274   5.942   2.268 -0.2801 -0.3154 -0.1038
 4016TIP3    H133463   4.258   5.965   2.176  0.6392  0.4616 -0.0796
 4016TIP3    H233464   4.276   5.846   2.268  2.1605 -0.3568 -1.3773
 4017TIP3   OH233465   2.044   0.646   5.269 -0.1642 -0.6060 -0.8673
 4017TIP3    H133466   2.115   0.710   5.272  1.6173 -2.5072  1.3857
 4017TIP3    H233467   2.086   0.562   5.283 -2.8319 -1.8271  0.7393
 4018TIP3   OH233468   5.947   3.424  10.780  0.2124 -0.2720  0.4457
 4018TIP3    H133469   5.983   3.335  10.784  2.7528  0.5859 -1.3653
 4018TIP3    H233470   5.975   3.465  10.861  0.1401 -0.7094  0.6973
 4019TIP3   OH233471   1.013   3.359   2.939 -0.1453 -0.1627  1.2242
 4019TIP3    H133472   0.982   3.432   2.993 -1.2496 -0.7888  1.4696
 4019TIP3    H233473   1.081   3.317   2.993 -1.4934 -1.0109  2.3591
 4020TIP3   OH233474   1.916   5.295  10.895 -0.2355  0.1938  0.2912
 4020TIP3    H133475   1.993   5.286  10.951 -1.9230 -0.4153  2.6778
 4020TIP3    H233476   1.873   5.374  10.926 -1.4348 -0.3797  0.1300
 4021TIP3   OH233477   2.396   3.769  11.894 -0.2005  0.0602  0.4008
 4021TIP3    H133478   2.370   3.740  11.982  0.8035 -0.9072  0.3915
 4021TIP3    H233479   2.450   3.846  11.910 -2.9859  2.1925  0.4167
 4022TIP3   OH233480   1.034   0.898   4.065 -0.4278 -0.1928 -0.1089
 4022TIP3    H133481   0.979   0.976   4.055 -1.2640 -0.8132 -0.4354
 4022TIP3    H233482   1.117   0.923   4.026 -0.2602  0.9657  0.9261
 4023TIP3   OH233483   2.325   4.957   5.015 -0.0033 -0.0786 -0.1061
 4023TIP3    H133484   2.344   5.000   5.098  1.8162  1.1707 -1.1017
 4023TIP3    H233485   2.285   4.874   5.039 -0.8506  0.8818  1.9596
 4024TIP3   OH233486   1.684   6.386   2.769 -0.3964  0.8026  0.6889
 4024TIP3    H133487   1.737   6.315   2.804 -0.9331 -0.2526 -0.5353
 4024TIP3    H233488   1.622   6.343   2.710 -0.7579  2.2849 -0.0746
 4025TIP3   OH233489   6.124   3.372   3.593 -0.4982  0.0834 -0.0539
 4025TIP3    H133490   6.148   3.459   3.560  1.2783 -0.2559  0.2554
 4025TIP3    H233491   6.142   3.314   3.519  0.6768 -0.3122  0.5300
 4026TIP3   OH233492   5.759   6.300   2.183 -0.1390  0.0676  0.0567
 4026TIP3    H133493   5.781   6.320   2.092  1.6061 -1.8142 -0.0165
 4026TIP3    H233494   5.734   6.207   2.182 -0.2788  0.0684  1.4727
 4027TIP3   OH233495   6.000   1.341   4.530 -0.4782  0.4881  0.1825
 4027TIP3    H133496   5.946   1.336   4.450 -0.7777  1.3698  0.3274
 4027TIP3    H233497   6.090   1.332   4.498 -0.4382  2.7673 -0.5044
 4028TIP3   OH233498   6.046   0.784  15.448 -0.4114 -0.0956 -0.1121
 4028TIP3    H133499   6.050   0.766  15.542 -0.1557 -0.9904 -0.2866
 4028TIP3    H233500   5.958   0.820  15.434  0.1732  1.7734  0.7426
 4029TIP3   OH233501   2.087   6.527   5.123 -0.2261 -0.0779  0.0760
 4029TIP3    H133502   2.083   6.505   5.216 -0.4220 -2.0277 -0.3436
 4029TIP3    H233503   1.995   6.539   5.097 -0.1524  0.7671  0.1870
 4030TIP3   OH233504   5.548   0.224  10.946 -0.4955 -0.0937 -0.1329
 4030TIP3    H133505   5.546   0.139  10.901 -0.3041 -0.6938  0.9641
 4030TIP3    H233506   5.622   0.269  10.907 -0.0677 -0.7723 -0.1308
 4031TIP3   OH233507   6.549   0.683  11.328  0.5964  0.4222  0.5466
 4031TIP3    H133508   6.507   0.608  11.370 -0.0963  1.1106  1.1168
 4031TIP3    H233509   6.604   0.645  11.259 -1.7904 -0.4647 -0.9620
 4032TIP3   OH233510   0.673   4.120   4.826 -1.1167 -0.0470  0.1127
 4032TIP3    H133511   0.590   4.118   4.778 -1.6884  1.0948  0.9947
 4032TIP3    H233512   0.724   4.188   4.781 -0.9371 -0.2414  0.0199
 4033TIP3   OH233513   3.573   1.104  11.278  0.1412  0.4836  0.1733
 4033TIP3    H133514   3.544   1.187  11.240  0.6396  1.7026  2.3127
 4033TIP3    H233515   3.530   1.101  11.363  0.5889 -1.2130  0.3624
 4034TIP3   OH233516   0.856   2.291   5.220  0.4151 -0.5749 -0.6128
 4034TIP3    H133517   0.836   2.352   5.149 -1.6766 -0.8154 -0.2932
 4034TIP3    H233518   0.904   2.220   5.177  2.0828  0.8026 -1.1438
 4035TIP3   OH233519   3.113   5.644   5.739  0.3450 -0.0155 -0.2951
 4035TIP3    H133520   3.122   5.592   5.819 -0.3571 -2.4992 -1.7450
 4035TIP3    H233521   3.021   5.638   5.717  0.8420 -1.0018 -2.2993
 4036TIP3   OH233522   5.806   3.398   2.582  0.1385 -0.0150  0.0585
 4036TIP3    H133523   5.714   3.382   2.563 -0.2860  0.9116  1.2039
 4036TIP3    H233524   5.821   3.353   2.665  0.5807  0.2661  0.1321
 4037TIP3   OH233525   0.497   2.344  10.284  0.1418 -0.2744  0.2350
 4037TIP3    H133526   0.587   2.355  10.255 -0.3327 -1.2320 -1.7327
 4037TIP3    H233527   0.482   2.250  10.285 -0.7867 -0.1445  0.7564
 4038TIP3   OH233528   4.052   4.977  14.153  0.4546 -0.1584  0.2498
 4038TIP3    H133529   3.965   4.939  14.141  0.4807 -0.8062  1.7758
 4038TIP3    H233530   4.054   5.053  14.096 -0.9892 -0.3245 -0.0551
 4039TIP3   OH233531   4.796   0.921   4.343 -0.0904  0.3170  0.1468
 4039TIP3    H133532   4.830   1.004   4.377 -0.9714  1.0657 -0.7256
 4039TIP3    H233533   4.826   0.920   4.252  0.0930 -0.4420  0.2114
 4040TIP3   OH233534   6.451   2.510  14.062  0.2089  0.3548  0.0373
 4040TIP3    H133535   6.384   2.459  14.108 -1.5090  1.0885 -1.5087
 4040TIP3    H233536   6.418   2.600  14.065  0.6602  0.5939 -1.5420
 4041TIP3   OH233537   6.091   1.754   6.687  0.1442  0.3583 -0.2803
 4041TIP3    H133538   6.038   1.676   6.668  1.1063 -0.4105  0.1384
 4041TIP3    H233539   6.028   1.826   6.685 -0.4535 -0.1306 -2.7128
 4042TIP3   OH233540   6.608   4.956  15.241  0.3475  0.0024  0.5727
 4042TIP3    H133541   6.564   4.904  15.174  0.5725 -0.7854  1.0225
 4042TIP3    H233542   6.540   4.972  15.307 -0.4801  2.5954 -0.7868
 4043TIP3   OH233543   5.502   3.688  14.137 -0.0777 -1.0444  0.3221
 4043TIP3    H133544   5.548   3.709  14.055 -0.0190 -1.5340  0.2272
 4043TIP3    H233545   5.550   3.614  14.173  0.6436 -0.0857  1.4224
 4044TIP3   OH233546   0.491   3.022   4.799 -1.0836  0.0396 -0.4912
 4044TIP3    H133547   0.560   3.088   4.798 -0.9781  0.0005  1.1531
 4044TIP3    H233548   0.533   2.943   4.762 -1.0744  0.7266 -2.0146
 4045TIP3   OH233549   4.471   4.102  16.463 -0.2834  0.5154 -0.2807
 4045TIP3    H133550   4.465   4.079  16.370 -0.1116 -0.5875 -0.0280
 4045TIP3    H233551   4.455   4.020  16.509  1.9567  0.5365  0.6386
 4046TIP3   OH233552   0.370   5.819   2.022 -0.4389  0.0810  0.2859
 4046TIP3    H133553   0.291   5.846   1.975 -1.1364 -0.9241  0.8696
 4046TIP3    H233554   0.374   5.878   2.097 -0.1290  0.7133 -0.2093
 4047TIP3   OH233555   4.540   3.992   1.226  0.0649 -0.2319  0.0052
 4047TIP3    H133556   4.493   3.995   1.142 -0.9182  1.7732  0.5803
 4047TIP3    H233557   4.598   3.917   1.217  0.9880  0.6936 -3.0190
 4048TIP3   OH233558   1.798   1.165   1.528  0.2612 -0.2145 -0.5820
 4048TIP3    H133559   1.800   1.254   1.491  0.1763  1.5830  3.2477
 4048TIP3    H233560   1.890   1.137   1.527  0.9043  1.5601  1.4960
 4049TIP3   OH233561   4.072   3.773   3.290  0.1462 -0.4241  0.3075
 4049TIP3    H133562   4.109   3.726   3.365 -1.3090  0.2718  1.5117
 4049TIP3    H233563   4.146   3.818   3.251  0.6756  0.6326  2.4092
 4050TIP3   OH233564   0.290   6.683   0.872 -0.3905 -0.4186 -0.7273
 4050TIP3    H133565   0.342   6.609   0.903  0.0037  0.2031  0.1458
 4050TIP3    H233566   0.282   6.740   0.948  0.0973  0.8872 -1.6078
 4051TIP3   OH233567   2.819   2.598   4.345 -0.2683  0.4860 -0.5450
 4051TIP3    H133568   2.781   2.664   4.404 -2.3278 -0.1892 -1.0097
 4051TIP3    H233569   2.774   2.612   4.262 -0.2136 -1.0320 -0.8557
 4052TIP3   OH233570   6.258   3.026   2.551 -0.4219  0.0576  0.7065
 4052TIP3    H133571   6.268   3.063   2.639 -0.6547  0.1753  0.6833
 4052TIP3    H233572   6.215   3.095   2.500 -0.9133 -0.2697  0.6785
 4053TIP3   OH233573   2.894   1.784   1.750 -0.2383 -0.3552 -0.1663
 4053TIP3    H133574   2.968   1.773   1.690 -0.9336 -0.3703 -1.0311
 4053TIP3    H233575   2.819   1.750   1.702 -1.1291  1.2823  0.0250
 4054TIP3   OH233576   0.141   3.106   1.948  0.2975 -0.0216  0.5030
 4054TIP3    H133577   0.212   3.080   2.006 -1.4530 -2.8913  1.5630
 4054TIP3    H233578   0.063   3.105   2.003 -0.9788  0.2468 -1.2072
 4055TIP3   OH233579   6.010   0.786   0.807  0.4610  0.3925 -0.1067
 4055TIP3    H133580   6.085   0.820   0.855  0.9803  1.4664 -1.6248
 4055TIP3    H233581   5.935   0.834   0.842  0.4613 -0.5630  1.2899
 4056TIP3   OH233582   5.677   6.022  14.625 -0.2454 -0.0565 -0.4316
 4056TIP3    H133583   5.615   6.095  14.622  1.2716  1.3215  0.4146
 4056TIP3    H233584   5.760   6.061  14.652  1.1836 -1.7314 -2.0773
 4057TIP3   OH233585   1.442   1.779  12.571  0.4538 -0.0479 -0.3211
 4057TIP3    H133586   1.391   1.792  12.491  0.1491  2.5918  0.2243
 4057TIP3    H233587   1.427   1.687  12.593 -1.3299 -0.2541 -2.0300
 4058TIP3   OH233588   0.817   2.261   4.796  0.3594 -0.2576 -0.1816
 4058TIP3    H133589   0.780   2.173   4.790 -0.7331  0.1878 -0.1328
 4058TIP3    H233590   0.909   2.250   4.769  0.3556 -1.4763  0.2336
 4059TIP3   OH233591   5.252   1.735  11.375 -0.1720 -0.2586  0.7547
 4059TIP3    H133592   5.282   1.817  11.414 -0.8187 -0.1786  1.1002
 4059TIP3    H233593   5.175   1.760  11.324  0.8594 -0.3072 -0.8695
 4060TIP3   OH233594   5.076   2.434   6.278  0.3803 -0.9429  0.7889
 4060TIP3    H133595   5.015   2.370   6.316  0.9411 -1.1240  1.4080
 4060TIP3    H233596   5.106   2.393   6.197 -1.3500 -0.2559 -0.2517
 4061TIP3   OH233597   2.300   0.418  13.108  0.2431  0.2937 -0.1276
 4061TIP3    H133598   2.206   0.402  13.109  0.4405 -1.4604 -2.0699
 4061TIP3    H233599   2.330   0.395  13.196 -1.0065 -0.0022  0.2416
 4062TIP3   OH233600   3.885   4.101  16.242  0.0795  0.3926 -0.2653
 4062TIP3    H133601   3.934   4.072  16.165  0.2985 -1.7824  0.6357
 4062TIP3    H233602   3.948   4.093  16.314 -0.8710 -0.0799  0.5249
 4063TIP3   OH233603   6.758   3.209   5.246 -0.0103  0.2461 -0.1027
 4063TIP3    H133604   6.846   3.242   5.230 -0.1093  0.4394 -0.2553
 4063TIP3    H233605   6.757   3.121   5.209  0.1534  0.2027 -0.0006
 4064TIP3   OH233606   0.010   0.451   1.682  0.3127  0.5262  0.1815
 4064TIP3    H133607  -0.020   0.446   1.773  5.5599 -1.5198  2.1421
 4064TIP3    H233608   0.050   0.538   1.675  0.2851  0.5184 -0.0762
 4065TIP3   OH233609   3.729   0.676  11.498  0.2217 -0.2370 -0.1640
 4065TIP3    H133610   3.788   0.728  11.553 -0.3304  0.1623  0.0526
 4065TIP3    H233611   3.784   0.605  11.466  0.8589  0.1952 -0.0592
 4066TIP3   OH233612   2.083   5.621   4.400  0.2891 -0.0676  0.4549
 4066TIP3    H133613   2.032   5.645   4.478 -0.0999 -0.9636  0.4819
 4066TIP3    H233614   2.168   5.595   4.435 -0.5528 -2.6053  0.8549
 4067TIP3   OH233615   4.419   0.369   2.677  0.4224 -0.3732  0.1916
 4067TIP3    H133616   4.399   0.415   2.595  0.9163 -1.7688 -0.7402
 4067TIP3    H233617   4.387   0.428   2.745 -0.5363  0.5588 -1.0112
 4068TIP3   OH233618   5.488   3.103  11.864  0.6597 -0.5473  0.2203
 4068TIP3    H133619   5.401   3.085  11.898  0.6623  0.3883  0.7609
 4068TIP3    H233620   5.523   3.017  11.839 -0.3691 -0.9368  0.0875
 4069TIP3   OH233621   2.677   3.255  10.817 -0.0066 -0.5079  0.0704
 4069TIP3    H133622   2.589   3.282  10.842 -0.3151 -0.6680 -0.7945
 4069TIP3    H233623   2.735   3.319  10.858 -0.7101  1.5069 -1.8780
 4070TIP3   OH233624   5.303   3.983   3.267 -0.2000 -0.2492  0.0798
 4070TIP3    H133625   5.320   4.028   3.184 -0.8244 -0.1706 -0.0114
 4070TIP3    H233626   5.323   4.049   3.334 -0.9941  0.1291 -0.0505
 4071TIP3   OH233627   0.106   4.166  11.293  0.3296  0.1796 -0.1059
 4071TIP3    H133628   0.018   4.168  11.331  0.4229 -2.6524  0.4833
 4071TIP3    H233629   0.095   4.207  11.207 -1.2312  1.1224  0.4780
 4072TIP3   OH233630   0.021   1.609   4.437 -0.2155  0.3527  0.1703
 4072TIP3    H133631  -0.072   1.627   4.448 -0.3389 -0.5263  0.6086
 4072TIP3    H233632   0.033   1.520   4.470  0.3643 -0.4294 -1.9463
 4073TIP3   OH233633   4.407   4.661  16.559  0.4275 -0.5490  0.4134
 4073TIP3    H133634   4.351   4.685  16.485  0.9088  1.3811  0.6311
 4073TIP3    H233635   4.366   4.582  16.595 -1.7026  0.3211  0.0699
 4074TIP3   OH233636   4.331   4.494   2.264  0.2087 -0.3139 -0.0996
 4074TIP3    H133637   4.305   4.461   2.178 -0.8183 -1.2858  0.5453
 4074TIP3    H233638   4.252   4.536   2.298  0.1627 -1.1910  0.9289
 4075TIP3   OH233639   3.127   2.811   4.151 -0.1954 -0.2475  0.1221
 4075TIP3    H133640   3.152   2.763   4.230 -1.6066 -0.5599  0.4101
 4075TIP3    H233641   3.152   2.754   4.079  1.2590  0.1131  0.3157
 4076TIP3   OH233642   4.815   5.396   1.912  0.0846 -0.3268  0.0676
 4076TIP3    H133643   4.826   5.475   1.966 -2.1065  0.2425 -0.2200
 4076TIP3    H233644   4.889   5.340   1.937  2.1972  2.0965 -0.3068
 4077TIP3   OH233645   3.302   1.665  16.445 -0.1351 -0.5081 -0.1618
 4077TIP3    H133646   3.339   1.746  16.480 -2.4915  1.6540 -2.2701
 4077TIP3    H233647   3.225   1.648  16.499 -0.8674 -0.0594 -1.0320
 4078TIP3   OH233648   1.302   2.642  14.616 -0.4257  0.5002  0.0267
 4078TIP3    H133649   1.249   2.605  14.687  1.4228 -0.2343  1.1247
 4078TIP3    H233650   1.367   2.696  14.661  1.8612 -1.3274 -0.8746
 4079TIP3   OH233651   1.138   5.028   1.903  0.1215  0.2976  0.3396
 4079TIP3    H133652   1.181   5.083   1.968  0.6593  0.0194  0.2219
 4079TIP3    H233653   1.112   5.089   1.834  1.8011  0.2673 -0.3717
 4080TIP3   OH233654   5.164   5.669  14.058 -0.2655  0.0184  0.0756
 4080TIP3    H133655   5.134   5.654  13.968  0.5235 -1.4913  0.0337
 4080TIP3    H233656   5.086   5.696  14.105 -1.2517 -1.6648 -0.5217
 4081TIP3   OH233657   2.201   5.334   3.734 -0.0661 -0.5280  0.3954
 4081TIP3    H133658   2.238   5.386   3.663  0.2786 -2.8484 -1.2650
 4081TIP3    H233659   2.177   5.397   3.801 -1.1789  1.8916 -2.0946
 4082TIP3   OH233660   5.738   3.602  10.957  0.5963  0.2145 -0.3144
 4082TIP3    H133661   5.796   3.527  10.969 -0.1378 -0.2800  0.1928
 4082TIP3    H233662   5.700   3.591  10.870  1.0449  0.4022 -0.5409
 4083TIP3   OH233663   2.023   3.161   0.125 -0.0706  0.3326 -0.0995
 4083TIP3    H133664   2.063   3.182   0.209 -0.4781 -2.3091  0.8500
 4083TIP3    H233665   2.087   3.106   0.080 -0.2122  1.0018 -1.1556
 4084TIP3   OH233666   5.265   0.563  16.295  0.4208  0.3819 -0.1560
 4084TIP3    H133667   5.351   0.562  16.254  0.4926 -0.1874  0.0027
 4084TIP3    H233668   5.246   0.471  16.315 -0.8198  0.3120 -1.4351
 4085TIP3   OH233669   4.896   6.123   2.049 -0.0321 -0.2843  0.2442
 4085TIP3    H133670   4.989   6.114   2.030 -0.0755  2.2463 -1.9185
 4085TIP3    H233671   4.875   6.049   2.105  3.0960 -1.3637  0.1922
 4086TIP3   OH233672   3.811   0.941   3.446  0.1034  0.6055 -0.0520
 4086TIP3    H133673   3.888   0.888   3.468 -0.3736  0.8080  2.2962
 4086TIP3    H233674   3.824   0.963   3.353  2.0895 -0.6278 -0.1417
 4087TIP3   OH233675   4.236   4.943   1.606 -0.5271 -0.3643  0.2865
 4087TIP3    H133676   4.330   4.946   1.619 -0.5133 -0.7561  0.2897
 4087TIP3    H233677   4.206   4.872   1.663 -0.7109 -0.8125 -0.3559
 4088TIP3   OH233678   4.588   0.314   1.953 -0.5266 -0.3417 -0.1786
 4088TIP3    H133679   4.645   0.284   2.024  0.2439 -0.6443 -0.9087
 4088TIP3    H233680   4.501   0.316   1.992 -0.3441 -1.8582  0.3919
 4089TIP3   OH233681   1.287   0.880   3.043  0.3142  0.2256  0.1821
 4089TIP3    H133682   1.273   0.936   2.967 -0.3672  0.1730  0.2642
 4089TIP3    H233683   1.299   0.940   3.116  0.5552  0.2728  0.1032
 4090TIP3   OH233684   1.247   4.950  13.219  0.4416  0.6847  0.5694
 4090TIP3    H133685   1.259   4.876  13.159  0.8461 -0.1257  1.6288
 4090TIP3    H233686   1.283   5.025  13.171 -0.3729  0.3119 -0.6974
 4091TIP3   OH233687   4.320   6.177  13.754 -0.0593  0.6385 -0.4865
 4091TIP3    H133688   4.358   6.249  13.805 -1.7049  2.7203 -2.0189
 4091TIP3    H233689   4.379   6.169  13.679  1.5750 -1.4766  0.9095
 4092TIP3   OH233690   3.124   5.500   2.764  0.8633  0.2262  0.5352
 4092TIP3    H133691   3.084   5.530   2.683  3.6407  1.7674 -0.4115
 4092TIP3    H233692   3.137   5.406   2.752  0.3260  0.2614 -0.3874
 4093TIP3   OH233693   0.711   5.789   2.752 -0.4424  0.2380  0.0777
 4093TIP3    H133694   0.655   5.835   2.689  0.6695 -0.6351 -1.6279
 4093TIP3    H233695   0.800   5.804   2.720  0.0903 -1.0487  0.8821
 4094TIP3   OH233696   5.620   6.500   5.380 -0.0803 -0.3537  0.3581
 4094TIP3    H133697   5.688   6.568   5.383  0.6208 -1.0073 -0.1484
 4094TIP3    H233698   5.644   6.447   5.304 -0.9547 -0.8200  0.4036
 4095TIP3   OH233699   0.280   1.337  10.535  0.8325 -0.2496 -0.3199
 4095TIP3    H133700   0.213   1.355  10.601  0.3131 -0.8015 -0.6864
 4095TIP3    H233701   0.362   1.333  10.584  0.7039  1.0869  0.0428
 4096TIP3   OH233702   4.056   0.248   3.556 -0.3485 -0.3029 -0.0885
 4096TIP3    H133703   4.124   0.235   3.490 -1.2864 -2.2551 -0.7334
 4096TIP3    H233704   3.986   0.293   3.509  0.0825  0.8481  0.3343
 4097TIP3   OH233705   4.929   3.549   2.888 -0.5694  0.1643 -0.0496
 4097TIP3    H133706   4.989   3.623   2.885  0.2336 -0.4849 -0.3856
 4097TIP3    H233707   4.928   3.522   2.980  0.2806 -0.3123 -0.1706
 4098TIP3   OH233708   0.881   1.525  15.962 -0.8352 -0.0950  0.3980
 4098TIP3    H133709   0.798   1.488  15.992 -1.0229 -0.9405 -1.0652
 4098TIP3    H233710   0.857   1.608  15.922 -0.9799 -0.3383 -0.0234
 4099TIP3   OH233711   3.104   1.681   6.163  0.3562  0.1162  0.1871
 4099TIP3    H133712   3.058   1.762   6.142 -1.2119 -0.8017 -0.0440
 4099TIP3    H233713   3.190   1.710   6.193 -1.0558  2.0559  2.7788
 4100TIP3   OH233714   5.742   2.512   5.513 -0.1939  0.4933 -0.5913
 4100TIP3    H133715   5.660   2.463   5.513 -0.0979  0.3201  0.1844
 4100TIP3    H233716   5.798   2.465   5.575  0.1350  1.1828 -0.3535
 4101TIP3   OH233717   0.498   4.185  10.424 -0.1730 -0.2134 -0.3339
 4101TIP3    H133718   0.467   4.258  10.371 -1.4862 -1.1535 -0.9147
 4101TIP3    H233719   0.429   4.172  10.489 -0.4468 -1.5511 -0.8640
 4102TIP3   OH233720   0.876   4.949   1.673 -0.0898 -0.6554 -0.5469
 4102TIP3    H133721   0.903   5.040   1.671  1.9070 -1.1889 -0.2153
 4102TIP3    H233722   0.837   4.936   1.759 -0.7977 -0.0271 -0.7659
 4103TIP3   OH233723   5.454   0.365   2.710 -0.6257 -0.0354  0.2798
 4103TIP3    H133724   5.466   0.449   2.666 -0.1851 -0.6028 -0.7171
 4103TIP3    H233725   5.370   0.333   2.677 -0.1974 -0.5575 -0.3299
 4104TIP3   OH233726   0.318   6.053  15.974  0.0540 -0.0647 -0.0151
 4104TIP3    H133727   0.293   5.971  15.931  0.2170 -0.7913  1.2603
 4104TIP3    H233728   0.409   6.066  15.949  0.4248 -0.9606  0.8173
 4105TIP3   OH233729   5.629   4.311  15.737  0.6979 -0.4733 -0.5399
 4105TIP3    H133730   5.633   4.287  15.830  0.8590 -1.3993 -0.7688
 4105TIP3    H233731   5.613   4.405  15.737  2.0703 -0.1994  0.4396
 4106TIP3   OH233732   3.240   0.913   5.466 -0.6304  0.2507 -0.1220
 4106TIP3    H133733   3.258   0.927   5.559  2.4959  0.2587 -0.6040
 4106TIP3    H233734   3.209   0.998   5.435  2.2127  1.5584  0.2307
 4107TIP3   OH233735   1.070   6.691   0.327  0.1226  0.1435 -0.0118
 4107TIP3    H133736   1.041   6.700   0.236 -1.2892 -1.8114  0.1818
 4107TIP3    H233737   1.117   6.607   0.329  1.3510  0.8180  0.8057
 4108TIP3   OH233738   6.276   6.018   2.900 -0.0957  0.5834  0.7778
 4108TIP3    H133739   6.262   6.081   2.971  0.1205  1.5176  0.0132
 4108TIP3    H233740   6.220   6.048   2.829  0.9632  0.6745 -0.0543
 4109TIP3   OH233741   2.364   6.466  15.702  0.1232  0.5446  0.5634
 4109TIP3    H133742   2.360   6.372  15.681  1.1177  0.5821  0.1627
 4109TIP3    H233743   2.375   6.509  15.617  0.9819  0.9307  0.8618
 4110TIP3   OH233744   6.613   1.418  14.728 -0.3502  0.1113  0.1472
 4110TIP3    H133745   6.674   1.484  14.761 -0.3952  1.9107 -3.0632
 4110TIP3    H233746   6.663   1.369  14.663 -1.6440  0.0341 -0.8110
 4111TIP3   OH233747   2.339   0.706  15.765 -0.2976 -0.0767  0.1238
 4111TIP3    H133748   2.346   0.787  15.714  0.9818  0.3010  0.8488
 4111TIP3    H233749   2.423   0.699  15.810 -0.5567 -1.5882  0.4211
 4112TIP3   OH233750   2.586   1.487   3.725 -0.1504  0.3535  0.0615
 4112TIP3    H133751   2.504   1.537   3.732  1.0243  2.1594  2.6331
 4112TIP3    H233752   2.635   1.531   3.655  0.1810  1.8933  1.1913
 4113TIP3   OH233753   4.278   1.550   1.950 -0.1186 -0.1755 -0.3329
 4113TIP3    H133754   4.245   1.640   1.960 -0.9612 -0.4798 -0.3278
 4113TIP3    H233755   4.206   1.495   1.980  0.7128 -0.8416  0.4916
 4114TIP3   OH233756   0.184   2.806   1.413  0.6309  0.5593 -0.2241
 4114TIP3    H133757   0.175   2.752   1.334 -0.3272  1.6441 -0.9065
 4114TIP3    H233758   0.251   2.763   1.465  0.7626 -0.5935 -1.3049
 4115TIP3   OH233759   3.452   0.887  15.437  0.4313  0.0152 -0.4166
 4115TIP3    H133760   3.440   0.792  15.434  2.1702 -0.4152  2.3528
 4115TIP3    H233761   3.543   0.900  15.412 -0.2683  1.2367 -2.5993
 4116TIP3   OH233762   1.595   3.820  15.618 -0.4766 -0.0146  0.0662
 4116TIP3    H133763   1.612   3.735  15.576  0.0828 -0.4628  1.1580
 4116TIP3    H233764   1.500   3.833  15.606 -0.7856 -1.3353  0.8235
 4117TIP3   OH233765   2.974   4.205   0.414  0.8581 -0.4806 -0.1448
 4117TIP3    H133766   3.006   4.150   0.485  1.1657 -0.2627 -0.1149
 4117TIP3    H233767   2.922   4.146   0.360 -1.6166 -0.1454  1.6705
 4118TIP3   OH233768   4.868   1.183   3.675 -0.1205 -0.3588  0.0210
 4118TIP3    H133769   4.837   1.245   3.608  0.3864 -0.2123 -0.0845
 4118TIP3    H233770   4.934   1.131   3.630 -0.9537 -1.3826 -0.0570
 4119TIP3   OH233771   3.673   1.709  15.941 -0.2316 -0.2182  0.0430
 4119TIP3    H133772   3.702   1.620  15.957  0.8681  0.5143  2.5913
 4119TIP3    H233773   3.589   1.716  15.987  0.6486  0.5579  1.6380
 4120TIP3   OH233774   6.606   3.608   2.963  0.5247  0.1031 -0.1811
 4120TIP3    H133775   6.579   3.560   3.041  1.0027  1.4277  0.8385
 4120TIP3    H233776   6.570   3.696   2.975 -0.1545  0.0992 -1.8994
 4121TIP3   OH233777   0.124   2.737   4.072 -0.0818  0.4004 -0.0592
 4121TIP3    H133778   0.164   2.736   4.159 -0.3380 -1.1502  0.0582
 4121TIP3    H233779   0.104   2.830   4.056  1.7402  0.9627  0.6991
 4122TIP3   OH233780   4.176   0.476  16.044  0.0945  0.2371  0.1210
 4122TIP3    H133781   4.201   0.501  16.133 -1.5515  0.8037  0.4670
 4122TIP3    H233782   4.183   0.557  15.994  0.5015  0.0367 -0.1500
 4123TIP3   OH233783   1.552   6.235  15.260  0.0415  0.4270 -0.0570
 4123TIP3    H133784   1.612   6.270  15.327 -0.3953 -0.1136  0.6261
 4123TIP3    H233785   1.499   6.171  15.306 -2.2024  2.0393 -0.2464
 4124TIP3   OH233786   6.423   4.189  14.901  0.1666 -0.1875  0.3933
 4124TIP3    H133787   6.428   4.156  14.991  1.3562 -1.7501 -0.1946
 4124TIP3    H233788   6.514   4.205  14.877 -0.2323  1.4622 -0.1275
 4125TIP3   OH233789   2.081   1.935  13.721  0.4974  0.2386  0.5230
 4125TIP3    H133790   2.076   1.907  13.630 -0.5505  0.5732  0.4657
 4125TIP3    H233791   1.991   1.952  13.746  0.8324  0.7628  1.4345
 4126TIP3   OH233792   1.321   2.025  11.363  0.1226 -0.0896  0.0854
 4126TIP3    H133793   1.276   2.022  11.279  0.2930  0.5291 -0.0302
 4126TIP3    H233794   1.411   1.998  11.343 -0.0419 -0.7500  0.2148
 4127TIP3   OH233795   1.021   5.151  12.839 -0.5178 -0.0439  0.2658
 4127TIP3    H133796   1.039   5.125  12.748  0.2243 -0.9001  0.6458
 4127TIP3    H233797   0.990   5.070  12.881 -0.1680  0.1707  0.9490
 4128TIP3   OH233798   5.064   6.132   0.844  0.3004 -0.2593 -0.0048
 4128TIP3    H133799   5.146   6.135   0.893 -0.4508 -3.1045  1.6597
 4128TIP3    H233800   5.066   6.048   0.798 -1.7997 -0.6139  0.4238
 4129TIP3   OH233801   6.030   4.237  13.832 -0.4142 -0.1876 -0.0856
 4129TIP3    H133802   5.970   4.188  13.776  1.7577 -1.9069 -1.0216
 4129TIP3    H233803   6.096   4.174  13.859  3.5051  2.3222 -2.6709
 4130TIP3   OH233804   0.985   4.217  16.992  0.3434  0.8191  0.7832
 4130TIP3    H133805   1.013   4.299  16.950  0.0265  0.0866 -0.9019
 4130TIP3    H233806   1.066   4.166  16.999  0.2160  0.5127  0.0648
 4131TIP3   OH233807   4.209   1.121  10.639  0.0831  0.1178 -0.1010
 4131TIP3    H133808   4.287   1.084  10.680 -0.1436 -0.1611  0.0868
 4131TIP3    H233809   4.141   1.115  10.707  0.0857  1.0591  0.0047
 4132TIP3   OH233810   2.485   4.155  14.257 -0.3089  0.1059 -0.5460
 4132TIP3    H133811   2.396   4.119  14.252 -0.3728 -0.2634  1.7931
 4132TIP3    H233812   2.489   4.221  14.188 -2.5678  0.4497 -0.4207
 4133TIP3   OH233813   4.456   2.025   4.073 -0.3867 -0.0287  0.7543
 4133TIP3    H133814   4.462   1.978   4.156 -0.7146 -0.7090  0.3962
 4133TIP3    H233815   4.374   2.074   4.079  0.9377  2.2189  1.9914
 4134TIP3   OH233816   6.558   2.749  15.930  0.2202 -0.1346 -0.0416
 4134TIP3    H133817   6.555   2.657  15.954 -0.7508  0.3555  1.9790
 4134TIP3    H233818   6.648   2.776  15.947  0.0709 -0.3150  1.1196
 4135TIP3   OH233819   1.060   4.465   1.435 -0.2868 -0.1906 -0.4986
 4135TIP3    H133820   1.145   4.435   1.467  0.1197  1.5809  0.1814
 4135TIP3    H233821   0.999   4.443   1.506 -0.0445  0.2943 -0.1338
 4136TIP3   OH233822   0.618   2.595   5.401 -0.6814 -0.0090  0.7773
 4136TIP3    H133823   0.648   2.643   5.324 -1.7822 -1.1551 -0.3896
 4136TIP3    H233824   0.620   2.660   5.471  1.0821  0.8626 -0.0066
 4137TIP3   OH233825   2.529   0.702   4.722 -0.5498 -0.2212  0.1994
 4137TIP3    H133826   2.576   0.621   4.704  0.9648  0.8217 -0.8607
 4137TIP3    H233827   2.467   0.680   4.791  1.2779 -1.7880  1.4446
 4138TIP3   OH233828   3.666   1.075   1.323  0.3908  0.7791 -0.6105
 4138TIP3    H133829   3.691   1.152   1.373  0.3836  0.6169 -0.3577
 4138TIP3    H233830   3.737   1.013   1.337 -0.4915  0.0223  0.7406
 4139TIP3   OH233831   1.436   3.422   2.788 -0.7460 -0.0683  0.1631
 4139TIP3    H133832   1.471   3.460   2.869 -1.0462  3.0005 -1.0310
 4139TIP3    H233833   1.514   3.402   2.736 -0.6094  0.6629  0.0784
 4140TIP3   OH233834   1.858   4.477  15.530 -0.2559 -0.1598  0.1882
 4140TIP3    H133835   1.898   4.506  15.448  2.4383 -0.5850  1.2414
 4140TIP3    H233836   1.875   4.383  15.533  0.7600  0.0333  1.7278
 4141TIP3   OH233837   0.398   3.032  16.949 -0.0519  0.1806  0.1545
 4141TIP3    H133838   0.419   2.984  17.030  0.4059  0.9288  0.4882
 4141TIP3    H233839   0.444   3.115  16.958 -0.1515  0.3463 -0.8028
 4142TIP3   OH233840   0.829   3.876  16.649 -0.0905  0.2632  0.3443
 4142TIP3    H133841   0.829   3.961  16.693 -0.0278 -0.5567  1.9957
 4142TIP3    H233842   0.739   3.845  16.656  0.4607 -1.0640  2.3824
 4143TIP3   OH233843   0.888   3.232   3.283 -0.4312  0.6093 -0.2180
 4143TIP3    H133844   0.878   3.153   3.230 -1.8107 -0.0133  0.8988
 4143TIP3    H233845   0.921   3.200   3.367 -1.0578  1.2001  0.2661
 4144TIP3   OH233846   4.628   0.278   2.444  0.6795 -0.1764  0.4206
 4144TIP3    H133847   4.649   0.186   2.460  1.0896  0.0963  1.5118
 4144TIP3    H233848   4.678   0.327   2.509  0.4166  0.8256 -0.0978
 4145TIP3   OH233849   6.486   3.042   5.383  0.2105 -0.3834 -0.0557
 4145TIP3    H133850   6.503   3.105   5.453 -1.6406 -1.4105  1.4098
 4145TIP3    H233851   6.488   2.957   5.427  2.7792 -1.4634 -2.0040
 4146TIP3   OH233852   6.657   2.891  11.595  0.3496 -0.0655 -0.2153
 4146TIP3    H133853   6.744   2.927  11.610  1.2970 -1.8122 -1.1410
 4146TIP3    H233854   6.669   2.796  11.605 -1.0708 -0.4814 -2.0382
 4147TIP3   OH233855   1.490   5.037  16.172 -0.2342  0.0456 -0.3096
 4147TIP3    H133856   1.441   5.045  16.090  0.6879  1.2093 -0.7687
 4147TIP3    H233857   1.534   5.121  16.182  2.0687 -1.0942 -0.1653
 4148TIP3   OH233858   1.884   6.357  12.144 -0.3289  0.2661  0.3624
 4148TIP3    H133859   1.942   6.426  12.111  0.9987 -1.3759 -0.8735
 4148TIP3    H233860   1.903   6.354  12.238 -1.5500  2.5723  0.7705
 4149TIP3   OH233861   3.422   3.254  14.392 -0.1674 -0.7070 -0.4942
 4149TIP3    H133862   3.435   3.163  14.367  0.6168 -0.3115 -1.6135
 4149TIP3    H233863   3.506   3.297  14.372 -0.0413 -0.0064  1.3278
 4150TIP3   OH233864   6.023   4.224   3.434 -0.5786 -0.3161  0.0590
 4150TIP3    H133865   6.065   4.232   3.519  2.1755 -2.2139 -0.9495
 4150TIP3    H233866   5.959   4.154   3.445 -0.3499 -0.4418  0.6202
 4151TIP3   OH233867   2.439   2.402  14.808 -0.2027  0.0641  0.2154
 4151TIP3    H133868   2.480   2.434  14.888  1.5022  0.2450 -0.6873
 4151TIP3    H233869   2.493   2.329  14.781 -0.8648 -0.1092 -0.6880
 4152TIP3   OH233870   5.774   0.028   3.457 -0.3638  0.1913 -0.5688
 4152TIP3    H133871   5.813   0.090   3.396 -0.2203  0.3633 -0.3010
 4152TIP3    H233872   5.842  -0.038   3.471  0.0196  0.7420  0.2670
 4153TIP3   OH233873   5.558   0.643  12.753 -0.0903  0.3331  0.3393
 4153TIP3    H133874   5.521   0.627  12.667 -0.4296 -1.7782  0.8349
 4153TIP3    H233875   5.553   0.738  12.764 -0.8354  0.5483 -1.5950
 4154TIP3   OH233876   5.468   4.883   1.258 -0.5853 -0.5121  0.0082
 4154TIP3    H133877   5.553   4.869   1.218  0.1766  1.3581  0.8188
 4154TIP3    H233878   5.410   4.908   1.186 -0.6602 -2.4608 -0.6431
 4155TIP3   OH233879   3.653   3.325   1.440  0.1714  0.5526 -0.7774
 4155TIP3    H133880   3.670   3.237   1.408 -0.3625 -0.5679  1.7400
 4155TIP3    H233881   3.559   3.325   1.460  0.6167  0.7559  1.6393
 4156TIP3   OH233882   3.516   3.516   3.123  0.2052  0.3060  0.5182
 4156TIP3    H133883   3.530   3.448   3.189  1.5825 -0.8694 -0.8945
 4156TIP3    H233884   3.585   3.500   3.058 -1.4650  0.9765 -1.5248
 4157TIP3   OH233885   4.763   0.765  13.885  0.0914 -0.6030  0.3308
 4157TIP3    H133886   4.736   0.838  13.941  1.6504  0.3419 -0.0907
 4157TIP3    H233887   4.715   0.779  13.803  1.3505  0.7416 -0.2171
 4158TIP3   OH233888   1.038   5.731   5.111  0.2200 -0.1313  0.6263
 4158TIP3    H133889   1.023   5.647   5.069 -0.6735  0.7233 -0.8335
 4158TIP3    H233890   0.969   5.788   5.077  0.6891  1.1531  1.7267
 4159TIP3   OH233891   0.123   5.615  10.372  0.2386 -0.2498 -0.5807
 4159TIP3    H133892   0.217   5.594  10.367  0.1283 -1.7505  2.0959
 4159TIP3    H233893   0.109   5.641  10.462 -1.6414  1.8421 -1.3831
 4160TIP3   OH233894   2.619   6.455   1.598  0.5536  0.4502  0.7347
 4160TIP3    H133895   2.666   6.461   1.681  0.2624  0.1482  0.9181
 4160TIP3    H233896   2.671   6.394   1.545  1.2051  1.2806  0.3813
 4161TIP3   OH233897   6.288   0.482  12.953 -0.3973 -0.0503 -0.2367
 4161TIP3    H133898   6.298   0.438  12.869  0.9977 -1.3252  0.5490
 4161TIP3    H233899   6.207   0.448  12.989 -0.9688  0.4581 -1.0268
 4162TIP3   OH233900   3.882   3.032  15.995  0.8565  0.0207  0.1610
 4162TIP3    H133901   3.953   2.971  16.014  1.2942 -0.7833 -3.3697
 4162TIP3    H233902   3.802   2.980  16.004  0.9358  0.0123  0.8731
 4163TIP3   OH233903   6.617   4.712   5.805 -0.0495 -0.0244 -0.4659
 4163TIP3    H133904   6.539   4.719   5.859  1.0327  0.0912  1.1446
 4163TIP3    H233905   6.591   4.750   5.721 -1.6653  0.1504  0.0786
 4164TIP3   OH233906   5.051   5.017   2.709  1.2884 -0.0990 -0.2372
 4164TIP3    H133907   5.109   5.093   2.707  1.9203 -0.5938 -1.0090
 4164TIP3    H233908   5.026   5.009   2.801  1.4738  0.8451 -0.0947
 4165TIP3   OH233909   0.798   3.691  12.424 -0.3395 -0.2865 -0.5949
 4165TIP3    H133910   0.840   3.691  12.338  0.8275 -0.1713 -0.0395
 4165TIP3    H233911   0.813   3.603  12.458  1.1181  0.2890  0.3688
 4166TIP3   OH233912   4.108   3.236   4.926 -0.3385 -0.3501 -0.1948
 4166TIP3    H133913   4.130   3.250   4.834  0.0920 -3.0323 -0.5846
 4166TIP3    H233914   4.073   3.147   4.929 -1.4543  0.0968  2.0793
 4167TIP3   OH233915   4.873   1.515  11.531 -0.2949  0.5466  0.4688
 4167TIP3    H133916   4.932   1.460  11.479  0.6195  0.7869  1.2267
 4167TIP3    H233917   4.785   1.483  11.510  0.1412 -0.2571 -0.1727
 4168TIP3   OH233918   1.631   3.012  14.605  0.8303  0.3759 -0.1474
 4168TIP3    H133919   1.544   3.017  14.645  0.5589 -0.9203 -0.5337
 4168TIP3    H233920   1.614   2.997  14.512  1.4145 -1.7709  0.0237
 4169TIP3   OH233921   1.121   1.098   5.893  0.2334  0.6088  0.2849
 4169TIP3    H133922   1.060   1.038   5.850  2.3024 -0.3366 -1.5568
 4169TIP3    H233923   1.090   1.105   5.983 -2.8441  0.6099 -0.6873
 4170TIP3   OH233924   5.730   5.744   2.829  0.2914  0.6126 -0.0393
 4170TIP3    H133925   5.787   5.686   2.879  0.8302  0.1405 -1.1620
 4170TIP3    H233926   5.644   5.703   2.835  0.7016 -0.4421 -0.9706
 4171TIP3   OH233927   2.617   3.686   0.075 -0.6471  0.0414 -0.3258
 4171TIP3    H133928   2.587   3.625   0.142 -1.1512  0.7530  0.1025
 4171TIP3    H233929   2.703   3.652   0.049 -0.6702 -0.5235  0.3087
 4172TIP3   OH233930   0.169   5.224   3.686 -0.9165  0.2485  0.0435
 4172TIP3    H133931   0.262   5.239   3.701 -0.8538  1.7809 -1.5672
 4172TIP3    H233932   0.126   5.303   3.718 -1.7657 -0.7082  1.3646
 4173TIP3   OH233933   0.577   1.343   5.248  0.0390 -0.0413 -0.3203
 4173TIP3    H133934   0.600   1.265   5.197  0.0836  1.0688 -2.0567
 4173TIP3    H233935   0.588   1.416   5.188 -0.0772  1.3326  1.2475
 4174TIP3   OH233936   1.665   4.366   3.959 -0.7057 -0.0891 -0.0880
 4174TIP3    H133937   1.720   4.340   4.032 -0.9017 -0.7638 -0.1730
 4174TIP3    H233938   1.616   4.442   3.990  0.6143  0.8147 -0.1700
 4175TIP3   OH233939   5.237   2.083   3.749  0.0722  0.1910  0.3861
 4175TIP3    H133940   5.314   2.138   3.736  0.0068  0.2908  0.4142
 4175TIP3    H233941   5.214   2.052   3.661 -1.1740  1.9616  0.0382
 4176TIP3   OH233942   1.429   2.899  12.436 -0.1793  0.2944  0.5265
 4176TIP3    H133943   1.478   2.817  12.446 -0.4202 -0.6228 -3.7887
 4176TIP3    H233944   1.496   2.967  12.438  0.1775 -0.0379  2.8326
 4177TIP3   OH233945   5.730   0.776  15.515 -0.6959 -0.5673 -0.1832
 4177TIP3    H133946   5.722   0.839  15.586  1.3651  0.0647 -0.4371
 4177TIP3    H233947   5.699   0.822  15.438  1.7490  0.5918 -0.5592
 4178TIP3   OH233948   3.924   3.849  12.779 -0.0368  0.1588  0.1655
 4178TIP3    H133949   3.969   3.893  12.707 -0.1717 -2.5252 -1.7283
 4178TIP3    H233950   3.987   3.851  12.851  1.2532  0.5325 -0.9268
 4179TIP3   OH233951   2.001   2.692   1.654  0.1623  0.3349 -0.7267
 4179TIP3    H133952   1.961   2.606   1.639 -0.5259  0.7578 -1.4095
 4179TIP3    H233953   1.931   2.742   1.697  0.8125  0.3333  0.3667
 4180TIP3   OH233954   2.104   0.891  15.401 -0.3894 -0.2436 -0.1613
 4180TIP3    H133955   2.123   0.953  15.471  1.1681 -0.2780 -0.5039
 4180TIP3    H233956   2.065   0.944  15.332  1.9006  0.6405 -0.8792
 4181TIP3   OH233957   3.031   1.374   5.490  0.2789  0.4474  0.5975
 4181TIP3    H133958   3.019   1.444   5.426 -0.3309 -0.8305 -0.7669
 4181TIP3    H233959   2.986   1.404   5.568 -3.8158 -0.1194 -1.2980
 4182TIP3   OH233960   1.709   4.831  17.068 -0.0452  0.0591  0.1485
 4182TIP3    H133961   1.741   4.901  17.012 -1.1902  0.4583 -0.0278
 4182TIP3    H233962   1.784   4.772  17.078  0.1804 -0.0766 -1.8804
 4183TIP3   OH233963   0.230   5.815  15.850  0.7539 -0.0662  0.3557
 4183TIP3    H133964   0.156   5.835  15.908  1.6704  0.8938  1.2558
 4183TIP3    H233965   0.245   5.721  15.861 -0.8874 -0.4734 -0.5586
 4184TIP3   OH233966   6.138   0.956  12.305  0.4945 -0.4653  0.7831
 4184TIP3    H133967   6.056   1.004  12.316 -0.5436 -2.1340  0.7669
 4184TIP3    H233968   6.155   0.958  12.211 -1.2945 -2.7174  0.3042
 4185TIP3   OH233969   1.292   2.533  13.444  0.0121  0.3528 -0.0341
 4185TIP3    H133970   1.354   2.606  13.448 -0.9708  1.1505  1.7599
 4185TIP3    H233971   1.343   2.456  13.467  0.7409  0.7055 -0.4499
 4186TIP3   OH233972   4.573   2.507  15.826  0.0898 -0.6865 -0.5325
 4186TIP3    H133973   4.477   2.512  15.829  0.0784 -0.9078 -0.4895
 4186TIP3    H233974   4.594   2.426  15.873  0.3808  0.0984  0.7464
 4187TIP3   OH233975   3.114   4.117   1.998  0.1585 -0.3312  0.1425
 4187TIP3    H133976   3.034   4.087   1.955  0.9825 -1.4090 -0.7066
 4187TIP3    H233977   3.111   4.078   2.085 -0.0240 -0.7519 -0.0500
 4188TIP3   OH233978   0.026   4.012  16.889  0.1723 -0.0012 -0.6041
 4188TIP3    H133979  -0.010   4.094  16.923 -0.2759  0.3526 -1.8456
 4188TIP3    H233980  -0.051   3.965  16.856  0.3673 -1.1390  0.4856
 4189TIP3   OH233981   3.276   5.624  15.567 -0.6321 -0.2040 -0.6584
 4189TIP3    H133982   3.188   5.609  15.601  0.0704 -1.5275  0.6774
 4189TIP3    H233983   3.330   5.555  15.607  1.1553  1.0029 -0.8575
 4190TIP3   OH233984   4.431   6.416  12.605  0.1286 -0.4140  0.2450
 4190TIP3    H133985   4.338   6.434  12.593 -0.3325 -1.5491  1.7480
 4190TIP3    H233986   4.442   6.409  12.700  1.8492  0.1586  0.1286
 4191TIP3   OH233987   5.880   5.780  14.559  0.6286 -0.4365 -0.1972
 4191TIP3    H133988   5.875   5.840  14.485 -1.8357  0.7633  0.8176
 4191TIP3    H233989   5.912   5.833  14.632  2.0961 -1.3579 -0.1308
 4192TIP3   OH233990   5.983   5.215  11.964 -1.0545 -0.3200  0.4939
 4192TIP3    H133991   5.943   5.296  11.995 -1.7622 -0.3911 -0.2161
 4192TIP3    H233992   5.993   5.227  11.870  0.0553 -0.5500  0.5576
 4193TIP3   OH233993   4.406   2.093   0.900  0.3794  0.1370 -0.5107
 4193TIP3    H133994   4.388   2.177   0.943 -1.3753 -0.5941  0.3123
 4193TIP3    H233995   4.386   2.109   0.808 -2.0372  0.1480 -0.0626
 4194TIP3   OH233996   2.214   0.356   5.565  0.6548 -0.2959 -0.4311
 4194TIP3    H133997   2.174   0.345   5.479 -0.3056 -0.4019  0.0144
 4194TIP3    H233998   2.289   0.414   5.550  1.8856 -2.1100 -1.7088
 4195TIP3   OH233999   3.973   1.671  11.901  0.0947  0.1210  0.4162
 4195TIP3    H134000   4.013   1.584  11.909 -0.0860 -0.0704 -0.5923
 4195TIP3    H234001   3.879   1.656  11.912 -0.1395 -0.1215 -1.5858
 4196TIP3   OH234002   0.582   4.676  16.237 -0.4783  0.0105 -0.2141
 4196TIP3    H134003   0.506   4.688  16.293  0.4109  0.8221  0.8536
 4196TIP3    H234004   0.651   4.646  16.296  0.1485 -0.3314 -1.0973
 4197TIP3   OH234005   1.743   2.646  13.600  0.7491  0.0655 -0.3291
 4197TIP3    H134006   1.754   2.711  13.531  1.5131 -0.7895 -1.0417
 4197TIP3    H234007   1.829   2.605  13.608  0.7795  0.3872  1.3966
 4198TIP3   OH234008   2.541   1.784  12.640  0.3783  0.0858  0.5509
 4198TIP3    H134009   2.480   1.710  12.635 -0.9156  1.1551 -0.3621
 4198TIP3    H234010   2.560   1.805  12.549  0.1575  1.3072  0.7740
 4199TIP3   OH234011   5.622   1.400   3.018 -0.0802  0.2954  0.1978
 4199TIP3    H134012   5.633   1.423   2.926 -0.8066 -1.0777 -0.2674
 4199TIP3    H234013   5.599   1.482   3.061 -2.5533  0.5092 -1.3530
 4200TIP3   OH234014   6.181   2.410   2.515  0.4302 -0.3108 -0.2619
 4200TIP3    H134015   6.182   2.343   2.448  1.0531  0.9784 -1.5929
 4200TIP3    H234016   6.185   2.493   2.467  0.9954  0.6613  1.3644
 4201TIP3   OH234017   5.981   5.708   4.352 -0.0582 -0.4319 -0.1283
 4201TIP3    H134018   6.006   5.648   4.282 -1.2000 -1.1575  0.0611
 4201TIP3    H234019   6.054   5.705   4.414 -0.3329 -2.0621  0.1492
 4202TIP3   OH234020   2.026   2.976  10.537  0.0751 -0.1692 -0.1889
 4202TIP3    H134021   2.001   3.062  10.570  0.8201  0.1561 -0.4429
 4202TIP3    H234022   1.946   2.924  10.540 -0.0866  0.1346  1.2219
 4203TIP3   OH234023   4.323   6.740  13.345 -1.0725 -0.4205  0.0480
 4203TIP3    H134024   4.326   6.833  13.365 -2.7413 -0.5075  0.8999
 4203TIP3    H234025   4.333   6.735  13.250 -0.9437  0.6108 -0.0029
 4204TIP3   OH234026   3.155   5.543   1.129  0.2622 -0.1698 -0.4043
 4204TIP3    H134027   3.154   5.554   1.033 -0.6920 -0.6688 -0.4591
 4204TIP3    H234028   3.233   5.490   1.146  0.9973  0.7587 -0.8017
 4205TIP3   OH234029   2.649   4.583  11.930  0.4723  0.2512  0.1653
 4205TIP3    H134030   2.631   4.677  11.935  1.1835  0.3836  0.3359
 4205TIP3    H234031   2.583   4.550  11.869  0.5017  0.9403 -0.2632
 4206TIP3   OH234032   6.656   5.137  14.191  0.3010  0.4750  0.4257
 4206TIP3    H134033   6.655   5.232  14.204 -0.2309  0.3985  0.9828
 4206TIP3    H234034   6.651   5.125  14.097  2.3721  1.0258  0.1907
 4207TIP3   OH234035   1.923   1.359   0.306  0.0713  0.5654  0.3054
 4207TIP3    H134036   1.900   1.403   0.389 -0.7413  0.2945  0.2256
 4207TIP3    H234037   1.901   1.267   0.320 -0.7841  0.6384 -0.4656
 4208TIP3   OH234038   1.669   1.918   2.745 -0.4975 -0.4296  0.1781
 4208TIP3    H134039   1.684   2.009   2.769  0.2182 -0.9822  1.9676
 4208TIP3    H234040   1.712   1.909   2.660 -0.6717  0.9017 -0.0840
 4209TIP3   OH234041   3.779   1.690   4.331 -0.2054  0.2057 -0.8826
 4209TIP3    H134042   3.694   1.729   4.310  0.3537  2.2205  0.3233
 4209TIP3    H234043   3.838   1.724   4.264 -0.0072  0.2107 -0.7049
 4210TIP3   OH234044   4.452   2.053  13.695 -0.2072  0.6491 -0.2566
 4210TIP3    H134045   4.439   1.960  13.715  1.9554  0.6099  1.3732
 4210TIP3    H234046   4.364   2.089  13.689 -1.0851 -1.1996  0.6540
 4211TIP3   OH234047   3.786   2.491  17.151 -0.0777  0.5032  0.1639
 4211TIP3    H134048   3.806   2.555  17.082  0.4672  1.2267  0.9637
 4211TIP3    H234049   3.697   2.462  17.132  0.1868  0.4190 -1.0385
 4212TIP3   OH234050   3.896   1.367  17.098 -0.5443  0.2294  1.1419
 4212TIP3    H134051   3.871   1.281  17.129  0.3090 -0.4535  0.0321
 4212TIP3    H234052   3.818   1.402  17.055 -0.8082 -0.1015  1.3567
 4213TIP3   OH234053   5.898   3.509  13.910 -0.8064  0.6759  0.2640
 4213TIP3    H134054   5.983   3.494  13.869  0.1532 -0.4942  2.4884
 4213TIP3    H234055   5.834   3.496  13.840  0.6437 -2.4647 -0.6321
 4214TIP3   OH234056   1.556   4.792  11.364 -0.2842  0.1304  0.3324
 4214TIP3    H134057   1.512   4.854  11.423  0.4966  0.3707  0.6718
 4214TIP3    H234058   1.596   4.728  11.422 -1.7439 -1.1704 -0.0438
 4215TIP3   OH234059   6.562   2.681   0.853  0.5647 -0.4302 -0.3302
 4215TIP3    H134060   6.471   2.663   0.875 -0.3622 -1.3240 -4.1582
 4215TIP3    H234061   6.608   2.600   0.874  0.1993 -0.4940  0.2469
 4216TIP3   OH234062   0.637   5.076  15.906 -0.2581  0.3115 -0.4626
 4216TIP3    H134063   0.698   5.051  15.975 -1.1255 -0.4563  0.0414
 4216TIP3    H234064   0.575   5.004  15.901 -0.9250  0.9154 -1.2114
 4217TIP3   OH234065   2.272   3.969  15.042  0.6875  0.7553  0.5114
 4217TIP3    H134066   2.227   4.053  15.038 -0.3371  0.1774 -1.0309
 4217TIP3    H234067   2.335   3.972  14.971  0.3347  0.0637  0.1611
 4218TIP3   OH234068   3.339   1.793   3.039  0.0614 -0.0623 -0.0796
 4218TIP3    H134069   3.336   1.868   2.979  0.9749 -0.4614 -0.6531
 4218TIP3    H234070   3.423   1.751   3.020  0.3163 -0.2858  1.3886
 4219TIP3   OH234071   5.761   1.286  14.992  0.0195  0.1199  0.2036
 4219TIP3    H134072   5.837   1.338  15.017 -0.2140  1.0834 -1.0168
 4219TIP3    H234073   5.798   1.211  14.944  0.2617 -0.1157  0.7444
 4220TIP3   OH234074   6.244   0.286  13.765 -0.0469 -0.2422  0.1049
 4220TIP3    H134075   6.330   0.247  13.780  0.1973  0.0273 -0.5606
 4220TIP3    H234076   6.244   0.311  13.673 -0.0001  1.7951  0.6109
 4221TIP3   OH234077   3.311   5.300   1.184 -0.0103  0.5253  0.0637
 4221TIP3    H134078   3.336   5.342   1.266 -0.1963  1.6095 -0.4236
 4221TIP3    H234079   3.235   5.247   1.206  0.4619  0.1260  0.7655
 4222TIP3   OH234080   1.768   0.800   3.442  0.0528  0.1108 -0.5629
 4222TIP3    H134081   1.672   0.802   3.444  0.0523 -0.3334  0.7935
 4222TIP3    H234082   1.789   0.772   3.353 -1.0835 -0.1006 -0.7819
 4223TIP3   OH234083   2.557   2.173  14.365 -0.1447 -0.9491 -0.9805
 4223TIP3    H134084   2.522   2.112  14.430 -0.6000  1.6395  1.4234
 4223TIP3    H234085   2.480   2.221  14.334  0.5505  1.1677  0.3544
 4224TIP3   OH234086   0.506   3.299  16.299  0.1426 -0.1728  0.3034
 4224TIP3    H134087   0.486   3.328  16.210  1.0870 -1.0117 -0.2132
 4224TIP3    H234088   0.518   3.379  16.349 -1.7032  0.3315  0.0130
 4225TIP3   OH234089   5.128   1.451   2.278  0.3451 -0.1474 -0.4803
 4225TIP3    H134090   5.213   1.450   2.233  0.2052  0.0327 -0.7550
 4225TIP3    H234091   5.108   1.544   2.289 -0.0112 -0.1860 -0.7926
 4226TIP3   OH234092   2.307   3.547  11.734  0.1450  0.6589 -0.2349
 4226TIP3    H134093   2.246   3.595  11.677 -2.3175 -1.4417  0.4249
 4226TIP3    H234094   2.333   3.611  11.800  1.4116  2.5482 -2.4196
 4227TIP3   OH234095   5.788   3.468   1.857  0.2979 -0.1809 -0.6164
 4227TIP3    H134096   5.786   3.559   1.827  1.3744  0.6897  1.7153
 4227TIP3    H234097   5.733   3.420   1.794  0.5369  1.8759 -2.4771
 4228TIP3   OH234098   0.459   6.016   2.248  0.4354  0.0028  0.4757
 4228TIP3    H134099   0.405   6.034   2.324  0.0584 -0.9245  0.4381
 4228TIP3    H234100   0.436   6.084   2.185  1.3425  1.2678  1.4641
 4229TIP3   OH234101   3.446   6.482  14.767  0.9046  0.3825  0.1904
 4229TIP3    H134102   3.439   6.489  14.862  3.4740  1.4014  0.4016
 4229TIP3    H234103   3.410   6.564  14.733  0.4808  0.2526  0.3315
 4230TIP3   OH234104   6.327   1.551  13.271 -0.3353  0.6702  0.2332
 4230TIP3    H134105   6.419   1.549  13.300 -0.9566  1.8934  2.5243
 4230TIP3    H234106   6.324   1.490  13.197  2.2091  0.2256  0.3989
 4231TIP3   OH234107   5.767   4.488   0.286  0.3368 -0.0273  1.1817
 4231TIP3    H134108   5.783   4.569   0.334  2.3333 -0.4581  1.3325
 4231TIP3    H234109   5.831   4.426   0.320 -1.2516 -1.7773  1.2074
 4232TIP3   OH234110   3.096   3.212  13.322  0.8800  0.3005  0.0531
 4232TIP3    H134111   3.121   3.298  13.356  1.4425 -0.2866  1.1889
 4232TIP3    H234112   3.144   3.150  13.377  2.8916 -0.7185 -2.5918
 4233TIP3   OH234113   0.608   0.167  15.006  0.4680 -0.0730  0.7347
 4233TIP3    H134114   0.592   0.210  14.922  1.7520 -0.0683  0.4651
 4233TIP3    H234115   0.609   0.074  14.986 -0.3120 -0.1317  0.9519
 4234TIP3   OH234116   5.409   4.507   1.452 -0.4080 -0.2913 -0.0079
 4234TIP3    H134117   5.487   4.520   1.399 -1.8818  0.3640 -2.1442
 4234TIP3    H234118   5.394   4.591   1.495  1.3661 -1.1043  2.4481
 4235TIP3   OH234119   5.337   2.683   1.915 -0.0425 -0.1362 -0.2662
 4235TIP3    H134120   5.261   2.735   1.940  0.0538 -0.1957  0.1699
 4235TIP3    H234121   5.402   2.701   1.984  0.5089  0.2775 -0.8840
 4236TIP3   OH234122   4.665   6.110  16.281  0.2451 -0.5198  0.1043
 4236TIP3    H134123   4.706   6.038  16.329 -0.9486 -2.3301 -1.4223
 4236TIP3    H234124   4.580   6.123  16.323  0.2472 -0.3596  0.0620
 4237TIP3   OH234125   1.147   0.815   4.540  0.2006 -0.2465 -0.0892
 4237TIP3    H134126   1.171   0.896   4.586 -0.7120  0.2525 -0.4548
 4237TIP3    H234127   1.065   0.789   4.581  0.7580 -1.2853  0.3796
 4238TIP3   OH234128   5.912   3.106  12.705  0.5293 -0.7247  0.1024
 4238TIP3    H134129   5.937   3.086  12.614  0.1791 -0.3184 -0.0873
 4238TIP3    H234130   5.879   3.195  12.701  0.7504 -0.6161  0.6837
 4239TIP3   OH234131   5.053   3.102  15.837 -0.0697  0.2494  0.8977
 4239TIP3    H134132   5.089   3.041  15.772 -1.4063  1.0326 -0.6603
 4239TIP3    H234133   5.053   3.053  15.919  1.1296 -0.9784  0.2064
 4240TIP3   OH234134   5.385   5.089   0.130 -0.1371 -0.1197  0.0358
 4240TIP3    H134135   5.338   5.101   0.213  2.1201  2.0954  1.1388
 4240TIP3    H234136   5.463   5.039   0.154  0.2152 -0.0285 -0.8909
 4241TIP3   OH234137   2.010   2.505   4.097 -0.2959  0.2353  0.1513
 4241TIP3    H134138   1.944   2.444   4.064  0.6874 -0.7569 -0.0286
 4241TIP3    H234139   2.090   2.453   4.103  1.0227  1.9122 -1.6790
 4242TIP3   OH234140   5.964   6.354  12.572  0.3611 -0.2401  0.2821
 4242TIP3    H134141   6.039   6.404  12.541 -0.8364  0.2552 -2.0375
 4242TIP3    H234142   5.983   6.263  12.546  0.5395 -0.2641  0.4936
 4243TIP3   OH234143   1.879   5.823   5.523 -0.2592  0.8303 -0.2113
 4243TIP3    H134144   1.852   5.799   5.434  0.6307 -1.8167  0.1651
 4243TIP3    H234145   1.975   5.825   5.519 -0.0796 -1.4680  1.1070
 4244TIP3   OH234146   2.842   0.078  11.935  0.1712  0.0755 -0.5679
 4244TIP3    H134147   2.826   0.134  12.011 -0.7198 -1.0020  0.0624
 4244TIP3    H234148   2.936   0.058  11.940  0.1238  0.0390  0.2266
 4245TIP3   OH234149   2.475   5.128  12.121 -0.6238 -0.2117  0.2386
 4245TIP3    H134150   2.470   5.137  12.026  1.7120 -1.6055 -0.1114
 4245TIP3    H234151   2.455   5.214  12.155 -1.4756  0.3291 -1.5243
 4246TIP3   OH234152   0.804   0.363  12.098  0.6016  0.0196  0.2256
 4246TIP3    H134153   0.820   0.357  12.004 -1.5405 -1.9673 -0.0899
 4246TIP3    H234154   0.847   0.445  12.124  0.9175  0.8355 -2.5363
 4247TIP3   OH234155   1.440   4.110   0.791  0.0647 -0.6934 -0.0840
 4247TIP3    H134156   1.509   4.098   0.857 -0.3329 -1.0431  0.2754
 4247TIP3    H234157   1.359   4.104   0.841 -0.2706 -2.0023 -0.7570
 4248TIP3   OH234158   5.676   4.847   2.542  0.2511  0.3410  0.0675
 4248TIP3    H134159   5.685   4.873   2.450  0.3904 -2.6928 -0.8826
 4248TIP3    H234160   5.583   4.828   2.553  0.0412  1.7201  0.9158
 4249TIP3   OH234161   6.334   5.770   4.273 -0.1068 -0.0970 -0.3789
 4249TIP3    H134162   6.364   5.724   4.351  1.0336  0.2377 -0.6011
 4249TIP3    H234163   6.405   5.758   4.209  1.0199  3.2869  0.0486
 4250TIP3   OH234164   6.255   2.916  16.363 -0.1083 -0.2746  0.2708
 4250TIP3    H134165   6.179   2.934  16.307  0.2286  0.8247  0.1334
 4250TIP3    H234166   6.256   2.988  16.426  0.3144 -0.7584  0.8245
 4251TIP3   OH234167   5.888   2.338  15.156 -0.1135 -0.1986  0.0643
 4251TIP3    H134168   5.849   2.286  15.226 -0.2507 -1.5033 -0.9532
 4251TIP3    H234169   5.898   2.425  15.194  0.4321 -1.0253  1.9258
 4252TIP3   OH234170   2.112   1.205  14.365 -0.2501 -0.4058  0.4309
 4252TIP3    H134171   2.194   1.253  14.356 -0.6246  0.1401 -0.1877
 4252TIP3    H234172   2.124   1.150  14.442  2.2016 -3.4118 -1.8908
 4253TIP3   OH234173   1.565   0.014  15.692  0.4619  0.0138  0.1001
 4253TIP3    H134174   1.602  -0.036  15.620 -2.8264 -1.5489 -0.6710
 4253TIP3    H234175   1.485   0.052  15.657 -1.9094 -1.7456  3.1196
 4254TIP3   OH234176   6.237   6.180   0.439  0.4003 -0.0108 -0.3055
 4254TIP3    H134177   6.185   6.256   0.464  0.8713  0.0893  0.4077
 4254TIP3    H234178   6.173   6.118   0.404 -0.1695  0.2021  0.3326
 4255TIP3   OH234179   0.929   4.419   1.686 -0.2154 -0.5622 -0.2588
 4255TIP3    H134180   0.960   4.508   1.705 -0.2689 -0.2505 -1.5356
 4255TIP3    H234181   0.847   4.412   1.734  0.2972 -0.2917  0.6776
 4256TIP3   OH234182   3.092   5.195  12.507  0.4443 -0.1708 -0.2593
 4256TIP3    H134183   3.000   5.204  12.482  0.2650 -0.4595  0.2721
 4256TIP3    H234184   3.120   5.284  12.528  0.9800  0.2995 -2.6837
 4257TIP3   OH234185   0.408   2.046  16.609 -1.0009  0.1430 -0.0846
 4257TIP3    H134186   0.430   2.054  16.517 -0.1297  0.8519  0.1787
 4257TIP3    H234187   0.392   2.136  16.638 -0.9385 -0.0416  0.5323
 4258TIP3   OH234188   0.394   1.844  10.190 -0.3197  0.0264 -0.0484
 4258TIP3    H134189   0.311   1.804  10.164 -2.7421  2.6706  2.8678
 4258TIP3    H234190   0.423   1.793  10.265  1.5742 -1.6962 -1.8118
 4259TIP3   OH234191   5.636   1.585   3.687 -0.2524 -0.2906  0.3019
 4259TIP3    H134192   5.717   1.537   3.669  0.4283  0.5167  1.1071
 4259TIP3    H234193   5.608   1.618   3.602 -1.1627 -2.7067 -0.4121
 4260TIP3   OH234194   5.526   6.458   3.450  0.3602  0.2309 -0.0405
 4260TIP3    H134195   5.478   6.488   3.373 -1.3519 -0.2144  0.8093
 4260TIP3    H234196   5.513   6.527   3.515 -0.3710 -0.5575  0.6706
 4261TIP3   OH234197   3.749   6.213  12.087  0.6269 -0.6171 -0.2630
 4261TIP3    H134198   3.686   6.249  12.025  0.1010 -0.0303  0.6009
 4261TIP3    H234199   3.827   6.267  12.077  0.2172  0.0774  0.2503
 4262TIP3   OH234200   3.762   3.215  16.713  0.4628  0.1421 -0.0801
 4262TIP3    H134201   3.792   3.297  16.753  0.3926 -0.6829  1.7405
 4262TIP3    H234202   3.670   3.209  16.736  0.3894 -0.2938 -0.4809
 4263TIP3   OH234203   5.176   3.206  11.618 -0.1558  0.0736 -0.2439
 4263TIP3    H134204   5.266   3.239  11.625 -0.3109  1.0182 -2.0824
 4263TIP3    H234205   5.131   3.243  11.693  1.1813 -1.1744  1.2454
 4264TIP3   OH234206   1.668   3.738   0.731  0.1344  0.0969  0.6824
 4264TIP3    H134207   1.612   3.809   0.700  2.1239  1.4080 -0.0508
 4264TIP3    H234208   1.622   3.704   0.809 -2.2037  0.3356 -0.5149
 4265TIP3   OH234209   4.292   5.327   3.265  0.2810  0.4421 -0.3110
 4265TIP3    H134210   4.248   5.401   3.308  1.4605  1.1161 -0.2324
 4265TIP3    H234211   4.230   5.297   3.199 -1.3681 -0.2711  1.4693
 4266TIP3   OH234212   5.989   5.907  14.777  0.1375 -0.3257  0.7735
 4266TIP3    H134213   5.952   5.987  14.815 -1.4361  0.5652 -2.3014
 4266TIP3    H234214   6.082   5.927  14.765 -0.4986  1.8532 -1.4812
 4267TIP3   OH234215   0.343   5.659   1.098 -0.0052  0.4173 -0.3452
 4267TIP3    H134216   0.290   5.694   1.027  2.5002 -1.6707 -3.5579
 4267TIP3    H234217   0.295   5.583   1.130 -0.6938  0.7734 -0.5300
 4268TIP3   OH234218   5.136   3.043  14.485  0.7453 -0.1860 -0.4640
 4268TIP3    H134219   5.214   3.081  14.525  0.0777  1.0040 -0.2205
 4268TIP3    H234220   5.162   3.021  14.396  1.2238  0.6784 -0.5426
 4269TIP3   OH234221   6.513   4.288  11.219  0.6721  0.1035 -0.2367
 4269TIP3    H134222   6.538   4.261  11.130 -0.7768  0.1623 -0.6915
 4269TIP3    H234223   6.461   4.215  11.252  1.2616  0.0531  0.6158
 4270TIP3   OH234224   3.467   4.172   6.294 -0.2381 -0.4460 -0.1397
 4270TIP3    H134225   3.488   4.078   6.293 -0.4554 -0.4928 -0.9218
 4270TIP3    H234226   3.535   4.212   6.239 -0.8258 -0.3011 -0.7741
 4271TIP3   OH234227   5.196   5.791  13.381  0.2905  0.5340 -0.2802
 4271TIP3    H134228   5.247   5.847  13.439 -0.1765 -0.4743  1.1519
 4271TIP3    H234229   5.253   5.718  13.361 -0.4138 -0.4165  1.0365
 4272TIP3   OH234230   2.236   1.262  16.680  0.1485  0.0620 -0.0219
 4272TIP3    H134231   2.232   1.278  16.774 -1.1793 -0.6909  0.0792
 4272TIP3    H234232   2.322   1.295  16.653  1.1113 -0.9271  1.6717
 4273TIP3   OH234233   4.021   5.337   1.508  0.1481 -0.4116 -0.3941
 4273TIP3    H134234   4.006   5.315   1.600 -0.6024  0.6870 -0.2292
 4273TIP3    H234235   4.089   5.277   1.479  1.2656  0.0129  1.2220
 4274TIP3   OH234236   0.913   2.532  12.009 -0.1690  0.1571 -0.0011
 4274TIP3    H134237   0.939   2.533  12.101 -0.6135  1.0393  0.1271
 4274TIP3    H234238   0.979   2.585  11.964  0.3809 -0.7577 -0.2952
 4275TIP3   OH234239   2.568   4.858   4.384 -0.0477 -0.1806  0.8385
 4275TIP3    H134240   2.564   4.953   4.373  0.2534 -0.1576  0.9246
 4275TIP3    H234241   2.651   4.832   4.345 -1.4299 -0.7966 -1.9229
 4276TIP3   OH234242   0.992   4.761  11.920  0.0694 -0.1109  0.0315
 4276TIP3    H134243   0.905   4.746  11.882 -1.1345 -1.1619  2.9301
 4276TIP3    H234244   1.023   4.673  11.944 -0.2821  0.5576  3.4070
 4277TIP3   OH234245   2.689   6.675  17.034  0.1667 -0.4540 -1.0962
 4277TIP3    H134246   2.676   6.769  17.021  0.0929 -0.1743  0.7100
 4277TIP3    H234247   2.623   6.651  17.099  0.9749 -1.5063 -0.6377
 4278TIP3   OH234248   1.569   0.744  11.744  0.3412 -0.0675 -0.2263
 4278TIP3    H134249   1.543   0.654  11.765  1.9530 -0.5034  0.0207
 4278TIP3    H234250   1.525   0.763  11.661  0.4936 -1.3366 -0.6195
 4279TIP3   OH234251   6.040   6.540   2.505  0.5301  0.4449  0.3973
 4279TIP3    H134252   5.974   6.471   2.492  2.0431 -1.1781  0.9782
 4279TIP3    H234253   6.067   6.531   2.596  0.2857  2.3012  0.6897
 4280TIP3   OH234254   4.330   0.504   1.183 -0.3153  0.5670 -0.4322
 4280TIP3    H134255   4.272   0.467   1.116 -0.7510 -0.8459  0.6791
 4280TIP3    H234256   4.309   0.456   1.262  2.0295  0.3517  0.1286
 4281TIP3   OH234257   6.642   5.482   1.543  0.0157  0.1980 -0.3961
 4281TIP3    H134258   6.648   5.568   1.585  1.2092  0.0058 -0.1328
 4281TIP3    H234259   6.702   5.488   1.469  2.1499 -1.1948  1.0887
 4282TIP3   OH234260   6.162   5.486  13.009  0.5996  0.3502  0.3372
 4282TIP3    H134261   6.087   5.440  13.047  1.6356 -2.5406 -0.8342
 4282TIP3    H234262   6.123   5.561  12.964 -1.4449 -0.3590  0.7952
 4283TIP3   OH234263   4.022   0.180  15.463  0.0115 -0.1110  0.3628
 4283TIP3    H134264   3.950   0.228  15.504  0.5635  0.2840  0.8807
 4283TIP3    H234265   4.030   0.219  15.375 -0.1336  0.1243  0.4544
 4284TIP3   OH234266   5.501   5.606   2.422 -0.1808  0.5461 -0.6003
 4284TIP3    H134267   5.535   5.613   2.333  0.8108 -1.3926 -0.4260
 4284TIP3    H234268   5.430   5.542   2.414 -1.2021  1.5964 -0.2479
 4285TIP3   OH234269   5.859   3.485  12.130 -0.2370 -0.2978  0.0789
 4285TIP3    H134270   5.815   3.567  12.108 -0.6818  0.0253  1.9983
 4285TIP3    H234271   5.808   3.448  12.202  0.2861 -1.9932 -0.3611
 4286TIP3   OH234272   3.184   2.738   1.870 -0.0577  0.0826 -0.1856
 4286TIP3    H134273   3.097   2.700   1.860  0.5169 -1.1291 -0.8285
 4286TIP3    H234274   3.218   2.700   1.951 -0.3872  1.1044  0.4418
 4287TIP3   OH234275   5.964   1.048  16.152 -0.0322 -0.4767 -0.2130
 4287TIP3    H134276   6.046   0.999  16.145  0.3877  0.0627  0.6861
 4287TIP3    H234277   5.896   0.986  16.126  0.5980 -1.1731 -0.2177
 4288TIP3   OH234278   1.386   0.423  13.838 -0.3303 -1.0973 -0.7702
 4288TIP3    H134279   1.453   0.419  13.907 -0.6550  1.0160 -0.2606
 4288TIP3    H234280   1.355   0.513  13.841 -0.9502 -1.1832 -3.1544
 4289TIP3   OH234281   0.391   5.616   0.205 -0.3081  0.2604 -0.4318
 4289TIP3    H134282   0.326   5.679   0.232 -1.8545 -0.3235 -2.5318
 4289TIP3    H234283   0.471   5.667   0.191 -0.5571  1.1389  1.1551
 4290TIP3   OH234284   3.917   0.801  11.306  0.1785 -0.0135 -0.1548
 4290TIP3    H134285   3.835   0.825  11.262 -1.0605 -0.0867  1.9612
 4290TIP3    H234286   3.986   0.826  11.244 -1.3685  1.5002 -1.3655
 4291TIP3   OH234287   5.745   3.940  13.012  0.2307  0.1036  0.4648
 4291TIP3    H134288   5.775   3.854  12.986 -1.5793 -0.2442 -0.6605
 4291TIP3    H234289   5.776   3.999  12.943  1.0153  0.2907  0.9619
 4292TIP3   OH234290   2.551   0.435  15.942 -0.4053 -0.2508 -0.4094
 4292TIP3    H134291   2.465   0.439  15.901 -1.6337 -0.5162  1.9328
 4292TIP3    H234292   2.534   0.402  16.030  2.0341  0.2188  0.3262
 4293TIP3   OH234293   1.043   3.080  11.020 -0.3780 -0.2558 -0.8128
 4293TIP3    H134294   1.042   3.105  11.113 -1.6073  0.3775 -0.9741
 4293TIP3    H234295   1.134   3.091  10.994 -0.2996  1.1703 -0.0851
 4294TIP3   OH234296   5.964   1.878  14.096  0.1381 -0.2290  0.1605
 4294TIP3    H134297   6.044   1.827  14.108 -0.9372 -1.8470  0.8901
 4294TIP3    H234298   5.993   1.961  14.060  2.0291 -1.1957 -0.6612
 4295TIP3   OH234299   3.202   5.250   1.644 -0.4234 -0.3567  0.0531
 4295TIP3    H134300   3.126   5.192   1.648 -0.3606 -0.4593 -0.2272
 4295TIP3    H234301   3.261   5.217   1.712 -0.7422 -0.1122  0.4537
 4296TIP3   OH234302   1.698   4.044   0.212 -0.0959 -0.4520 -0.2478
 4296TIP3    H134303   1.672   4.087   0.293  1.2667 -0.6981  0.3473
 4296TIP3    H234304   1.666   3.954   0.221 -1.0979 -0.1452 -0.5791
 4297TIP3   OH234305   2.685   1.036   3.259  0.4421 -0.2226  0.4034
 4297TIP3    H134306   2.615   0.971   3.260  0.5073 -0.3103 -0.3462
 4297TIP3    H234307   2.645   1.114   3.220  0.7775 -0.2993 -0.1020
 4298TIP3   OH234308   5.557   2.199  11.515 -0.0347  0.0131  0.0992
 4298TIP3    H134309   5.573   2.257  11.440 -0.7315 -0.0009 -0.0701
 4298TIP3    H234310   5.570   2.255  11.592  0.7481  0.0131 -0.0218
 4299TIP3   OH234311   6.020   6.709   0.418 -0.0014 -0.6455 -0.2063
 4299TIP3    H134312   6.064   6.784   0.377 -1.2878  0.4375  0.3074
 4299TIP3    H234313   6.022   6.640   0.351  0.0991  0.2682 -1.1747
 4300TIP3   OH234314   4.601   1.886   0.884 -0.7600 -0.2564  0.1156
 4300TIP3    H134315   4.528   1.947   0.873 -1.6958 -1.5745 -1.5218
 4300TIP3    H234316   4.625   1.861   0.795  0.8092 -0.8880  0.6836
 4301TIP3   OH234317   1.342   4.493   3.700  0.0810  1.0240  0.5101
 4301TIP3    H134318   1.423   4.445   3.681 -1.3751 -0.6338 -2.1197
 4301TIP3    H234319   1.315   4.529   3.616 -2.3919  0.7001  1.0844
 4302TIP3   OH234320   6.466   4.850   4.076 -0.0445 -0.2516  0.4086
 4302TIP3    H134321   6.486   4.862   4.169  1.0220 -0.4552  0.2186
 4302TIP3    H234322   6.548   4.870   4.032 -0.4773 -0.4085 -0.4738
 4303TIP3   OH234323   0.138   5.812   2.453 -0.1056 -0.1779 -0.1281
 4303TIP3    H134324   0.191   5.733   2.462 -1.7300 -1.3399 -0.2151
 4303TIP3    H234325   0.107   5.810   2.363  0.9257  1.3209 -0.5475
 4304TIP3   OH234326   2.028   3.651  16.260 -0.1830 -0.2769 -0.1451
 4304TIP3    H134327   2.122   3.667  16.259 -0.1411 -0.5185 -0.1807
 4304TIP3    H234328   2.020   3.556  16.253 -0.5255 -0.0894 -3.8296
 4305TIP3   OH234329   6.774   3.537   0.179 -0.0613  0.4507  0.2670
 4305TIP3    H134330   6.703   3.500   0.126  1.1657 -0.5899 -0.7117
 4305TIP3    H234331   6.854   3.509   0.135  1.0637 -0.9083  2.9318
 4306TIP3   OH234332   2.275   5.183  12.448 -0.4466  0.3974  0.4340
 4306TIP3    H134333   2.351   5.135  12.417 -0.3229  1.4218 -0.9785
 4306TIP3    H234334   2.220   5.118  12.490  0.4434 -0.6587 -0.0015
 4307TIP3   OH234335   6.657   3.564   4.470 -0.1860 -0.6430 -0.1543
 4307TIP3    H134336   6.571   3.601   4.448 -0.9174 -1.4393  1.2211
 4307TIP3    H234337   6.659   3.565   4.566  1.8606  0.4617 -0.1684
 4308TIP3   OH234338   5.117   2.565   3.729 -0.1357  0.2972  0.6537
 4308TIP3    H134339   5.077   2.642   3.769  2.3579  2.8710 -1.3498
 4308TIP3    H234340   5.209   2.571   3.753  0.1237 -2.2408  0.5562
 4309TIP3   OH234341   5.166   5.144  14.154 -0.4349 -0.7478  0.1710
 4309TIP3    H134342   5.141   5.169  14.243 -0.8496 -0.4167 -0.0311
 4309TIP3    H234343   5.257   5.172  14.145 -0.4427 -0.6340  0.4379
 4310TIP3   OH234344   2.472   3.246  11.833 -0.3471  0.1484 -0.3872
 4310TIP3    H134345   2.557   3.224  11.794  0.5122  0.6266  1.1414
 4310TIP3    H234346   2.432   3.305  11.770 -0.1637 -1.1595 -1.7820
 4311TIP3   OH234347   3.057   0.677   3.608  0.7585 -0.5453  0.5693
 4311TIP3    H134348   3.031   0.587   3.629  0.7634 -0.4255  1.1053
 4311TIP3    H234349   3.146   0.669   3.573  0.5679 -0.8007  0.1353
 4312TIP3   OH234350   5.614   1.752  15.963 -0.1843  0.2590  0.1840
 4312TIP3    H134351   5.540   1.720  15.910 -0.8441  0.6484  0.8663
 4312TIP3    H234352   5.636   1.678  16.020  0.6394 -0.2230 -0.7229
 4313TIP3   OH234353   5.286   6.013  14.518 -0.0529  0.4014  0.4068
 4313TIP3    H134354   5.209   6.057  14.483 -0.5423  0.0023  0.9631
 4313TIP3    H234355   5.305   5.944  14.455 -1.9197 -1.3758  1.6732
 4314TIP3   OH234356   3.315   4.685  15.645 -0.7122  0.0062 -0.6438
 4314TIP3    H134357   3.303   4.672  15.551 -1.5003  1.0032 -0.6946
 4314TIP3    H234358   3.353   4.772  15.653 -0.7537 -0.0274 -0.0268
 4315TIP3   OH234359   5.517   2.126   1.070  0.1377 -0.0100 -0.1359
 4315TIP3    H134360   5.584   2.151   1.006  0.8577 -0.4281  0.4415
 4315TIP3    H234361   5.438   2.172   1.041  0.4905 -0.0467 -1.2228
 4316TIP3   OH234362   2.086   1.687   0.216  0.6106 -0.0870 -0.7465
 4316TIP3    H134363   1.998   1.663   0.186  0.8653 -0.4109 -1.2376
 4316TIP3    H234364   2.139   1.608   0.201  0.9539  0.0517 -0.3040
 4317TIP3   OH234365   5.539   4.893  12.066 -0.3187 -0.3594 -0.1728
 4317TIP3    H134366   5.533   4.803  12.098 -0.4835  0.2317  1.5751
 4317TIP3    H234367   5.557   4.945  12.145  0.1989  1.0897 -1.2082
 4318TIP3   OH234368   0.170   5.903   4.503 -0.4126  0.5527  0.3757
 4318TIP3    H134369   0.241   5.851   4.541  1.1828  2.8573  0.7282
 4318TIP3    H234370   0.119   5.932   4.578 -0.7075  0.3142  0.2667
 4319TIP3   OH234371   0.725   1.466   1.628  0.1743 -0.4059 -0.1490
 4319TIP3    H134372   0.698   1.414   1.704  2.2174 -0.2609  0.7397
 4319TIP3    H234373   0.819   1.480   1.640  1.6965 -3.9647 -4.7632
 4320TIP3   OH234374   4.478   5.788   2.037 -0.2794 -0.4358  0.4344
 4320TIP3    H134375   4.430   5.822   1.962  2.6623  1.4861 -0.7407
 4320TIP3    H234376   4.569   5.811   2.021  1.2263 -4.0522  2.3887
 4321TIP3   OH234377   6.706   5.499   2.607  0.3707  0.2437 -0.5626
 4321TIP3    H134378   6.707   5.548   2.689  2.0647  0.5263 -0.7216
 4321TIP3    H234379   6.646   5.426   2.624 -0.9179  1.4222  0.2176
 4322TIP3   OH234380   0.039   0.316  13.730  0.5660 -0.4286  0.3488
 4322TIP3    H134381   0.080   0.247  13.678  0.6671 -0.0603 -0.0687
 4322TIP3    H234382   0.101   0.388  13.727  1.1893 -0.8610  2.1190
 4323TIP3   OH234383   1.432   3.740  10.997 -0.1860 -0.2907  0.2091
 4323TIP3    H134384   1.471   3.828  11.000 -0.7057 -0.0876  1.9467
 4323TIP3    H234385   1.492   3.690  10.942 -0.1768  1.2684 -1.2907
 4324TIP3   OH234386   0.888   6.669  10.758 -0.3336 -0.0450 -0.2633
 4324TIP3    H134387   0.828   6.654  10.686  0.4146  0.6256 -1.0550
 4324TIP3    H234388   0.891   6.765  10.767  0.3456 -0.0830 -0.0095
 4325TIP3   OH234389   6.491   4.340   3.016  0.4738 -0.2193  0.2140
 4325TIP3    H134390   6.560   4.400   3.046  1.2886 -1.0467  0.0213
 4325TIP3    H234391   6.531   4.291   2.945 -0.2016 -0.9793  0.3471
 4326TIP3   OH234392   0.393   5.630  14.719 -0.0139  0.1972 -0.3674
 4326TIP3    H134393   0.438   5.550  14.744 -0.3185  0.1329 -0.0132
 4326TIP3    H234394   0.458   5.699  14.731 -0.0256  0.1154  0.2085
 4327TIP3   OH234395   0.964   6.242  13.092 -0.3373 -0.1331 -0.1611
 4327TIP3    H134396   0.939   6.308  13.028  1.7055  1.4662  0.5892
 4327TIP3    H234397   0.908   6.260  13.168  0.2019  0.7637  0.0361
 4328TIP3   OH234398   3.082   5.869  16.403  0.2818  0.6790 -0.1706
 4328TIP3    H134399   3.106   5.851  16.494  0.2713 -0.7419 -0.4302
 4328TIP3    H234400   3.105   5.961  16.390 -0.7565  1.2373  1.5953
 4329TIP3   OH234401   1.079   1.851   0.438  0.0225 -0.3258 -0.0502
 4329TIP3    H134402   1.096   1.900   0.519  0.0753  1.0574 -0.8579
 4329TIP3    H234403   1.046   1.917   0.377  0.3909 -1.2541 -1.2966
 4330TIP3   OH234404   2.290   1.249  11.456 -0.2014  0.2966 -0.3074
 4330TIP3    H134405   2.262   1.205  11.375 -1.4493  0.2938  0.1089
 4330TIP3    H234406   2.278   1.342  11.438  1.0293  0.4042 -0.6631
 4331TIP3   OH234407   1.338   1.304   6.214  0.4678  0.1525  0.2722
 4331TIP3    H134408   1.358   1.310   6.307 -0.5437 -0.0795  0.5101
 4331TIP3    H234409   1.373   1.218   6.188 -0.6456 -0.4871  0.8085
 4332TIP3   OH234410   1.297   3.270  16.991 -0.5424 -0.3305  0.1606
 4332TIP3    H134411   1.243   3.229  16.923 -0.2314  0.2657 -0.4621
 4332TIP3    H234412   1.359   3.201  17.016 -0.7557 -0.6064 -0.0509
 4333TIP3   OH234413   0.255   3.977   0.718  0.2006  0.0492 -0.8136
 4333TIP3    H134414   0.215   4.043   0.775  1.2304 -1.1438  1.4284
 4333TIP3    H234415   0.191   3.906   0.716  0.3417 -0.0784 -0.7978
 4334TIP3   OH234416   1.873   2.020  14.487 -0.6645  0.2511 -1.0251
 4334TIP3    H134417   1.781   2.037  14.469 -1.6594 -1.5849  1.6545
 4334TIP3    H234418   1.890   1.933  14.451  0.4908  1.1200 -2.7177
 4335TIP3   OH234419   1.773   5.476  10.141  0.3793 -0.0401 -0.7069
 4335TIP3    H134420   1.799   5.388  10.168  0.1036  0.6713  2.1601
 4335TIP3    H234421   1.846   5.507  10.087  2.6669 -0.3734  2.0088
 4336TIP3   OH234422   1.428   2.266  13.457  0.1157 -0.1042  0.3648
 4336TIP3    H134423   1.352   2.225  13.499 -0.3899 -0.4648 -0.8495
 4336TIP3    H234424   1.490   2.280  13.528 -0.9757 -0.0641  1.3400
 4337TIP3   OH234425   5.699   1.359   0.676  0.0287  0.8383 -0.5531
 4337TIP3    H134426   5.771   1.316   0.721 -0.3455  2.5417  1.8582
 4337TIP3    H234427   5.723   1.357   0.584  1.8099 -1.0635 -0.1062
 4338TIP3   OH234428   3.274   6.098  17.063 -0.4029  0.2961  0.3044
 4338TIP3    H134429   3.271   6.058  16.976 -1.2680 -1.0495  0.9205
 4338TIP3    H234430   3.333   6.172  17.053  1.8157 -1.5009 -0.7591
 4339TIP3   OH234431   3.251   3.161   4.021 -0.2332 -0.0838  0.2831
 4339TIP3    H134432   3.193   3.164   4.096  1.7036  0.3473  1.8489
 4339TIP3    H234433   3.249   3.250   3.985  0.2542  0.2215  0.9911
 4340TIP3   OH234434   5.357   4.966   2.013 -0.0931  0.0307  0.5329
 4340TIP3    H134435   5.271   4.992   2.043  0.8946  2.4633  1.4918
 4340TIP3    H234436   5.340   4.904   1.942 -2.5650 -0.9108  1.8295
 4341TIP3   OH234437   1.733   3.289   3.065 -0.4685  0.3373  0.6733
 4341TIP3    H134438   1.743   3.312   3.158  0.7387  3.8396 -0.1613
 4341TIP3    H234439   1.641   3.265   3.057 -0.4236 -0.9056  2.8817
 4342TIP3   OH234440   6.238   3.185   4.510 -0.2075  0.3454  0.6339
 4342TIP3    H134441   6.150   3.211   4.486 -0.4628 -1.0116  0.0202
 4342TIP3    H234442   6.295   3.251   4.469 -0.9712  2.9377  3.3991
 4343TIP3   OH234443   4.390   0.461   0.569 -0.6181  0.3172  0.4380
 4343TIP3    H134444   4.330   0.533   0.549  0.0727  0.5568 -0.8760
 4343TIP3    H234445   4.383   0.402   0.494  0.8495  0.3928  0.2207
 4344TIP3   OH234446   6.040   3.245  12.918  0.3953 -0.0817 -0.2872
 4344TIP3    H134447   5.990   3.177  12.874 -1.4830  0.5919  0.7174
 4344TIP3    H234448   6.095   3.283  12.850 -1.3577 -0.0356 -1.7357
 4345TIP3   OH234449   2.251   4.662   0.275  0.3943  0.2899 -0.5705
 4345TIP3    H134450   2.224   4.692   0.362  0.8672 -1.5085  0.2428
 4345TIP3    H234451   2.333   4.708   0.258  0.0147  1.0715 -0.3112
 4346TIP3   OH234452   4.671   3.885   5.169 -0.1821  0.2906 -0.2193
 4346TIP3    H134453   4.615   3.812   5.196  0.8154 -0.1451  0.7589
 4346TIP3    H234454   4.705   3.920   5.252 -0.4821  1.7393 -0.6899
 4347TIP3   OH234455   2.125   5.615  14.227  0.0914 -0.5357 -0.0234
 4347TIP3    H134456   2.170   5.536  14.198  2.0665  0.8980 -1.1325
 4347TIP3    H234457   2.118   5.604  14.322  5.7834  0.3245  0.8902
 4348TIP3   OH234458   2.168   2.796  12.094 -0.3001 -0.2812  0.0961
 4348TIP3    H134459   2.262   2.817  12.090 -0.1033 -1.2962 -1.9559
 4348TIP3    H234460   2.132   2.860  12.155  1.7606 -0.0131  1.1294
 4349TIP3   OH234461   1.455   1.877  14.086 -0.3788  0.1109 -0.4555
 4349TIP3    H134462   1.463   1.971  14.104  0.1091 -0.1312  0.6411
 4349TIP3    H234463   1.530   1.838  14.130 -0.1140 -0.7140 -1.6083
 4350TIP3   OH234464   6.114   4.624   5.402  0.0857  0.1264  0.8589
 4350TIP3    H134465   6.177   4.552   5.391  0.7422  1.0112 -2.3239
 4350TIP3    H234466   6.157   4.685   5.462  1.4884 -0.1748  0.2256
 4351TIP3   OH234467   6.063   3.704  15.216 -0.1076 -0.9770  0.3317
 4351TIP3    H134468   6.144   3.712  15.165 -1.9004  0.4452 -2.4868
 4351TIP3    H234469   6.038   3.612  15.206  0.7255 -1.2507  0.6155
 4352TIP3   OH234470   0.880   1.193  12.121  1.0817  0.2385  0.0545
 4352TIP3    H134471   0.925   1.247  12.186  0.8959  1.9818 -1.1961
 4352TIP3    H234472   0.912   1.225  12.037 -1.4133  0.6106 -0.8405
 4353TIP3   OH234473   2.382   6.063   1.659  0.0955 -0.3267 -0.8359
 4353TIP3    H134474   2.389   6.148   1.616  4.2510  0.6345  1.2419
 4353TIP3    H234475   2.334   6.081   1.740  1.0311  0.1296 -0.3639
 4354TIP3   OH234476   2.581   2.502   3.255  0.4391  0.1643  0.3714
 4354TIP3    H134477   2.529   2.542   3.324  0.1660 -0.0204  0.2758
 4354TIP3    H234478   2.516   2.476   3.189  0.8201  2.1308 -0.8956
 4355TIP3   OH234479   5.375   6.186   0.906  0.1063 -0.3569 -0.3873
 4355TIP3    H134480   5.445   6.237   0.866 -0.0900 -0.4959 -0.9237
 4355TIP3    H234481   5.379   6.207   0.999  2.0225 -1.7253 -0.1009
 4356TIP3   OH234482   1.810   1.680   5.482 -0.7478 -0.3971 -0.4795
 4356TIP3    H134483   1.858   1.598   5.469 -1.1633 -0.5413 -1.1555
 4356TIP3    H234484   1.767   1.669   5.567  0.6289 -0.1481  0.2734
 4357TIP3   OH234485   1.397   0.158   5.570 -0.6190  0.8559 -0.2649
 4357TIP3    H134486   1.359   0.242   5.595 -1.5816  0.0725  1.0499
 4357TIP3    H234487   1.321   0.100   5.559  0.0800 -0.1587  0.1033
 4358TIP3   OH234488   2.170   4.707  17.075  0.3464  0.8287  0.3802
 4358TIP3    H134489   2.236   4.776  17.065  2.0341 -0.6865  0.5578
 4358TIP3    H234490   2.214   4.639  17.126 -0.9509 -0.7439 -0.5072
 4359TIP3   OH234491   0.743   0.036  15.588  0.1222  0.1830 -0.8056
 4359TIP3    H134492   0.672  -0.019  15.622  1.7268 -1.0427  0.7666
 4359TIP3    H234493   0.750   0.011  15.496  0.8161 -2.3486 -0.1369
 4360TIP3   OH234494   4.793   2.614   1.604  0.6182  0.3496  0.4417
 4360TIP3    H134495   4.739   2.663   1.666 -0.0686  0.9851 -0.6195
 4360TIP3    H234496   4.832   2.544   1.656 -2.0853 -0.8003  1.0757
 4361TIP3   OH234497   0.976   3.880  16.403  0.2411  0.3415 -0.7319
 4361TIP3    H134498   1.057   3.916  16.440  0.0551 -0.1377  0.1790
 4361TIP3    H234499   0.912   3.888  16.474  0.0589 -1.2696 -0.6650
 4362TIP3   OH234500   2.572   3.896  14.800  0.0605 -0.3475 -0.1099
 4362TIP3    H134501   2.574   3.802  14.781 -1.5621 -1.0053  2.5010
 4362TIP3    H234502   2.618   3.905  14.883 -1.6690  0.7827  0.8040
 4363TIP3   OH234503   1.764   6.778  15.869  0.3468  0.9948 -0.0577
 4363TIP3    H134504   1.691   6.794  15.809  1.4306  1.5069 -1.2974
 4363TIP3    H234505   1.816   6.711  15.825 -0.1058 -0.4429  1.4902
 4364TIP3   OH234506   4.104   0.398  15.587 -0.1712  0.1406  0.1791
 4364TIP3    H134507   4.182   0.452  15.602 -0.2787  0.2571  0.3227
 4364TIP3    H234508   4.137   0.320  15.543 -0.1379  0.7327 -0.8904
 4365TIP3   OH234509   0.831   2.872  15.077  0.5438  0.1441  0.0799
 4365TIP3    H134510   0.809   2.846  14.987 -1.1662 -0.1957  0.5587
 4365TIP3    H234511   0.860   2.963  15.069 -1.5536  0.8017 -0.5877
 4366TIP3   OH234512   5.220   5.944   2.754 -0.4556  0.1158 -0.1265
 4366TIP3    H134513   5.258   5.884   2.690 -1.4820  0.4284 -1.0716
 4366TIP3    H234514   5.178   5.887   2.819  0.9141 -0.2088  0.5170
 4367TIP3   OH234515   2.030   0.087   4.992 -0.1288  0.6204  1.3407
 4367TIP3    H134516   1.968   0.045   5.052 -0.1390 -1.4833 -0.0189
 4367TIP3    H234517   1.974   0.129   4.926 -0.1220  0.1236  1.0150
 4368TIP3   OH234518   6.776   3.493  13.882  0.5311 -0.0781  0.0968
 4368TIP3    H134519   6.729   3.538  13.811  3.5601  1.2054 -1.2778
 4368TIP3    H234520   6.769   3.400  13.861 -0.0312  0.1859 -0.9545
 4369TIP3   OH234521   5.687   0.943   6.314 -0.4444 -0.0747 -0.3119
 4369TIP3    H134522   5.708   0.953   6.221 -3.2853 -2.3097 -1.3518
 4369TIP3    H234523   5.591   0.944   6.316 -0.4881 -1.9757  2.3267
 4370TIP3   OH234524   0.069   2.251   0.788  0.2374 -0.2153  0.1302
 4370TIP3    H134525   0.076   2.157   0.769 -1.9618 -0.6855  1.3036
 4370TIP3    H234526   0.142   2.269   0.847  1.0258 -1.0205 -0.5533
 4371TIP3   OH234527   1.081   4.490  10.368 -0.8244 -0.0650 -0.4206
 4371TIP3    H134528   1.172   4.477  10.396 -1.2097 -1.4876  0.2651
 4371TIP3    H234529   1.060   4.579  10.397 -0.2132 -0.3770  1.0943
 4372TIP3   OH234530   6.410   6.577   1.865  0.1498 -0.0292  0.3549
 4372TIP3    H134531   6.493   6.541   1.896  0.3032  0.0913  0.0848
 4372TIP3    H234532   6.434   6.637   1.794 -0.1292  0.3748  0.5984
 4373TIP3   OH234533   4.528   5.175   3.268  0.3021 -0.9935 -0.2474
 4373TIP3    H134534   4.589   5.226   3.214  0.1368  0.1417  0.6049
 4373TIP3    H234535   4.448   5.227   3.269  1.3322  0.9202  3.8894
 4374TIP3   OH234536   3.082   6.034   3.438 -0.2474  0.1544  0.0808
 4374TIP3    H134537   3.040   6.036   3.524  0.2125  1.5398  0.2997
 4374TIP3    H234538   3.151   5.968   3.447 -1.6874 -1.4535  0.0031
 4375TIP3   OH234539   5.281   6.320  14.941 -0.0481  0.0023 -0.2488
 4375TIP3    H134540   5.242   6.276  14.865 -1.6690 -0.9985  1.0901
 4375TIP3    H234541   5.286   6.412  14.914 -1.6781 -0.1267 -1.1903
 4376TIP3   OH234542   2.158   6.276  15.460  0.5429 -0.4638 -0.1863
 4376TIP3    H134543   2.123   6.354  15.417  0.7848 -0.4265 -0.3188
 4376TIP3    H234544   2.180   6.216  15.389 -0.1367 -0.8694 -0.0639
 4377TIP3   OH234545   1.983   1.803   5.771 -0.4053  0.1556 -0.1699
 4377TIP3    H134546   2.022   1.718   5.756  0.7101  0.1963  2.1285
 4377TIP3    H234547   1.985   1.815   5.866 -4.5828  0.8613  0.0367
 4378TIP3   OH234548   2.393   1.982  15.564 -0.0568 -0.0377  0.8906
 4378TIP3    H134549   2.405   1.893  15.596 -0.8876 -0.0123  1.2789
 4378TIP3    H234550   2.365   1.971  15.473 -1.1181 -0.2126  1.2244
 4379TIP3   OH234551   2.589   1.506   5.483 -0.1081  0.4560 -0.0596
 4379TIP3    H134552   2.588   1.484   5.576 -0.0616 -0.6385 -0.2955
 4379TIP3    H234553   2.589   1.421   5.439  0.7779  0.9470 -1.0568
 4380TIP3   OH234554   6.436   3.244  12.199  0.1214  0.1588  0.3372
 4380TIP3    H134555   6.494   3.198  12.138 -0.0179  0.9203 -0.3899
 4380TIP3    H234556   6.422   3.330  12.159 -0.4679  0.4560  1.1465
 4381TIP3   OH234557   1.392   4.203   3.900 -0.6555  0.4234 -0.0132
 4381TIP3    H134558   1.470   4.255   3.884 -0.9251  1.1294  0.8973
 4381TIP3    H234559   1.349   4.197   3.815  0.0388  0.5915 -0.3824
 4382TIP3   OH234560   5.078   4.478   4.561  0.3096 -0.2984 -0.0786
 4382TIP3    H134561   5.109   4.400   4.607  0.4872 -0.9449 -1.2506
 4382TIP3    H234562   5.063   4.542   4.630 -2.3064 -2.1637  1.2466
 4383TIP3   OH234563   4.506   6.744  12.041 -0.2901 -0.3041 -0.0557
 4383TIP3    H134564   4.480   6.795  12.117 -0.7476 -0.8476  0.1609
 4383TIP3    H234565   4.600   6.729  12.052 -0.4863 -0.9851  0.7762
 4384TIP3   OH234566   6.191   1.822  14.424 -0.4557 -0.2202 -0.3047
 4384TIP3    H134567   6.172   1.916  14.418  0.8105  0.1024  0.3943
 4384TIP3    H234568   6.109   1.783  14.455  0.0293  1.2048  3.2289
 4385TIP3   OH234569   1.930   4.933   4.111 -0.2335  0.1190  0.6289
 4385TIP3    H134570   1.879   4.943   4.191 -2.5070 -1.1444 -0.5749
 4385TIP3    H234571   1.976   4.850   4.122 -0.8208 -0.2298  0.5019
 4386TIP3   OH234572   0.280   3.473  12.683 -0.0579 -0.0853  0.4547
 4386TIP3    H134573   0.308   3.451  12.594  0.3570  2.1808 -0.0171
 4386TIP3    H234574   0.340   3.424  12.740  0.9020 -0.0751 -0.5229
 4387TIP3   OH234575   6.028   6.124   1.721 -0.4199 -0.1535  0.4355
 4387TIP3    H134576   6.036   6.218   1.737  2.2096 -0.1753 -0.2975
 4387TIP3    H234577   5.935   6.105   1.736 -1.1129  2.6069  0.2073
 4388TIP3   OH234578   2.902   0.487  15.300 -0.0013  0.6266 -0.3175
 4388TIP3    H134579   2.850   0.562  15.330  1.3686  1.7052 -0.5200
 4388TIP3    H234580   2.867   0.412  15.349  1.3573  2.0786  3.2721
 4389TIP3   OH234581   6.171   1.040   2.494 -0.4006 -0.1623 -0.1891
 4389TIP3    H134582   6.198   1.104   2.428  0.4445  0.2984  0.5775
 4389TIP3    H234583   6.086   1.071   2.525 -2.1285 -1.8102 -2.8758
 4390TIP3   OH234584   1.153   1.987  14.607  0.2928 -0.4461 -0.5055
 4390TIP3    H134585   1.123   1.978  14.697 -0.2639  0.1131 -0.6220
 4390TIP3    H234586   1.084   2.039  14.564  1.4156  0.8881 -0.7799
 4391TIP3   OH234587   6.633   3.039   4.558 -0.4309 -0.1658  0.2763
 4391TIP3    H134588   6.621   3.131   4.583 -0.6616 -0.1476  0.1027
 4391TIP3    H234589   6.727   3.028   4.549 -0.4849  0.5189 -1.4792
 4392TIP3   OH234590   6.507   5.259   1.631 -0.8637  0.2736 -0.3341
 4392TIP3    H134591   6.541   5.341   1.595 -0.8224  1.3051  1.9378
 4392TIP3    H234592   6.577   5.226   1.687 -0.1718 -2.2996 -2.4649
 4393TIP3   OH234593   6.477   1.371  14.956  0.3917  0.1745  0.2022
 4393TIP3    H134594   6.530   1.374  14.876  1.5174  0.1867  0.9215
 4393TIP3    H234595   6.389   1.351  14.926  1.0360 -1.1031 -0.9418
 4394TIP3   OH234596   0.492   5.604  15.519 -0.3185  0.4946 -0.2224
 4394TIP3    H134597   0.575   5.584  15.477 -0.4526 -0.3564 -0.1167
 4394TIP3    H234598   0.498   5.696  15.544  0.8969  0.2437  0.4687
 4395TIP3   OH234599   5.652   6.365   5.623  0.1081 -0.4465  0.6425
 4395TIP3    H134600   5.579   6.407   5.669 -0.6545 -1.4256  0.3487
 4395TIP3    H234601   5.652   6.407   5.537 -0.0615 -0.3880  0.6686
 4396TIP3   OH234602   2.666   1.867   2.185  0.0541  0.0986 -0.0879
 4396TIP3    H134603   2.618   1.942   2.220  0.4805  1.2006 -1.7722
 4396TIP3    H234604   2.713   1.901   2.109  0.5110 -1.8081 -0.7250
 4397TIP3   OH234605   1.714   0.048   2.832  0.1253  0.7462  0.2798
 4397TIP3    H134606   1.693  -0.000   2.752 -0.7030  0.4848  0.6452
 4397TIP3    H234607   1.630   0.057   2.878  0.7314 -0.0506  1.6354
 4398TIP3   OH234608   3.496   3.413   5.071 -0.5064  0.1429 -0.1531
 4398TIP3    H134609   3.538   3.498   5.084 -0.8604  0.6574 -2.0784
 4398TIP3    H234610   3.544   3.373   4.998 -1.1496 -0.7687 -0.0942
 4399TIP3   OH234611   4.416   3.787  10.929  0.0301 -0.2343 -0.0661
 4399TIP3    H134612   4.505   3.752  10.917 -0.1703 -0.2782 -1.5838
 4399TIP3    H234613   4.377   3.732  10.996  0.8929 -0.7036  0.0598
 4400TIP3   OH234614   4.892   2.526   6.507  0.0717  0.1900 -0.7012
 4400TIP3    H134615   4.917   2.434   6.495 -1.7034 -0.4493  0.3125
 4400TIP3    H234616   4.798   2.524   6.523  0.3293  1.9937  1.4498
 4401TIP3   OH234617   2.426   2.843  13.841 -0.5137  0.2656  0.1948
 4401TIP3    H134618   2.425   2.753  13.810 -2.3213  0.1708  0.3870
 4401TIP3    H234619   2.339   2.877  13.818 -2.1976  0.1502  5.0104
 4402TIP3   OH234620   0.985   6.447  14.512  0.3430 -0.5356  1.9821
 4402TIP3    H134621   1.047   6.514  14.542 -0.2784  0.5006  1.0335
 4402TIP3    H234622   0.913   6.497  14.472  0.7525 -1.7791 -0.5129
 4403TIP3   OH234623   0.169   0.266   0.512  0.0750  0.0104  0.0093
 4403TIP3    H134624   0.123   0.350   0.504  0.2375  0.0928 -0.0740
 4403TIP3    H234625   0.261   0.290   0.515  0.1375 -0.1854 -0.3149
 4404TIP3   OH234626   1.067   0.109  16.948  0.2160  0.3815  0.6379
 4404TIP3    H134627   0.976   0.115  16.919  0.4661  0.7237 -0.1242
 4404TIP3    H234628   1.090   0.198  16.975  0.5455  0.4638  0.1046
 4405TIP3   OH234629   5.279   6.203   4.790  0.4135  0.3226 -0.0265
 4405TIP3    H134630   5.191   6.166   4.787  0.1500  0.9901 -1.4693
 4405TIP3    H234631   5.304   6.199   4.882 -1.7003  1.4520  0.6533
 4406TIP3   OH234632   2.520   5.893  12.979  0.5181  0.3927  0.0574
 4406TIP3    H134633   2.498   5.978  13.018  2.6606 -0.3291  3.2921
 4406TIP3    H234634   2.608   5.905  12.944 -0.4689  0.3289 -2.6982
 4407TIP3   OH234635   5.523   6.020   4.479 -0.0949 -0.7522 -0.2876
 4407TIP3    H134636   5.582   6.073   4.426  0.1821  0.9178  1.5646
 4407TIP3    H234637   5.443   6.012   4.426  0.0633  1.0850 -0.8568
 4408TIP3   OH234638   4.932   4.290  17.135 -0.5460 -0.2996  0.3529
 4408TIP3    H134639   4.894   4.207  17.106  2.0421 -2.0009  1.5125
 4408TIP3    H234640   4.924   4.288  17.231 -1.6118  1.4576  0.3620
 4409TIP3   OH234641   4.292   5.633   3.133 -0.3410 -0.5616  0.2298
 4409TIP3    H134642   4.341   5.562   3.092  2.0499 -0.0098  1.9438
 4409TIP3    H234643   4.263   5.596   3.217  0.5038  0.2955  0.9198
 4410TIP3   OH234644   1.660   2.313  15.232 -0.2617  0.0223  0.3002
 4410TIP3    H134645   1.688   2.330  15.322  0.3562 -0.4724  0.2088
 4410TIP3    H234646   1.718   2.244  15.201 -0.0353  0.6348 -0.7051
 4411TIP3   OH234647   0.095   5.370  15.850 -0.2472 -0.1853  0.1968
 4411TIP3    H134648   0.122   5.452  15.809 -0.9749  0.0935  0.2684
 4411TIP3    H234649   0.094   5.306  15.778 -0.7969  0.1330 -0.0825
 4412TIP3   OH234650   4.308   3.691  12.525 -0.4756 -0.5186 -0.5703
 4412TIP3    H134651   4.315   3.725  12.614 -1.5205 -1.3850 -0.1271
 4412TIP3    H234652   4.381   3.630  12.516 -1.4369 -1.8882  0.4120
 4413TIP3   OH234653   5.217   5.710  16.936 -0.3410  0.3843  0.2636
 4413TIP3    H134654   5.289   5.669  16.985 -0.6275 -0.4348  0.0231
 4413TIP3    H234655   5.210   5.798  16.973  0.9334  0.5667  0.1312
 4414TIP3   OH234656   5.188   1.559   2.882 -0.2058  0.2523 -0.2682
 4414TIP3    H134657   5.185   1.493   2.813 -0.7120  2.3051 -2.3184
 4414TIP3    H234658   5.177   1.509   2.963 -0.3845 -2.1752 -1.6945
 4415TIP3   OH234659   0.260   2.461   3.218  0.1616  0.3073  0.0608
 4415TIP3    H134660   0.290   2.540   3.175  2.7875  0.4301  1.8840
 4415TIP3    H234661   0.203   2.492   3.288  0.8752  0.5922  0.5274
 4416TIP3   OH234662   1.294   6.610   5.212 -0.1736  0.6753  0.0822
 4416TIP3    H134663   1.388   6.618   5.197  0.0606 -0.1547  1.0221
 4416TIP3    H234664   1.261   6.566   5.134  0.0699  1.7127 -0.6294
 4417TIP3   OH234665   1.510   3.260   4.360 -0.0468  0.6685 -0.1265
 4417TIP3    H134666   1.586   3.259   4.302  0.1650  0.4654  0.1530
 4417TIP3    H234667   1.455   3.188   4.328  0.6143 -0.2007  0.6376
 4418TIP3   OH234668   6.665   5.987  12.853  0.0491  0.0345  0.4443
 4418TIP3    H134669   6.709   5.923  12.909  1.0793  1.7551  1.6885
 4418TIP3    H234670   6.735   6.027  12.802 -0.5004  0.5368  0.0702
 4419TIP3   OH234671   0.444   0.222  12.806  0.2488  0.0906 -0.0216
 4419TIP3    H134672   0.382   0.226  12.733 -0.2680  2.4838  0.4569
 4419TIP3    H234673   0.389   0.209  12.883  0.6018 -0.3527  0.1584
 4420TIP3   OH234674   4.472   0.809  15.340  0.3335  0.6257 -0.2862
 4420TIP3    H134675   4.386   0.770  15.359 -0.4498  2.7507  0.8540
 4420TIP3    H234676   4.455   0.871  15.270  1.4120 -0.4221 -1.5308
 4421TIP3   OH234677   2.719   2.862   1.470 -0.2305  0.1192  0.1547
 4421TIP3    H134678   2.751   2.945   1.435  0.0154 -0.0698 -0.0764
 4421TIP3    H234679   2.652   2.834   1.408  1.3659 -1.0554 -1.1650
 4422TIP3   OH234680   1.103   0.109  11.701 -0.0610  0.0895 -0.1638
 4422TIP3    H134681   1.160   0.045  11.658 -1.4165  0.0455 -2.0442
 4422TIP3    H234682   1.071   0.064  11.779  2.2265  0.0441  0.8251
 4423TIP3   OH234683   2.054   4.949   5.364 -0.1948  0.0391 -0.0013
 4423TIP3    H134684   1.997   5.015   5.404  0.3742  0.8649 -0.5260
 4423TIP3    H234685   2.122   5.000   5.319  0.3145 -0.9091 -0.3301
 4424TIP3   OH234686   3.498   4.248  17.165 -0.8088 -0.0807 -0.7904
 4424TIP3    H134687   3.540   4.322  17.208 -2.8994  2.0600 -2.1839
 4424TIP3    H234688   3.476   4.280  17.077 -4.3128 -1.3058 -0.5288
 4425TIP3   OH234689   5.941   6.768  16.303 -0.1508 -0.0466 -0.3041
 4425TIP3    H134690   5.932   6.674  16.315 -1.8811  0.2500  1.3418
 4425TIP3    H234691   5.851   6.800  16.300  0.4024  1.5799 -0.6244
 4426TIP3   OH234692   0.959   4.424  14.010 -0.2420  0.2301 -0.1790
 4426TIP3    H134693   1.048   4.457  14.019  0.2453 -0.9468 -0.4512
 4426TIP3    H234694   0.916   4.450  14.091  0.0673  1.5895 -0.4203
 4427TIP3   OH234695   1.894   4.433  11.710 -0.0652 -0.2228  0.5251
 4427TIP3    H134696   1.866   4.499  11.774  1.0510  1.1682 -0.3716
 4427TIP3    H234697   1.979   4.403  11.743  0.9545  1.1634 -0.7159
 4428TIP3   OH234698   0.669   5.097  12.216  0.1619  0.1449  0.4713
 4428TIP3    H134699   0.590   5.064  12.174  0.9548  0.4099 -1.3128
 4428TIP3    H234700   0.652   5.191  12.229  0.7801  0.5624 -1.4665
 4429TIP3   OH234701   1.202   2.015   0.182  0.5654 -0.0305 -0.0847
 4429TIP3    H134702   1.245   1.959   0.246 -2.3865 -0.7006  1.4809
 4429TIP3    H234703   1.135   2.061   0.231  0.2751  1.8936 -2.1258
 4430TIP3   OH234704   6.032   1.743  17.188 -0.2324 -0.2691 -0.1724
 4430TIP3    H134705   6.020   1.838  17.195 -0.9448 -0.3672 -0.0040
 4430TIP3    H234706   6.126   1.730  17.203 -0.0846  0.4282 -0.4295
 4431TIP3   OH234707   0.679   2.940  10.696  0.2898 -0.1081 -0.3786
 4431TIP3    H134708   0.654   2.990  10.774  2.8542 -0.3340  0.7010
 4431TIP3    H234709   0.640   2.988  10.623 -1.8865  0.3294  0.9555
 4432TIP3   OH234710   4.983   2.611  16.753 -0.4135 -0.5760 -0.1781
 4432TIP3    H134711   4.890   2.607  16.773 -0.4084  0.7368  0.2031
 4432TIP3    H234712   5.019   2.671  16.818  0.1786  1.2397 -2.0493
 4433TIP3   OH234713   0.654   4.462   1.957 -0.4729  0.3029  0.5381
 4433TIP3    H134714   0.738   4.497   1.986  0.4751 -1.0522 -0.4125
 4433TIP3    H234715   0.614   4.533   1.907 -0.0882  1.1072  1.3454
 4434TIP3   OH234716   4.382   1.433  14.080  0.5149 -0.3215  0.5460
 4434TIP3    H134717   4.426   1.438  14.164  2.3871  0.8830 -0.4329
 4434TIP3    H234718   4.321   1.507  14.081  0.3100 -0.4934  0.9548
 4435TIP3   OH234719   5.704   3.635  16.241  0.0551 -0.0160 -0.1776
 4435TIP3    H134720   5.777   3.616  16.300  0.0148 -0.1656 -0.1747
 4435TIP3    H234721   5.744   3.684  16.169  0.3295 -0.8850 -0.6355
 4436TIP3   OH234722   6.074   1.637   5.616  0.7359 -0.7636 -0.2595
 4436TIP3    H134723   6.151   1.596   5.574  0.8860 -0.5685 -0.1754
 4436TIP3    H234724   6.007   1.636   5.547  0.9668 -0.4895 -0.4916
 4437TIP3   OH234725   1.905   5.134   5.014  0.6442 -0.1379  0.4309
 4437TIP3    H134726   1.929   5.207   4.956 -1.5304  1.1955  1.1059
 4437TIP3    H234727   1.925   5.166   5.102 -0.0039 -0.4869  0.7117
 4438TIP3   OH234728   3.360   3.247  10.229  0.1905  0.3259 -0.0089
 4438TIP3    H134729   3.378   3.301  10.152 -1.1175  1.3028  0.3482
 4438TIP3    H234730   3.364   3.307  10.303 -3.1330  0.3951  0.2255
 4439TIP3   OH234731   5.451   4.396   6.642 -0.0144  0.1001 -0.1356
 4439TIP3    H134732   5.405   4.346   6.575 -0.1541  0.1990 -0.1151
 4439TIP3    H234733   5.469   4.481   6.601 -1.7191  0.8364  0.5407
 4440TIP3   OH234734   0.105   4.956   3.743 -0.2415 -0.0754  0.4151
 4440TIP3    H134735   0.053   4.889   3.698 -0.5044  1.6439 -2.0558
 4440TIP3    H234736   0.140   5.010   3.673 -2.3327  4.0803  2.2102
 4441TIP3   OH234737   4.472   2.253  11.953  0.4100 -0.4235  0.2161
 4441TIP3    H134738   4.549   2.269  12.007 -0.2152 -0.0800  1.0414
 4441TIP3    H234739   4.421   2.334  11.960  0.5379 -0.1975 -1.2913
 4442TIP3   OH234740   2.971   4.461  16.334 -0.0403  0.7524  0.1644
 4442TIP3    H134741   3.006   4.538  16.378 -0.0286  0.6709  0.2999
 4442TIP3    H234742   2.877   4.464  16.353 -0.1628  1.1687 -0.5008
 4443TIP3   OH234743   4.093   1.733  13.031 -0.2129  0.3825 -0.8056
 4443TIP3    H134744   4.005   1.759  13.057 -0.2912 -0.4776 -0.1439
 4443TIP3    H234745   4.081   1.690  12.946 -1.0927 -3.1311  0.8772
 4444TIP3   OH234746   1.703   3.639  11.827 -0.1591 -0.5078 -0.0266
 4444TIP3    H134747   1.637   3.597  11.881  2.1605 -2.7659  1.2436
 4444TIP3    H234748   1.730   3.716  11.877  1.2318 -2.0165  1.6711
 4445TIP3   OH234749   2.803   4.639  13.065  0.3871 -0.4640 -0.1764
 4445TIP3    H134750   2.732   4.665  13.123  0.4467  0.6951 -0.6103
 4445TIP3    H234751   2.803   4.704  12.995  1.6276 -0.6689 -0.3892
 4446TIP3   OH234752   3.470   4.387   2.475 -1.0080  0.1154  0.7955
 4446TIP3    H134753   3.390   4.335   2.475 -0.2951 -1.0272  0.3713
 4446TIP3    H234754   3.471   4.429   2.561 -2.3121  0.5781  0.6107
 4447TIP3   OH234755   5.849   6.294   6.366 -0.2050  0.1959  0.7884
 4447TIP3    H134756   5.796   6.217   6.383 -0.9307 -0.3438 -3.0973
 4447TIP3    H234757   5.786   6.366   6.363 -0.5468 -0.1326 -1.8069
 4448TIP3   OH234758   3.997   6.073   1.966  0.3830 -0.0353 -0.7192
 4448TIP3    H134759   3.980   5.981   1.949  1.2742  0.0257 -2.1212
 4448TIP3    H234760   3.932   6.119   1.913 -0.2817  0.1555  0.2422
 4449TIP3   OH234761   5.106   2.034  13.431 -0.3606  0.2568  0.3341
 4449TIP3    H134762   5.185   1.985  13.456 -1.6611 -0.6360  3.0651
 4449TIP3    H234763   5.082   1.996  13.346  0.8157 -1.1544  0.5679
 4450TIP3   OH234764   3.700   4.001   2.656 -0.3570 -0.1278  0.4190
 4450TIP3    H134765   3.645   4.066   2.701 -1.3665 -2.6163  3.1063
 4450TIP3    H234766   3.641   3.956   2.597 -0.0171  0.3707 -0.3122
 4451TIP3   OH234767   6.221   2.542   0.044 -0.1768 -0.6298 -0.4235
 4451TIP3    H134768   6.249   2.628   0.013 -0.2242 -0.1646  0.7538
 4451TIP3    H234769   6.209   2.553   0.139 -1.2458 -1.6450 -0.4043
 4452TIP3   OH234770   3.405   2.614   5.420 -0.5630 -0.1366 -0.4204
 4452TIP3    H134771   3.351   2.670   5.364 -0.5269 -0.6258 -0.9476
 4452TIP3    H234772   3.349   2.594   5.495 -0.4833  0.8231 -0.0899
 4453TIP3   OH234773   4.725   4.506   5.749  0.1907  0.0071  0.3040
 4453TIP3    H134774   4.747   4.527   5.658  0.2556  1.3768  0.6103
 4453TIP3    H234775   4.754   4.582   5.799 -1.9696  0.3461  1.1805
 4454TIP3   OH234776   5.638   2.894   4.755  0.2061 -0.0829 -0.3331
 4454TIP3    H134777   5.619   2.879   4.848 -1.0557  3.0422  0.0113
 4454TIP3    H234778   5.553   2.914   4.716  0.8221 -0.6326 -2.0418
 4455TIP3   OH234779   0.676   3.400  11.234  0.2476 -0.7674  0.1030
 4455TIP3    H134780   0.732   3.338  11.187  3.3415  2.9004 -1.6167
 4455TIP3    H234781   0.714   3.403  11.323  0.0936 -1.2907  0.1893
 4456TIP3   OH234782   2.979   2.201   2.869  0.2177 -0.3434 -0.0825
 4456TIP3    H134783   3.020   2.143   2.933  0.5193 -1.1619 -0.9979
 4456TIP3    H234784   2.947   2.143   2.801  0.0271  0.5213 -0.7483
 4457TIP3   OH234785   5.167   2.629   6.543  0.3188 -0.2810 -0.0534
 4457TIP3    H134786   5.085   2.585   6.520 -0.6353  1.3826 -0.0386
 4457TIP3    H234787   5.235   2.564   6.526 -0.8247 -1.0748 -1.9972
 4458TIP3   OH234788   3.656   4.797  10.662  0.0755 -0.3920 -0.5589
 4458TIP3    H134789   3.710   4.719  10.651  0.5720  0.0883 -1.7275
 4458TIP3    H234790   3.586   4.788  10.598  1.7885  1.4547 -2.8480
 4459TIP3   OH234791   3.886   5.180  11.390 -0.1380 -0.6524 -0.5579
 4459TIP3    H134792   3.955   5.245  11.407 -0.0909 -0.7563 -0.3552
 4459TIP3    H234793   3.807   5.219  11.427 -0.5119  0.1546 -2.1147
 4460TIP3   OH234794   3.066   5.372  13.075  0.2348  0.7354  0.3416
 4460TIP3    H134795   3.019   5.323  13.008  0.1750 -1.3177  1.8058
 4460TIP3    H234796   3.027   5.460  13.072 -0.3686  0.4444 -1.6514
 4461TIP3   OH234797   2.574   3.148  13.720 -0.2058  0.7827  0.0673
 4461TIP3    H134798   2.583   3.089  13.645 -2.3883 -0.7548  0.9167
 4461TIP3    H234799   2.654   3.134  13.771 -0.7755 -1.7500  0.3990
 4462TIP3   OH234800   4.496   4.579  13.824  0.1118  0.6184  0.1050
 4462TIP3    H134801   4.423   4.627  13.862  1.2786  1.5279  1.3201
 4462TIP3    H234802   4.574   4.620  13.863  1.1878 -2.1066  1.0525
 4463TIP3   OH234803   1.628   5.845  14.144  0.3223 -0.0447  0.2162
 4463TIP3    H134804   1.573   5.821  14.069 -1.1630  2.1546  0.5067
 4463TIP3    H234805   1.688   5.771  14.154 -1.8900 -2.1359 -0.7762
 4464TIP3   OH234806   1.345   1.786  16.596  0.2887  0.1003  0.2356
 4464TIP3    H134807   1.402   1.855  16.562  0.7975  0.3410  1.5062
 4464TIP3    H234808   1.393   1.705  16.579  0.0602  0.1161 -0.5292
 4465TIP3   OH234809   3.844   4.214  12.819  0.1832  0.1355  1.0589
 4465TIP3    H134810   3.872   4.169  12.740 -0.0060 -0.9945  1.6160
 4465TIP3    H234811   3.924   4.253  12.854  0.6043 -0.8705  1.2528
 4466TIP3   OH234812   5.489   1.276   2.709  0.2656 -0.1262  0.0049
 4466TIP3    H134813   5.482   1.181   2.698  0.2482 -0.3655  1.7179
 4466TIP3    H234814   5.400   1.304   2.733  0.5874  0.0549  1.0597
 4467TIP3   OH234815   4.969   1.987  15.838  0.0347 -0.0556 -0.3379
 4467TIP3    H134816   5.056   2.027  15.837 -1.0246  2.4666  0.4407
 4467TIP3    H234817   4.977   1.913  15.899  1.4800  0.5348  0.2308
 4468TIP3   OH234818   1.378   5.462  14.075 -0.6946 -0.3504  0.2779
 4468TIP3    H134819   1.407   5.548  14.045 -3.6017  0.9398  0.8133
 4468TIP3    H234820   1.385   5.405  13.998 -0.3708  0.8152 -0.5765
 4469TIP3   OH234821   5.468   0.646   2.599 -0.0654  0.3984  0.7045
 4469TIP3    H134822   5.405   0.624   2.530 -1.4025  3.5247  0.7728
 4469TIP3    H234823   5.552   0.656   2.552 -0.9594  2.5263 -0.5995
 4470TIP3   OH234824   2.250   5.739   3.133  0.4657  0.1122  0.0299
 4470TIP3    H134825   2.310   5.790   3.079  1.3454  0.8778  1.6618
 4470TIP3    H234826   2.247   5.785   3.217 -0.8410 -1.0274  0.6585
 4471TIP3   OH234827   0.668   2.136   2.307  0.4537  0.1264 -0.0691
 4471TIP3    H134828   0.658   2.046   2.278  1.3785  0.2820 -0.9469
 4471TIP3    H234829   0.606   2.146   2.379 -1.8412 -0.3285 -1.8835
 4472TIP3   OH234830   3.033   1.647   0.040 -0.3545 -0.1907 -0.3149
 4472TIP3    H134831   3.112   1.697   0.020 -1.1533  2.1933  1.9758
 4472TIP3    H234832   3.065   1.563   0.073  1.1917  0.4683 -0.0742
 4473TIP3   OH234833   2.703   5.587  11.513 -0.1077 -0.7751 -0.1922
 4473TIP3    H134834   2.675   5.647  11.443 -1.1633 -0.3282  0.5912
 4473TIP3    H234835   2.633   5.522  11.518  0.1749 -1.0533  0.1623
 4474TIP3   OH234836   4.721   3.338   1.066  0.4780 -0.5497  0.3301
 4474TIP3    H134837   4.667   3.399   1.116 -1.3378 -0.6546 -1.3724
 4474TIP3    H234838   4.738   3.383   0.984  1.4163 -1.2887  0.0987
 4475TIP3   OH234839   3.613   0.286  12.272 -0.2334  0.0332  0.1829
 4475TIP3    H134840   3.653   0.200  12.259  0.7025  0.3311  1.0088
 4475TIP3    H234841   3.596   0.317  12.183  1.0950 -0.2405 -0.1885
 4476TIP3   OH234842   0.782   3.621  11.025  0.4891  0.1542  0.0456
 4476TIP3    H134843   0.786   3.671  10.943  0.8466  0.8934  0.5052
 4476TIP3    H234844   0.836   3.544  11.009  1.9089  1.1070  0.1287
 4477TIP3   OH234845   3.670   4.704  13.305 -0.0876  0.6917  0.0363
 4477TIP3    H134846   3.748   4.724  13.253  0.2188 -2.7884 -1.1049
 4477TIP3    H234847   3.607   4.673  13.241 -0.8495 -0.6696  1.4039
 4478TIP3   OH234848   4.172   6.163   5.932 -0.3278  0.7145  0.1511
 4478TIP3    H134849   4.176   6.092   5.996  1.4408 -0.1699 -0.8485
 4478TIP3    H234850   4.246   6.219   5.955 -0.6165  1.2314 -0.1787
 4479TIP3   OH234851   5.595   3.905   0.551 -0.2742  0.5089 -0.1960
 4479TIP3    H134852   5.511   3.903   0.596 -0.0218  0.5250  0.2740
 4479TIP3    H234853   5.601   3.994   0.516  0.4740  1.1889  1.5500
 4480TIP3   OH234854   5.609   5.159   0.941  0.8215  0.1965 -0.0764
 4480TIP3    H134855   5.657   5.079   0.964  1.0444  0.3590  0.0281
 4480TIP3    H234856   5.668   5.206   0.882  0.8131  0.4217  0.0935
 4481TIP3   OH234857   1.068   4.387   0.251 -0.0490 -0.0160  0.2495
 4481TIP3    H134858   0.973   4.381   0.242 -0.0366  0.3584 -0.1892
 4481TIP3    H234859   1.093   4.454   0.187  0.0421  2.9689  3.1214
 4482TIP3   OH234860   2.119   0.104  11.868  0.1308 -0.1522 -0.1630
 4482TIP3    H134861   2.049   0.072  11.925  2.3198 -0.8697  2.3429
 4482TIP3    H234862   2.135   0.193  11.898 -1.0667  0.7992 -2.1872
 4483TIP3   OH234863   3.452   4.758  16.923 -0.1025 -0.4589  0.0527
 4483TIP3    H134864   3.444   4.667  16.953  1.4699 -0.9896 -1.0343
 4483TIP3    H234865   3.453   4.810  17.003 -1.3212 -1.3422  0.6835
 4484TIP3   OH234866   2.108   0.079   0.080  0.0737  0.5565  0.0421
 4484TIP3    H134867   2.040   0.033   0.130 -0.3178 -1.1345 -1.8734
 4484TIP3    H234868   2.171   0.011   0.057  0.7539  1.4577 -0.8643
 4485TIP3   OH234869   2.042   4.673  10.421  0.0353  0.4380  0.0070
 4485TIP3    H134870   1.948   4.657  10.436 -0.3770  2.2569 -0.4836
 4485TIP3    H234871   2.048   4.766  10.401  1.7007 -0.0397 -2.0178
 4486TIP3   OH234872   3.787   5.412  14.016  0.0004  0.2190  0.2634
 4486TIP3    H134873   3.845   5.434  13.943  0.3584  1.1109  0.8062
 4486TIP3    H234874   3.828   5.451  14.092 -1.3126  0.8702  0.6678
 4487TIP3   OH234875   1.150   3.578  13.546  1.0564  0.0435  0.0897
 4487TIP3    H134876   1.178   3.602  13.634  2.5139  0.5157 -0.4737
 4487TIP3    H234877   1.130   3.484  13.552  0.1873  0.2698  1.1227
 4488TIP3   OH234878   0.333   5.994   2.807 -0.4012  0.7576  0.6099
 4488TIP3    H134879   0.263   6.011   2.870 -0.3449 -1.7028  1.4667
 4488TIP3    H234880   0.353   5.901   2.819  0.3291  0.4504 -2.3484
 4489TIP3   OH234881   0.746   1.054  17.196  0.6478  0.0284  0.3151
 4489TIP3    H134882   0.811   1.099  17.142 -0.5015 -0.7553 -1.8625
 4489TIP3    H234883   0.756   0.962  17.173 -0.3952 -0.2350  0.8453
 4490TIP3   OH234884   6.401   4.038   0.090 -0.0069 -0.1160 -0.1934
 4490TIP3    H134885   6.496   4.052   0.085  0.0538 -0.4555  0.0023
 4490TIP3    H234886   6.391   3.953   0.132 -0.4073  0.1388  0.2427
 4491TIP3   OH234887   0.989   4.410   2.226  0.2698 -0.8380 -0.5472
 4491TIP3    H134888   0.955   4.338   2.279 -2.1562 -0.6136 -1.6977
 4491TIP3    H234889   1.009   4.479   2.290  2.8549 -2.4911  0.5967
 4492TIP3   OH234890   0.971   6.477   5.249 -0.0849 -0.1385  0.4054
 4492TIP3    H134891   0.918   6.513   5.321  0.3692  0.0456  0.6563
 4492TIP3    H234892   1.015   6.553   5.211 -1.9434  0.0655 -1.4592
 4493TIP3   OH234893   0.098   5.902  10.555  0.1316 -0.9853 -0.0283
 4493TIP3    H134894   0.190   5.883  10.576  0.1724 -1.0067 -0.2290
 4493TIP3    H234895   0.078   5.844  10.482  0.4597  0.2177 -1.0991
 4494TIP3   OH234896   5.880   4.830   0.740  0.2898  0.6451 -0.7435
 4494TIP3    H134897   5.971   4.802   0.749 -0.5643 -1.8846  1.1464
 4494TIP3    H234898   5.884   4.926   0.741  2.9014  0.5855 -0.3828
 4495TIP3   OH234899   5.389   5.038  13.304 -0.1717 -0.3594 -0.5649
 4495TIP3    H134900   5.463   5.052  13.245 -0.4178 -1.6961 -1.2195
 4495TIP3    H234901   5.314   5.026  13.246 -0.7937  0.2571  0.0820
 4496TIP3   OH234902   0.157   3.889   1.748  0.1807  0.0330  0.0158
 4496TIP3    H134903   0.114   3.912   1.830  0.4799 -0.7995  0.4200
 4496TIP3    H234904   0.248   3.918   1.760  0.0602  0.5431 -0.2966
 4497TIP3   OH234905   1.730   5.526  14.364  0.6079 -0.1293 -0.2569
 4497TIP3    H134906   1.636   5.545  14.368  0.2612 -1.8912  1.9225
 4497TIP3    H234907   1.741   5.472  14.286  0.0078  0.9465 -1.1049
 4498TIP3   OH234908   1.634   4.291   1.126 -0.1596 -0.1004 -0.4068
 4498TIP3    H134909   1.617   4.274   1.219 -0.3251  2.4206  0.1018
 4498TIP3    H234910   1.550   4.321   1.092 -0.1402 -1.1643 -1.4632
 4499TIP3   OH234911   2.556   5.329  15.737 -0.4058  0.3356  0.7747
 4499TIP3    H134912   2.471   5.371  15.729 -0.7141 -0.2810  0.7311
 4499TIP3    H234913   2.617   5.389  15.695 -0.8503  0.6807  0.6184
 4500TIP3   OH234914   3.301   0.462  16.715 -0.5646  0.2204 -0.4759
 4500TIP3    H134915   3.384   0.426  16.683 -1.6009 -0.7274 -2.2111
 4500TIP3    H234916   3.260   0.391  16.763 -0.2430  0.8033  0.7037
 4501TIP3   OH234917   5.281   2.685  16.873 -0.6382  0.0752 -0.5722
 4501TIP3    H134918   5.200   2.673  16.923 -0.1316  1.6736  0.7028
 4501TIP3    H234919   5.273   2.622  16.801 -2.7839 -0.1574 -0.2160
 4502TIP3   OH234920   0.734   1.147  16.516 -0.5556  0.2391 -0.1279
 4502TIP3    H134921   0.803   1.210  16.535  1.0003 -0.4652 -2.9519
 4502TIP3    H234922   0.658   1.201  16.493 -0.7234  1.0111  2.0049
 4503TIP3   OH234923   3.362   0.042  17.163 -0.5974  0.1059  0.0375
 4503TIP3    H134924   3.442  -0.007  17.145 -0.8963 -0.4353  0.1551
 4503TIP3    H234925   3.392   0.124  17.202 -0.1381 -0.5281  1.0499
 4504TIP3   OH234926   2.793   1.929   5.145 -0.2507  0.1088  0.3588
 4504TIP3    H134927   2.713   1.913   5.196  0.0030 -0.1998  0.6620
 4504TIP3    H234928   2.778   2.014   5.104 -1.9270 -1.1452 -1.8697
 4505TIP3   OH234929   6.573   4.575  11.475  0.2455  0.2286 -0.5591
 4505TIP3    H134930   6.610   4.544  11.558  1.4660  0.6283 -0.9322
 4505TIP3    H234931   6.528   4.499  11.439  1.5464 -0.5849 -0.5441
 4506TIP3   OH234932   5.267   1.134   3.873  0.2614 -0.5549  0.1610
 4506TIP3    H134933   5.294   1.075   3.943 -1.3709 -1.0537  0.4114
 4506TIP3    H234934   5.342   1.193   3.861  1.6958 -2.2541  0.3344
 4507TIP3   OH234935   0.041   2.595   0.374 -0.4137 -0.0491 -0.3282
 4507TIP3    H134936   0.061   2.521   0.431  1.1470  0.7424  0.2428
 4507TIP3    H234937   0.068   2.672   0.425 -3.4505  1.0999 -0.2330
 4508TIP3   OH234938   3.628   1.144   2.592  0.2324 -0.4632 -0.5457
 4508TIP3    H134939   3.630   1.127   2.687 -0.9422  3.0348  0.2704
 4508TIP3    H234940   3.537   1.128   2.568 -0.3085  1.8071 -0.2559
 4509TIP3   OH234941   4.247   1.371  16.622  0.2308  0.0956  0.2364
 4509TIP3    H134942   4.181   1.340  16.683 -0.9403  3.3498  0.8642
 4509TIP3    H234943   4.199   1.389  16.541  1.0080 -0.4860 -0.3734
 4510TIP3   OH234944   4.357   0.163   4.645  0.2009  0.0789 -0.2478
 4510TIP3    H134945   4.293   0.230   4.621 -1.2227 -0.7628  1.0776
 4510TIP3    H234946   4.306   0.083   4.655  1.3804 -0.5280  1.3005
 4511TIP3   OH234947   5.335   5.949   3.775  0.0837  0.0761  0.3758
 4511TIP3    H134948   5.369   6.021   3.828 -0.3934 -1.0424  2.3001
 4511TIP3    H234949   5.241   5.961   3.774  0.1092  0.2525 -0.4980
 4512TIP3   OH234950   0.562   4.457   2.677 -0.0446  0.0127 -0.0147
 4512TIP3    H134951   0.475   4.442   2.714  0.8266 -2.0726  1.3489
 4512TIP3    H234952   0.545   4.482   2.586 -2.0385 -2.8360 -0.5467
 4513TIP3   OH234953   3.360   2.315  11.057  0.6219  0.0854  0.1074
 4513TIP3    H134954   3.390   2.236  11.103  1.5777  0.2863 -0.1531
 4513TIP3    H234955   3.371   2.294  10.964  0.0969  0.2330  0.0076
 4514TIP3   OH234956   3.873   5.987   1.698  0.3195 -0.2971 -0.5572
 4514TIP3    H134957   3.820   5.953   1.771 -0.3361  0.1372 -0.8192
 4514TIP3    H234958   3.866   5.919   1.631  2.0383 -1.3463  0.2424
 4515TIP3   OH234959   5.926   5.129   2.416 -0.0419 -0.5566  0.6760
 4515TIP3    H134960   5.899   5.147   2.326  1.0481  2.1249  0.7940
 4515TIP3    H234961   6.017   5.100   2.408  0.4745  0.8988  0.9349
 4516TIP3   OH234962   1.224   1.662   4.359 -0.5590  0.3381 -0.0453
 4516TIP3    H134963   1.162   1.594   4.384 -0.3710  0.4385  0.7475
 4516TIP3    H234964   1.214   1.729   4.427  0.3893  0.3634  0.0859
 4517TIP3   OH234965   6.394   1.796  13.400 -0.5450  0.2997 -0.3506
 4517TIP3    H134966   6.474   1.767  13.357  0.1302  2.7638 -0.8970
 4517TIP3    H234967   6.338   1.718  13.403  0.6123 -0.7152 -2.8355
 4518TIP3   OH234968   4.695   6.630   2.818 -0.2300  0.0045 -0.7372
 4518TIP3    H134969   4.691   6.604   2.910 -1.4190  0.2040 -0.7107
 4518TIP3    H234970   4.668   6.552   2.770  0.1511 -0.0261 -0.9054
 4519TIP3   OH234971   4.158   3.421   4.005 -0.0790  0.4101  0.4275
 4519TIP3    H134972   4.147   3.391   4.095 -4.1233 -0.4980 -0.1589
 4519TIP3    H234973   4.207   3.351   3.962 -0.7342 -0.6111  1.2888
 4520TIP3   OH234974   4.812   4.702   1.041 -0.3637 -0.5595  0.4658
 4520TIP3    H134975   4.875   4.749   0.986 -0.7016  0.4518  0.9152
 4520TIP3    H234976   4.859   4.689   1.124 -0.4939 -0.4266  0.5612
 4521TIP3   OH234977   3.810   2.945  15.698  0.4536 -0.0828 -0.2365
 4521TIP3    H134978   3.873   3.003  15.742  0.8284  0.4160 -1.3792
 4521TIP3    H234979   3.851   2.926  15.614 -0.1779 -1.1301 -0.3178
 4522TIP3   OH234980   6.068   4.446  14.081  0.2337  0.2991 -0.3929
 4522TIP3    H134981   6.144   4.503  14.066 -0.8137  1.2811 -2.3548
 4522TIP3    H234982   6.096   4.360  14.050  1.3478  0.0210  1.2506
 4523TIP3   OH234983   5.253   0.867  16.675  0.1437  0.8830  0.3374
 4523TIP3    H134984   5.233   0.931  16.606 -0.7254 -0.0016 -0.2635
 4523TIP3    H234985   5.278   0.920  16.750 -1.0817  1.9649  0.0259
 4524TIP3   OH234986   5.223   3.175  15.156  0.9742 -0.3696 -0.3691
 4524TIP3    H134987   5.250   3.136  15.073  0.3359 -3.1173  0.6332
 4524TIP3    H234988   5.130   3.155  15.164  1.0832 -0.4121  1.1254
 4525TIP3   OH234989   2.824   2.872   5.047 -0.1545  0.4153  0.5117
 4525TIP3    H134990   2.828   2.795   5.103 -0.8801  1.4412  2.0300
 4525TIP3    H234991   2.914   2.905   5.045 -0.0727  0.2188  0.8468
 4526TIP3   OH234992   2.123   5.033   3.186 -0.0967 -0.0038 -0.1151
 4526TIP3    H134993   2.129   5.029   3.281 -1.1581 -1.1633 -0.0744
 4526TIP3    H234994   2.067   5.108   3.168  1.1430  1.0152  0.0927
 4527TIP3   OH234995   4.336   0.897   4.281 -0.1385 -0.3897  0.2025
 4527TIP3    H134996   4.257   0.951   4.278  1.0721  1.4274 -1.5570
 4527TIP3    H234997   4.382   0.927   4.360  0.7265  1.5906 -0.9727
 4528TIP3   OH234998   1.343   1.047   5.057  0.3848 -0.1979 -0.6090
 4528TIP3    H134999   1.339   0.977   4.992 -0.2216 -1.6602  0.9262
 4528TIP3    H235000   1.269   1.104   5.035  0.2628 -0.5926 -1.2581
 4529TIP3   OH235001   1.426   0.370  13.268 -0.1306 -0.3414 -0.1619
 4529TIP3    H135002   1.381   0.290  13.242 -2.0015  0.3055  0.8604
 4529TIP3    H235003   1.413   0.375  13.363  1.3330  0.3731  0.0329
 4530TIP3   OH235004   5.974   6.005  13.759 -0.0304  0.7578 -0.2865
 4530TIP3    H135005   5.899   5.978  13.705 -1.1917 -0.8705  1.9837
 4530TIP3    H235006   5.937   6.060  13.827  0.7726 -0.1499  0.9388
 4531TIP3   OH235007   1.451   6.145  16.910 -0.2684  0.4147  0.1797
 4531TIP3    H135008   1.385   6.165  16.844 -0.6987 -0.6426  0.2689
 4531TIP3    H235009   1.410   6.079  16.966  1.0459 -0.6811 -0.1027
 4532TIP3   OH235010   3.451   4.916  15.708 -0.1710 -0.4244 -0.0910
 4532TIP3    H135011   3.540   4.911  15.671 -0.1169 -1.6733  0.1867
 4532TIP3    H235012   3.465   4.948  15.797  0.1739 -2.0999  0.4883
 4533TIP3   OH235013   0.396   1.902   0.647  0.2128  0.2884  0.1608
 4533TIP3    H135014   0.329   1.835   0.658  0.1433  0.1811 -0.8110
 4533TIP3    H235015   0.414   1.933   0.736 -0.3338 -0.4465  0.5382
 4534TIP3   OH235016   3.167   1.772   0.275  0.3184 -0.0106  0.5281
 4534TIP3    H135017   3.207   1.816   0.350  1.8298  0.1648 -0.3298
 4534TIP3    H235018   3.207   1.815   0.199 -1.5512  0.1704 -0.4028
 4535TIP3   OH235019   4.664   5.183  12.449  0.0228 -0.4367 -0.5539
 4535TIP3    H135020   4.584   5.138  12.478  1.1276 -2.7012 -0.7918
 4535TIP3    H235021   4.651   5.274  12.475 -2.0333 -1.0051  0.6643
 4536TIP3   OH235022   3.712   2.789   0.513 -0.0987 -0.3346  0.4481
 4536TIP3    H135023   3.757   2.835   0.443 -0.4130  1.4345  1.3589
 4536TIP3    H235024   3.782   2.766   0.575 -0.1248  0.1945  0.6743
 4537TIP3   OH235025   0.784   4.679   0.950 -0.3792  0.3224 -0.0611
 4537TIP3    H135026   0.742   4.594   0.941 -2.3465  1.3874 -1.7009
 4537TIP3    H235027   0.785   4.696   1.044  1.0417 -1.9149  0.4079
 4538TIP3   OH235028   0.625   4.156   0.351  0.0770  0.2215  0.3223
 4538TIP3    H135029   0.638   4.240   0.307  0.6993  0.1263  0.3204
 4538TIP3    H235030   0.694   4.152   0.417 -0.2281 -0.0886  0.6273
 4539TIP3   OH235031   2.610   6.230  11.907  0.2587 -0.4681  0.0744
 4539TIP3    H135032   2.527   6.198  11.870 -0.1511 -0.2336  0.7672
 4539TIP3    H235033   2.618   6.320  11.874  0.8048 -0.8580 -0.8918
 4540TIP3   OH235034   6.212   4.715  11.212 -0.1460  0.2565  0.0914
 4540TIP3    H135035   6.212   4.703  11.307  0.3064 -0.4976  0.0034
 4540TIP3    H235036   6.277   4.652  11.179  0.7911  1.5134 -0.5938
 4541TIP3   OH235037   3.238   4.045  10.967  0.9384 -0.1586  0.4884
 4541TIP3    H135038   3.257   4.045  10.873  0.8583 -0.1324  0.4724
 4541TIP3    H235039   3.263   4.133  10.996  1.1686 -0.2385  0.5332
 4542TIP3   OH235040   5.585   1.986  11.782 -0.0057  0.0729  0.1147
 4542TIP3    H135041   5.506   1.933  11.769 -0.2144  0.7428 -1.6510
 4542TIP3    H235042   5.656   1.934  11.744 -0.0009  0.4820 -0.4522
 4543TIP3   OH235043   2.733   4.829  12.379  0.0977  0.4352 -0.0778
 4543TIP3    H135044   2.696   4.764  12.438 -1.2499 -0.2843 -1.6577
 4543TIP3    H235045   2.769   4.778  12.306 -1.8213  1.4461 -1.8060
 4544TIP3   OH235046   3.880   5.443  16.220  0.1266  0.1804  0.4995
 4544TIP3    H135047   3.935   5.383  16.169 -0.0346 -0.4654  1.0799
 4544TIP3    H235048   3.893   5.416  16.311  0.3188  1.2528  0.8030
 4545TIP3   OH235049   4.538   0.215   1.155 -0.0797  0.1824 -0.2137
 4545TIP3    H135050   4.611   0.270   1.126  0.3827 -0.3112  0.0086
 4545TIP3    H235051   4.579   0.138   1.194 -0.7036  0.5345  1.1823
 4546TIP3   OH235052   1.507   2.462  14.203  0.1136 -0.0664 -0.3000
 4546TIP3    H135053   1.460   2.484  14.283 -0.4666 -0.4199 -0.5336
 4546TIP3    H235054   1.471   2.377  14.176 -1.1660  0.9370 -1.9971
 4547TIP3   OH235055   3.070   0.735  15.109  0.6802 -0.5366 -0.4481
 4547TIP3    H135056   3.007   0.678  15.065  0.8326 -0.5170 -0.6935
 4547TIP3    H235057   3.016   0.787  15.169  0.5817 -1.1369 -0.0092
 4548TIP3   OH235058   0.057   3.048  11.803 -0.2335 -0.2192  0.6221
 4548TIP3    H135059   0.139   3.021  11.846  1.2158  0.0309 -1.8065
 4548TIP3    H235060   0.074   3.137  11.774 -1.7019  0.1233  0.7522
 4549TIP3   OH235061   5.416   6.749   1.312 -0.1787 -0.8225 -0.1497
 4549TIP3    H135062   5.492   6.726   1.365 -0.1715 -1.5510 -0.4678
 4549TIP3    H235063   5.450   6.756   1.223 -0.3450 -0.3986 -0.1827
 4550TIP3   OH235064   0.800   2.119   2.681 -0.3127 -0.5349  0.2233
 4550TIP3    H135065   0.842   2.137   2.598 -0.2604  0.1742  0.3982
 4550TIP3    H235066   0.836   2.184   2.742  0.4062 -1.6685  1.0540
 4551TIP3   OH235067   4.815   0.798   0.698 -0.5400  0.7173 -0.0811
 4551TIP3    H135068   4.816   0.893   0.710 -1.7793  0.7044  0.2589
 4551TIP3    H235069   4.724   0.777   0.678 -0.4832 -0.5231  0.8569
 4552TIP3   OH235070   3.148   1.264  10.902  0.2787 -0.6229 -0.2985
 4552TIP3    H135071   3.056   1.265  10.930  0.8906 -2.2071  2.0321
 4552TIP3    H235072   3.143   1.270  10.806 -2.1087  1.5233 -0.1505
 4553TIP3   OH235073   2.249   3.472   0.420  0.0196  0.3880 -0.7333
 4553TIP3    H135074   2.268   3.427   0.502 -1.3508 -1.3316 -1.2815
 4553TIP3    H235075   2.282   3.412   0.352  0.5314  1.4617 -1.4568
 4554TIP3   OH235076   2.718   5.919   1.914 -0.0787 -0.1426 -0.1839
 4554TIP3    H135077   2.739   5.987   1.977  1.0079  1.1456 -1.8539
 4554TIP3    H235078   2.653   5.864   1.959 -0.7852  1.8057  1.3228
 4555TIP3   OH235079   0.855   5.869   4.227  0.2570  0.4874  0.1605
 4555TIP3    H135080   0.944   5.888   4.255  0.7229  1.4064 -1.7325
 4555TIP3    H235081   0.828   5.794   4.280  2.0210  0.4023  1.0036
 4556TIP3   OH235082   4.595   3.379  12.123 -0.2315 -0.5199 -0.2825
 4556TIP3    H135083   4.640   3.317  12.066 -0.1719 -1.5412  0.8303
 4556TIP3    H235084   4.633   3.364  12.209 -1.2690  0.0340  0.2850
 4557TIP3   OH235085   1.347   4.546   2.036  0.1550 -0.0190 -0.0048
 4557TIP3    H135086   1.301   4.588   2.109 -1.0984 -1.3178  0.0031
 4557TIP3    H235087   1.299   4.465   2.021 -0.6097  0.8646 -3.2773
 4558TIP3   OH235088   4.490   6.046   0.259 -0.9324 -0.3779  0.2316
 4558TIP3    H135089   4.467   5.960   0.295  0.6044 -0.9406 -0.0743
 4558TIP3    H235090   4.439   6.108   0.312 -1.3818 -1.4107  1.0479
 4559TIP3   OH235091   0.664   5.092   4.444  0.0768 -0.2829 -0.1859
 4559TIP3    H135092   0.745   5.139   4.463 -1.7389  2.9260  0.2762
 4559TIP3    H235093   0.661   5.087   4.348 -0.9398  3.2449 -0.4585
 4560TIP3   OH235094   1.139   0.363   3.408  0.1344  0.6643 -0.6353
 4560TIP3    H135095   1.110   0.453   3.425 -2.5724 -0.1544 -0.3832
 4560TIP3    H235096   1.089   0.337   3.331 -0.3355 -1.1185  0.2278
 4561TIP3   OH235097   5.865   3.107   3.841 -0.0923 -0.2809  0.2669
 4561TIP3    H135098   5.873   3.126   3.934  0.9506  0.5695  0.0255
 4561TIP3    H235099   5.895   3.017   3.832 -1.7556 -0.9477  0.9507
 4562TIP3   OH235100   4.594   4.952   0.175  0.1418 -0.0756 -0.2726
 4562TIP3    H135101   4.628   4.907   0.098 -0.0095  1.4126 -1.2318
 4562TIP3    H235102   4.586   4.882   0.241  1.7079 -1.0993 -1.1020
 4563TIP3   OH235103   1.571   1.557   0.798 -0.2412  0.5671 -0.2265
 4563TIP3    H135104   1.658   1.549   0.759 -0.3248  0.4326 -0.3843
 4563TIP3    H235105   1.548   1.468   0.825  1.1441  1.0495  3.0041
 4564TIP3   OH235106   2.446   3.641   0.515 -0.2443 -0.3730  0.4417
 4564TIP3    H135107   2.383   3.593   0.462  1.6328 -0.5252 -1.7824
 4564TIP3    H235108   2.485   3.575   0.572 -0.5916 -0.6587  0.3528
 4565TIP3   OH235109   4.186   1.607   0.933 -0.2834  0.3582 -0.6669
 4565TIP3    H135110   4.190   1.515   0.958 -0.3044  0.8643  1.4029
 4565TIP3    H235111   4.221   1.610   0.844  0.6820 -1.5157 -0.3926
 4566TIP3   OH235112   5.966   0.655  15.668  0.4174 -0.7561  0.3655
 4566TIP3    H135113   5.937   0.736  15.712  0.1531 -1.4299  1.4783
 4566TIP3    H235114   5.885   0.606  15.653  0.3320  0.0083 -2.1150
 4567TIP3   OH235115   1.945   0.970  15.187 -0.2039  0.3239  0.6207
 4567TIP3    H135116   1.887   0.904  15.225 -1.2946  0.1399 -1.2540
 4567TIP3    H235117   1.907   0.989  15.101  2.2724  0.5017 -0.5288
 4568TIP3   OH235118   0.055   1.160  11.302 -0.0343 -0.0505  0.3557
 4568TIP3    H135119  -0.034   1.178  11.331 -0.5634 -0.8634 -0.6543
 4568TIP3    H235120   0.076   1.075  11.341 -0.1529 -0.4012 -0.3258
 4569TIP3   OH235121   4.164   4.690  16.829 -0.4746 -0.3480 -0.0637
 4569TIP3    H135122   4.097   4.623  16.816 -0.9265  0.0727  0.0589
 4569TIP3    H235123   4.172   4.733  16.743 -1.9541  1.0459  0.4407
 4570TIP3   OH235124   5.283   5.578  16.436 -0.1300 -0.3747  0.0127
 4570TIP3    H135125   5.203   5.555  16.388 -0.3889 -2.8205  1.4547
 4570TIP3    H235126   5.253   5.592  16.526  1.0434 -1.2796  0.5692
 4571TIP3   OH235127   0.189   5.160  14.225  0.5194  0.0830  0.2345
 4571TIP3    H135128   0.094   5.165  14.236  0.6312  0.9968  0.9240
 4571TIP3    H235129   0.213   5.078  14.267  0.1136  0.2026  0.7172
 4572TIP3   OH235130   2.911   3.328  16.892  0.0413 -0.7141  0.2787
 4572TIP3    H135131   2.945   3.262  16.831 -0.7571 -0.5188 -0.3872
 4572TIP3    H235132   2.958   3.408  16.869 -0.2653 -0.6383 -0.0907
 4573TIP3   OH235133   6.754   5.991  15.720 -0.6070 -0.1864  0.4698
 4573TIP3    H135134   6.830   5.954  15.675 -0.8508  0.0773 -0.1824
 4573TIP3    H235135   6.681   5.934  15.695 -0.9827  0.6995 -0.5405
 4574TIP3   OH235136   4.534   1.366   5.806 -0.1264 -0.1283 -0.1492
 4574TIP3    H135137   4.509   1.298   5.744  0.1457  0.2185 -0.6455
 4574TIP3    H235138   4.522   1.448   5.758 -0.2075  0.1638  0.3574
 4575TIP3   OH235139   3.819   1.222  10.623 -0.0822 -0.1152 -0.0260
 4575TIP3    H135140   3.779   1.304  10.593  0.1855  0.3011  0.7411
 4575TIP3    H235141   3.746   1.162  10.634 -0.3082  0.1022 -0.3250
 4576TIP3   OH235142   4.140   1.048  15.528 -0.0448  0.2371  0.1339
 4576TIP3    H135143   4.165   0.968  15.482 -0.0638 -0.8059  1.8155
 4576TIP3    H235144   4.176   1.119  15.476 -0.8073 -0.7957 -1.9018
 4577TIP3   OH235145   4.257   3.618  14.727  0.5123  0.0244  0.2325
 4577TIP3    H135146   4.349   3.603  14.746  1.0169  0.3612 -1.7385
 4577TIP3    H235147   4.248   3.713  14.727  0.3586  0.0120 -0.3875
 4578TIP3   OH235148   5.855   3.788  15.667 -0.3440 -0.1425  0.8317
 4578TIP3    H135149   5.810   3.873  15.665 -2.0012 -0.9736  1.1479
 4578TIP3    H235150   5.867   3.769  15.760  0.8481  0.1306  0.7525
 4579TIP3   OH235151   3.320   5.891  15.479  0.2286  0.3198 -0.3547
 4579TIP3    H135152   3.352   5.973  15.517  2.0360 -0.3104 -0.4407
 4579TIP3    H235153   3.330   5.827  15.550 -1.8147  0.2525 -0.0538
 4580TIP3   OH235154   0.960   1.911  11.873  0.0694  0.1593  0.1851
 4580TIP3    H135155   0.991   1.994  11.836 -1.2847  1.4072  1.6987
 4580TIP3    H235156   0.919   1.935  11.956  0.8161 -2.2186  1.3566
 4581TIP3   OH235157   5.551   4.801   2.262  0.6539  0.6031 -0.3358
 4581TIP3    H135158   5.530   4.758   2.179  0.8283 -1.4592  0.6113
 4581TIP3    H235159   5.646   4.814   2.259  0.8020 -0.3130 -0.1329
 4582TIP3   OH235160   3.616   4.388   5.914  0.1017 -0.8425  0.0765
 4582TIP3    H135161   3.573   4.403   5.830  0.9352 -0.9218 -0.3803
 4582TIP3    H235162   3.655   4.301   5.906  0.3891 -0.7522  0.4512
 4583TIP3   OH235163   4.259   3.013   5.743  0.4102  0.6697 -0.1454
 4583TIP3    H135164   4.189   2.947   5.746  0.9491  0.1028  0.3054
 4583TIP3    H235165   4.236   3.069   5.669 -0.9674  0.9955  0.4875
 4584TIP3   OH235166   0.820   5.714  13.480  0.2776 -0.1218 -0.3083
 4584TIP3    H135167   0.837   5.740  13.570 -1.4068 -1.6788  0.5323
 4584TIP3    H235168   0.795   5.795  13.436 -0.5278  0.4169  1.0635
 4585TIP3   OH235169   4.486   3.915   4.064  0.2433  0.1119 -0.1523
 4585TIP3    H135170   4.450   3.877   3.984 -1.2238 -0.0390  0.5402
 4585TIP3    H235171   4.499   4.008   4.042  0.1857  0.0026 -0.6703
 4586TIP3   OH235172   2.033   2.351   2.657  0.7869 -0.5743 -0.6737
 4586TIP3    H135173   2.021   2.328   2.749  0.4149 -0.9208 -0.8036
 4586TIP3    H235174   1.944   2.351   2.620  0.4905  2.7042 -0.3294
 4587TIP3   OH235175   4.716   5.136  17.083  0.1321  0.4904  0.0420
 4587TIP3    H135176   4.691   5.058  17.132  0.3345  0.9486  0.8930
 4587TIP3    H235177   4.647   5.147  17.018  0.8158 -1.2108 -1.0480
 4588TIP3   OH235178   6.684   2.772   0.624 -0.0509 -0.0692 -0.8230
 4588TIP3    H135179   6.636   2.829   0.563  1.1468  0.3623 -1.3780
 4588TIP3    H235180   6.615   2.729   0.675 -0.9943  1.4937 -0.7264
 4589TIP3   OH235181   2.749   1.619   3.550 -0.0285 -0.5181 -0.6508
 4589TIP3    H135182   2.812   1.549   3.565  2.1404  1.1429 -1.4166
 4589TIP3    H235183   2.738   1.621   3.455  0.2582  0.4001 -0.6782
 4590TIP3   OH235184   3.750   2.205  16.997 -0.0534 -0.2119 -0.1100
 4590TIP3    H135185   3.701   2.123  16.985 -2.4783  1.1214  0.0493
 4590TIP3    H235186   3.768   2.235  16.908  0.5170 -0.7133 -0.1715
 4591TIP3   OH235187   3.345   2.542   1.026  0.4578 -0.1909 -0.1372
 4591TIP3    H135188   3.300   2.496   1.097 -1.3492 -1.5587 -2.0419
 4591TIP3    H235189   3.353   2.477   0.956  1.9291  1.1607 -1.3205
 4592TIP3   OH235190   1.265   6.305   5.044 -0.0023  0.4246  0.4185
 4592TIP3    H135191   1.223   6.371   4.990 -1.5691 -1.2326 -0.4890
 4592TIP3    H235192   1.195   6.245   5.069  1.4034 -1.1206  0.8984
 4593TIP3   OH235193   3.455   3.801   3.470 -0.4321  0.1670 -0.2172
 4593TIP3    H135194   3.446   3.806   3.375 -1.4660 -0.3715 -0.1508
 4593TIP3    H235195   3.445   3.709   3.491 -0.8203  0.3583  0.4749
 4594TIP3   OH235196   0.472   6.552  11.871 -0.2509 -0.1544 -0.0634
 4594TIP3    H135197   0.488   6.462  11.843 -1.3676  0.2653 -2.2233
 4594TIP3    H235198   0.552   6.599  11.850  0.0181 -0.4665  0.2654
 4595TIP3   OH235199   5.060   3.939   6.486 -0.5912 -0.4464  0.8305
 4595TIP3    H135200   5.146   3.970   6.514 -1.4663  2.5598  0.5764
 4595TIP3    H235201   5.000   4.007   6.516 -2.4215 -0.5641 -2.1922
 4596TIP3   OH235202   3.326   6.091   4.720 -0.0926 -0.0749 -0.0189
 4596TIP3    H135203   3.304   6.005   4.758  0.5307 -0.8769 -1.3943
 4596TIP3    H235204   3.359   6.070   4.633  2.0389  1.4021  0.3635
 4597TIP3   OH235205   3.697   0.961  15.314  0.4344 -0.1483 -0.0014
 4597TIP3    H135206   3.779   0.917  15.332  0.1799 -1.1418 -1.1261
 4597TIP3    H235207   3.718   1.054  15.319  0.8935 -0.3344  2.7535
 4598TIP3   OH235208   0.255   1.038   4.388  0.3358 -0.6110  0.3723
 4598TIP3    H135209   0.222   1.061   4.475  1.0664  1.4059  0.1843
 4598TIP3    H235210   0.339   0.996   4.405  0.4937 -0.1890  0.6676
 4599TIP3   OH235211   6.392   5.436   1.872  0.1870 -0.5272 -0.0257
 4599TIP3    H135212   6.350   5.407   1.791 -0.3308 -0.1975  0.1222
 4599TIP3    H235213   6.344   5.515   1.898  0.9650 -0.0832  0.0906
 4600TIP3   OH235214   4.575   1.075   4.111 -0.2475 -0.0830 -0.1973
 4600TIP3    H135215   4.576   0.980   4.102  1.7625  0.0209 -1.7329
 4600TIP3    H235216   4.648   1.105   4.058 -0.4075  2.2972  0.8022
 4601TIP3   OH235217   2.125   4.133  13.982 -0.3054 -0.8844 -0.2739
 4601TIP3    H135218   2.056   4.136  13.916 -0.0070  1.2287 -0.5639
 4601TIP3    H235219   2.200   4.175  13.940  0.1448 -0.2186  1.1270
 4602TIP3   OH235220   6.635   4.059   0.887  0.0163 -0.0323 -0.1676
 4602TIP3    H135221   6.610   3.981   0.936 -2.2697 -0.0991 -1.3098
 4602TIP3    H235222   6.582   4.055   0.807  0.7369  2.0803 -0.8194
 4603TIP3   OH235223   0.666   6.702  14.684 -0.6128 -0.2839  0.6047
 4603TIP3    H135224   0.718   6.622  14.682 -1.2010 -0.6688 -1.2092
 4603TIP3    H235225   0.730   6.773  14.687 -0.0543 -0.7968  0.8707
 4604TIP3   OH235226   2.321   5.473  15.702  0.0362 -0.4247  1.0536
 4604TIP3    H135227   2.315   5.550  15.758 -1.4752  1.6162 -1.6804
 4604TIP3    H235228   2.247   5.481  15.641  1.5962 -2.3940 -1.3128
 4605TIP3   OH235229   3.408   4.278   1.462  0.0115 -0.0160  0.1890
 4605TIP3    H135230   3.444   4.240   1.382 -0.6580  0.4750 -0.3581
 4605TIP3    H235231   3.450   4.364   1.469 -0.6342  0.3364 -0.1613
 4606TIP3   OH235232   1.018   2.056   5.192 -0.7334 -0.2936  0.4972
 4606TIP3    H135233   1.109   2.029   5.202  0.6481  2.8670 -1.5440
 4606TIP3    H235234   0.987   2.009   5.115 -0.3319 -0.3535  0.3721
 4607TIP3   OH235235   1.993   1.682  17.053 -0.2316  0.2819  0.5985
 4607TIP3    H135236   1.983   1.757  17.112 -1.1075 -1.5016  2.8879
 4607TIP3    H235237   1.916   1.628  17.069  0.1658 -0.9460 -1.2784
 4608TIP3   OH235238   3.824   1.214   0.354 -0.2402  0.4508  0.3803
 4608TIP3    H135239   3.846   1.245   0.442 -1.4120  1.3278  0.3941
 4608TIP3    H235240   3.729   1.200   0.357  0.0381 -2.0256 -0.0118
 4609TIP3   OH235241   3.500   5.140  13.652 -0.2184 -0.0524 -0.0916
 4609TIP3    H135242   3.422   5.093  13.680 -1.5804  1.7639 -0.6021
 4609TIP3    H235243   3.554   5.148  13.732 -0.6766 -1.0734  0.3312
 4610TIP3   OH235244   6.045   5.498   4.136 -0.0600 -1.1612 -0.3992
 4610TIP3    H135245   6.118   5.476   4.193  0.0332  1.3324  0.5747
 4610TIP3    H235246   6.084   5.504   4.049  1.1325  0.8533  0.2124
 4611TIP3   OH235247   5.946   0.442   4.936  0.0992 -0.0850  0.1189
 4611TIP3    H135248   5.864   0.393   4.945 -0.3307  0.1680 -2.0205
 4611TIP3    H235249   5.993   0.425   5.018 -0.5620 -3.0794 -0.0137
 4612TIP3   OH235250   1.693   4.981   5.986  0.0773 -0.2499 -0.1223
 4612TIP3    H135251   1.696   4.973   6.082 -0.5816 -0.3324 -0.1048
 4612TIP3    H235252   1.751   4.911   5.954  1.8807  0.9938  0.2470
 4613TIP3   OH235253   6.512   2.587   0.414  0.4786  0.0382  0.2339
 4613TIP3    H135254   6.593   2.557   0.455  0.3210 -0.3015  0.3006
 4613TIP3    H235255   6.510   2.544   0.329  0.4829  0.2333  0.1328
 4614TIP3   OH235256   5.475   2.272  13.051 -0.3539  0.1229  0.0285
 4614TIP3    H135257   5.384   2.250  13.031 -1.1377  1.9037  1.3578
 4614TIP3    H235258   5.526   2.233  12.979 -2.2374 -0.1816 -1.2091
 4615TIP3   OH235259   3.497   0.147   5.850  0.4663 -0.4840  0.1294
 4615TIP3    H135260   3.421   0.126   5.796  1.1435 -0.0327 -1.0310
 4615TIP3    H235261   3.514   0.066   5.900 -0.2987 -0.8334 -0.1659
 4616TIP3   OH235262   5.582   3.487  11.998  0.4477  0.1420  0.0655
 4616TIP3    H135263   5.667   3.463  11.960  0.9030 -0.2580  1.3068
 4616TIP3    H235264   5.595   3.574  12.033  0.3591  0.0509  0.3232
 4617TIP3   OH235265   6.539   6.705  16.618 -0.2248 -0.2758 -0.1824
 4617TIP3    H135266   6.519   6.795  16.641 -0.3941 -0.1570 -0.7788
 4617TIP3    H235267   6.635   6.701  16.618 -0.2199 -0.1621  0.0839
 4618TIP3   OH235268   1.158   4.342   2.043 -0.4863 -0.2965 -0.2588
 4618TIP3    H135269   1.180   4.259   2.085  0.6392  0.4720  0.7396
 4618TIP3    H235270   1.084   4.376   2.093  0.2203  0.1474  0.5088
 4619TIP3   OH235271   5.021   3.504  12.313 -0.5461  0.8669 -0.0425
 4619TIP3    H135272   4.973   3.554  12.247 -1.4440  1.2526  0.8678
 4619TIP3    H235273   5.068   3.437  12.263 -1.1847  1.1595 -1.0708
 4620TIP3   OH235274   1.398   1.865   2.760 -0.0568 -0.0025 -0.0278
 4620TIP3    H135275   1.490   1.876   2.736  0.2278 -0.7625  0.6330
 4620TIP3    H235276   1.349   1.892   2.683  0.6894  1.1812 -0.1123
 4621TIP3   OH235277   1.524   5.818  14.392  0.1942 -0.2789  0.6509
 4621TIP3    H135278   1.557   5.845  14.306  0.9903 -2.0076  0.3727
 4621TIP3    H235279   1.432   5.798  14.377 -0.1857  1.3212  0.6726
 4622TIP3   OH235280   5.171   4.663   0.840  0.3618  0.3724  0.0664
 4622TIP3    H135281   5.128   4.580   0.860  2.8803 -1.3910 -1.3278
 4622TIP3    H235282   5.236   4.673   0.910  0.2166  1.0817  0.1060
 4623TIP3   OH235283   0.124   0.749  13.287 -0.2421  0.3906 -0.3212
 4623TIP3    H135284   0.045   0.740  13.235 -0.1920  1.5840 -0.6153
 4623TIP3    H235285   0.182   0.679  13.255 -2.1060 -2.3154  1.7413
 4624TIP3   OH235286   3.969   2.238  15.097 -0.6725 -0.5027 -0.0080
 4624TIP3    H135287   4.056   2.227  15.136 -0.6608 -1.5068 -0.2847
 4624TIP3    H235288   3.985   2.284  15.015 -0.4841 -0.0771  0.2633
 4625TIP3   OH235289   4.656   6.104   1.388 -0.2166 -0.4231 -0.6948
 4625TIP3    H135290   4.582   6.053   1.422  0.5450 -0.5329  0.8847
 4625TIP3    H235291   4.731   6.045   1.398  0.1864 -0.0847 -1.6926
 4626TIP3   OH235292   4.486   4.096   3.714 -0.1584 -0.2256 -0.3172
 4626TIP3    H135293   4.418   4.031   3.735  0.7321 -1.3035 -0.6483
 4626TIP3    H235294   4.502   4.083   3.620  0.7460 -0.2430 -0.1723
 4627TIP3   OH235295   6.461   2.051  15.074  0.1958 -0.3832 -0.4246
 4627TIP3    H135296   6.543   2.101  15.075 -0.7677  1.3800 -1.7340
 4627TIP3    H235297   6.404   2.098  15.135 -0.4611 -0.3663 -1.0387
 4628TIP3   OH235298   4.496   3.323   6.030 -0.1339  0.6014  0.3188
 4628TIP3    H135299   4.465   3.376   5.957 -0.8333 -1.2619 -0.8309
 4628TIP3    H235300   4.587   3.351   6.044 -0.1098  1.2549 -1.0193
 4629TIP3   OH235301   5.594   4.163   2.444 -0.3575 -0.1973  0.2360
 4629TIP3    H135302   5.512   4.117   2.430  0.2061 -2.0491  2.4138
 4629TIP3    H235303   5.583   4.205   2.530 -0.9065  4.0900 -1.6679
 4630TIP3   OH235304   1.737   4.951  15.491 -0.4648 -0.0484 -0.4509
 4630TIP3    H135305   1.809   4.968  15.551 -0.5898 -0.9733 -0.0181
 4630TIP3    H235306   1.711   4.860  15.509 -1.1985  0.0009 -1.1659
 4631TIP3   OH235307   4.124   1.658  16.162  0.2822 -0.3889 -0.0838
 4631TIP3    H135308   4.095   1.747  16.178  0.2005 -0.3597 -0.3858
 4631TIP3    H235309   4.176   1.663  16.082  3.3157  0.0200  1.7625
 4632TIP3   OH235310   5.953   4.150  15.242  0.1629  0.2697  0.7248
 4632TIP3    H135311   5.873   4.200  15.259 -0.1393  0.0300  0.0445
 4632TIP3    H235312   5.936   4.064  15.282  0.0328  0.1803  0.4783
 4633TIP3   OH235313   4.394   2.378  16.204 -1.1379 -0.1202  0.5221
 4633TIP3    H135314   4.358   2.405  16.289 -0.0564  3.3104  0.0435
 4633TIP3    H235315   4.368   2.448  16.144  1.3979 -0.4210 -1.0758
 4634TIP3   OH235316   6.131   1.846  14.949  0.7020 -0.3767  0.3183
 4634TIP3    H135317   6.114   1.754  14.970 -0.3928 -0.0648  0.8949
 4634TIP3    H235318   6.075   1.895  15.009  0.3890  0.6541 -0.7764
 4635TIP3   OH235319   2.690   2.015  11.664  0.1188 -0.4881 -0.1839
 4635TIP3    H135320   2.636   2.060  11.730  1.1812  0.2836  0.2018
 4635TIP3    H235321   2.711   1.931  11.704  1.6126  0.3765  0.9695
 4636TIP3   OH235322   1.987   4.674   5.095  0.5583 -0.3010  0.2986
 4636TIP3    H135323   1.967   4.753   5.044  1.2847 -0.1962  0.1590
 4636TIP3    H235324   2.081   4.680   5.111  0.0902  0.7637  3.4780
 4637TIP3   OH235325   2.773   3.672   3.489  0.6086 -0.6781  0.1545
 4637TIP3    H135326   2.809   3.687   3.576  0.0856 -0.2078  0.2962
 4637TIP3    H235327   2.695   3.618   3.504 -0.3374  0.6573  0.1335
 4638TIP3   OH235328   1.302   0.473   0.816 -0.3218  0.8986  0.3770
 4638TIP3    H135329   1.384   0.435   0.850 -0.1644  0.9499  0.0587
 4638TIP3    H235330   1.313   0.567   0.826  0.3901  1.0258 -1.2558
 4639TIP3   OH235331   2.505   2.256   0.796  0.1547  0.2027 -0.3900
 4639TIP3    H135332   2.517   2.177   0.745  1.3428  1.4761 -2.2006
 4639TIP3    H235333   2.491   2.325   0.731  0.4436  1.6896  1.0562
 4640TIP3   OH235334   4.453   4.976   4.466  0.1837 -0.1223  0.2205
 4640TIP3    H135335   4.408   4.952   4.385  0.1671  0.1485  0.1494
 4640TIP3    H235336   4.542   4.998   4.439 -0.1160  1.0197  0.1260
 4641TIP3   OH235337   3.545   1.445  11.919 -0.1887  0.4593  0.4687
 4641TIP3    H135338   3.610   1.512  11.897  0.3795 -0.8118 -2.0121
 4641TIP3    H235339   3.488   1.440  11.842 -1.4508 -0.5053  1.4234
 4642TIP3   OH235340   5.548   0.744   1.570  0.1282  0.2807 -0.0724
 4642TIP3    H135341   5.501   0.812   1.618 -1.0932  0.1929 -1.1062
 4642TIP3    H235342   5.633   0.783   1.550 -0.6718  1.6542 -0.9478
 4643TIP3   OH235343   1.587   5.000  16.527 -0.3707 -0.3324  0.3106
 4643TIP3    H135344   1.635   5.075  16.560  1.2395 -0.2601 -1.9470
 4643TIP3    H235345   1.539   4.966  16.603  3.9991 -1.0491  3.1106
 4644TIP3   OH235346   5.479   4.322   3.901 -0.5720  0.6094 -0.0352
 4644TIP3    H135347   5.467   4.325   3.806  1.7986 -0.5765 -0.4557
 4644TIP3    H235348   5.568   4.289   3.912  0.0302  2.8105  2.5836
 4645TIP3   OH235349   0.279   4.219  17.187  0.3741  0.4129 -0.2065
 4645TIP3    H135350   0.271   4.152  17.254 -0.6473 -0.4261 -1.1298
 4645TIP3    H235351   0.190   4.252  17.175  0.4790  0.3197 -1.3607
 4646TIP3   OH235352   5.598   1.492  16.835  0.6735  0.3511  0.3788
 4646TIP3    H135353   5.549   1.437  16.775  0.5910 -0.5896  1.2964
 4646TIP3    H235354   5.617   1.571  16.784 -1.6699  0.7087 -0.0470
 4647TIP3   OH235355   1.513   3.137   2.089  0.4690  0.2494  0.0413
 4647TIP3    H135356   1.600   3.132   2.050  0.1763  0.1547 -0.6098
 4647TIP3    H235357   1.491   3.231   2.087  0.6585  0.3011  0.4307
 4648TIP3   OH235358   5.967   3.141   2.429  0.7401  0.2511 -0.2310
 4648TIP3    H135359   5.910   3.188   2.369  1.7945 -0.6580 -2.0336
 4648TIP3    H235360   5.950   3.181   2.515 -2.1542  0.3740 -0.7642
 4649TIP3   OH235361   3.650   5.673  16.746 -0.1818  0.0691 -0.3636
 4649TIP3    H135362   3.696   5.732  16.686 -0.3199  0.4832 -0.0681
 4649TIP3    H235363   3.632   5.727  16.824  1.1919 -0.8315  0.6160
 4650TIP3   OH235364   1.264   0.322  15.473  0.2144 -0.4774  0.6632
 4650TIP3    H135365   1.352   0.288  15.455  0.3111 -1.2471  2.3610
 4650TIP3    H235366   1.278   0.389  15.540 -0.2863  1.0270 -0.6775
 4651TIP3   OH235367   5.650   5.881   1.997  0.2113  0.1778  0.0820
 4651TIP3    H135368   5.609   5.966   1.986  0.8376  0.5017  0.2170
 4651TIP3    H235369   5.716   5.894   2.065  0.2038 -0.4509  0.2196
 4652TIP3   OH235370   1.243   2.235  14.587  0.2720  0.5959  0.4668
 4652TIP3    H135371   1.239   2.140  14.603  4.0298  0.4834  1.8266
 4652TIP3    H235372   1.219   2.274  14.671  0.1061  0.7896  0.3283
 4653TIP3   OH235373   4.488   4.035  13.720  0.2615  0.6247 -0.1986
 4653TIP3    H135374   4.542   3.987  13.782 -0.7534  0.1676  0.3543
 4653TIP3    H235375   4.527   4.017  13.635 -0.3354 -1.5694 -0.0605
 4654TIP3   OH235376   3.825   2.307  12.230  0.3875  0.0853  0.0852
 4654TIP3    H135377   3.775   2.385  12.254  1.6323  0.0017  3.3889
 4654TIP3    H235378   3.766   2.234  12.249 -0.5889  0.0659 -2.5320
 4655TIP3   OH235379   4.600   3.057  15.187  0.9542  0.4323 -0.2323
 4655TIP3    H135380   4.679   3.107  15.206 -0.3886  2.4379  0.3504
 4655TIP3    H235381   4.569   3.093  15.104  0.1695  0.3191  0.0039
 4656TIP3   OH235382   5.390   2.422  15.183 -0.1953  0.4333 -0.0013
 4656TIP3    H135383   5.421   2.386  15.099 -0.7387 -0.2793  0.0944
 4656TIP3    H235384   5.295   2.410  15.180 -0.1701 -0.0151  0.9115
 4657TIP3   OH235385   0.291   6.294   2.752  0.5710  0.1245  0.2204
 4657TIP3    H135386   0.223   6.230   2.771  0.6416  0.4357  1.6917
 4657TIP3    H235387   0.372   6.252   2.780  0.5385  1.0601  1.8873
 4658TIP3   OH235388   3.090   2.122   1.741  0.5802 -0.0226 -0.0488
 4658TIP3    H135389   3.117   2.034   1.768  1.2756  0.1621 -0.1095
 4658TIP3    H235390   3.093   2.120   1.646 -1.6960 -0.6183 -0.1656
 4659TIP3   OH235391   0.306   5.355  12.873 -0.6888 -0.6305  0.0671
 4659TIP3    H135392   0.227   5.405  12.893  0.5856  1.2370  0.5693
 4659TIP3    H235393   0.376   5.398  12.921  1.1581 -0.5017 -2.5278
 4660TIP3   OH235394   1.304   3.826   1.216  0.2895 -0.9200 -0.0431
 4660TIP3    H135395   1.304   3.775   1.297 -1.1145 -0.6018  0.1879
 4660TIP3    H235396   1.280   3.763   1.148 -1.5358 -0.6018  0.2549
 4661TIP3   OH235397   4.266   4.568   0.811 -0.1413 -0.2076  0.5069
 4661TIP3    H135398   4.320   4.523   0.876  1.0357  0.8706  0.3307
 4661TIP3    H235399   4.287   4.661   0.824  0.6957 -0.0113 -1.8907
 4662TIP3   OH235400   5.959   0.522  15.049  0.3361  0.3333  0.3418
 4662TIP3    H135401   5.968   0.451  14.985  2.5975  0.5522  0.3409
 4662TIP3    H235402   5.898   0.487  15.115  0.4914 -1.1485 -0.2674
 4663TIP3   OH235403   5.937   3.264  14.873 -0.5074 -0.3257 -0.8776
 4663TIP3    H135404   5.985   3.216  14.941 -0.4374 -1.9896 -2.0306
 4663TIP3    H235405   6.006   3.310  14.824 -0.3863 -0.3968 -0.7753
 4664TIP3   OH235406   2.081   3.685  15.443 -0.8840 -0.3165 -0.1591
 4664TIP3    H135407   2.094   3.614  15.380 -2.0990 -1.1298  0.4727
 4664TIP3    H235408   2.058   3.641  15.524 -3.6205  0.8198 -0.2219
 4665TIP3   OH235409   5.334   5.283  16.518  0.3136 -0.0342 -0.2825
 4665TIP3    H135410   5.407   5.225  16.497  0.6835  1.1084 -2.4010
 4665TIP3    H235411   5.369   5.371  16.506 -0.5655  0.6528  1.7314
 4666TIP3   OH235412   4.851   3.119  14.542  0.4022  0.0938 -0.2784
 4666TIP3    H135413   4.936   3.133  14.582  0.5641 -0.3260 -0.4652
 4666TIP3    H235414   4.869   3.065  14.465 -0.0724 -0.3309 -0.1046
 4667TIP3   OH235415   4.794   3.167   1.288  0.4052 -0.0552  0.0733
 4667TIP3    H135416   4.759   3.088   1.247  2.3619 -1.1063  0.3158
 4667TIP3    H235417   4.809   3.227   1.215  0.0521 -0.3599 -0.2571
 4668TIP3   OH235418   2.801   4.492   2.852 -0.8274  0.4943 -0.7971
 4668TIP3    H135419   2.731   4.514   2.792 -0.6542  0.8461 -0.8719
 4668TIP3    H235420   2.876   4.544   2.822  0.5608 -2.4231 -2.9415
 4669TIP3   OH235421   5.176   3.926   5.544 -0.8844 -0.2463  0.3592
 4669TIP3    H135422   5.247   3.862   5.553 -0.9845 -0.2813  0.8874
 4669TIP3    H235423   5.220   4.008   5.520 -0.5809 -0.0689  1.4684
 4670TIP3   OH235424   0.375   0.823  11.241 -0.0086  0.2170 -0.0876
 4670TIP3    H135425   0.426   0.830  11.160 -0.7118 -0.6503 -0.6208
 4670TIP3    H235426   0.403   0.740  11.280  0.0005  0.4173  0.3399
 4671TIP3   OH235427   0.594   1.243  12.021  0.1641 -0.5357  0.1612
 4671TIP3    H135428   0.686   1.222  12.033 -0.1963 -1.6810  1.2276
 4671TIP3    H235429   0.569   1.197  11.941  0.6458  0.2568 -0.4511
 4672TIP3   OH235430   1.096   5.575   1.669  0.4462 -0.4785  0.2777
 4672TIP3    H135431   1.188   5.567   1.695  0.3585  0.6328  1.0039
 4672TIP3    H235432   1.049   5.518   1.730  0.4696  0.4369  1.1799
 4673TIP3   OH235433   4.345   4.789  17.038 -0.7091 -0.3349  0.9900
 4673TIP3    H135434   4.311   4.764  16.952  0.3232  2.2078 -0.2660
 4673TIP3    H235435   4.409   4.721  17.060 -1.8807 -1.6823  0.3760
 4674TIP3   OH235436   5.549   0.542   3.119  0.3755  0.0206  0.1378
 4674TIP3    H135437   5.582   0.625   3.153  0.4272  0.4062 -0.8202
 4674TIP3    H235438   5.627   0.499   3.082  0.0661  0.3114 -0.8793
 4675TIP3   OH235439   3.875   3.536  14.315 -0.7474  0.0049  0.1209
 4675TIP3    H135440   3.954   3.482  14.310 -0.4024  0.6099 -1.8147
 4675TIP3    H235441   3.851   3.535  14.408  1.4710 -0.2522  0.7533
 4676TIP3   OH235442   1.198   1.603   0.361 -0.1062  0.7467 -0.0876
 4676TIP3    H135443   1.289   1.599   0.390  0.1187 -0.6177 -0.8977
 4676TIP3    H235444   1.167   1.689   0.391  1.1617  0.8601  0.9891
 4677TIP3   OH235445   2.126   3.964  12.369 -0.0638 -0.6785  0.0018
 4677TIP3    H135446   2.056   3.923  12.319 -1.1417  0.5503  0.4413
 4677TIP3    H235447   2.200   3.965  12.309 -0.8738 -0.6007 -1.0382
 4678TIP3   OH235448   2.088   2.228  13.513 -0.3926  0.0283 -0.4642
 4678TIP3    H135449   2.058   2.146  13.475  0.2773 -0.1732 -0.5679
 4678TIP3    H235450   2.166   2.251  13.463  0.9459 -0.6283  1.2112
 4679TIP3   OH235451   2.782   3.126  12.179 -0.0765 -0.2483  0.4287
 4679TIP3    H135452   2.749   3.062  12.241 -2.7726 -0.7175 -1.3336
 4679TIP3    H235453   2.822   3.074  12.109 -0.2874  0.0903  0.0504
 4680TIP3   OH235454   4.993   2.882  14.010  0.2648  0.3397  0.2367
 4680TIP3    H135455   5.049   2.816  13.969  0.2654  0.1304  0.5755
 4680TIP3    H235456   4.970   2.942  13.938 -0.5963 -0.6112 -0.3033
 4681TIP3   OH235457   6.240   5.120  13.588 -0.0807 -0.1496  0.4617
 4681TIP3    H135458   6.310   5.124  13.523  0.5594  1.0469  1.1885
 4681TIP3    H235459   6.274   5.167  13.663 -2.0329  1.3861  0.4832
 4682TIP3   OH235460   0.964   5.692  12.720 -0.1467  0.3014 -0.0002
 4682TIP3    H135461   0.888   5.643  12.690 -0.9995  0.7489  1.3652
 4682TIP3    H235462   0.948   5.782  12.692  0.4716  0.1771 -0.7737
 4683TIP3   OH235463   0.057   1.142  14.284  0.6218  0.4130 -0.2827
 4683TIP3    H135464   0.066   1.139  14.189  1.3709  0.4055 -0.2247
 4683TIP3    H235465   0.148   1.146  14.316  0.3529  2.0813  0.3762
 4684TIP3   OH235466   5.707   5.870  12.559  0.1648 -0.0700  0.2938
 4684TIP3    H135467   5.774   5.848  12.624  0.9647  0.8392 -0.1902
 4684TIP3    H235468   5.662   5.788  12.541  0.8380 -0.6006  0.9983
 4685TIP3   OH235469   1.749   5.178  11.630 -0.2105 -0.2837  0.1771
 4685TIP3    H135470   1.668   5.131  11.650  0.2360 -0.5164  1.5118
 4685TIP3    H235471   1.817   5.126  11.672  0.4391  0.8686  0.5700
 4686TIP3   OH235472   0.459   1.703   4.079  0.1998  0.3079  0.3124
 4686TIP3    H135473   0.461   1.611   4.050 -0.7894  0.1900  0.5770
 4686TIP3    H235474   0.367   1.729   4.069  0.3738  1.1096  0.7365
 4687TIP3   OH235475   3.249   5.389  13.699  0.1229 -0.0008 -0.4507
 4687TIP3    H135476   3.230   5.461  13.639 -0.0074 -0.3069 -0.7895
 4687TIP3    H235477   3.339   5.403  13.727  0.7483 -0.7224 -1.9801
 4688TIP3   OH235478   6.007   2.750  16.572  0.2051  0.2950  0.4669
 4688TIP3    H135479   5.988   2.720  16.483  1.3061  1.7851 -0.3133
 4688TIP3    H235480   5.925   2.737  16.620 -0.2725 -0.9339 -0.6438
 4689TIP3   OH235481   4.125   1.469   3.139  0.2225  0.1764 -0.1377
 4689TIP3    H135482   4.133   1.489   3.233 -0.7632 -0.6500  0.1391
 4689TIP3    H235483   4.216   1.463   3.108  0.6151 -1.3024  1.1546
 4690TIP3   OH235484   4.037   4.596   5.030 -0.6812  0.4209 -0.2440
 4690TIP3    H135485   4.080   4.560   4.953 -1.7865 -0.7056 -0.3828
 4690TIP3    H235486   4.099   4.579   5.102  0.0106  0.7667 -0.7481
 4691TIP3   OH235487   3.289   2.324   4.436 -0.1697  0.2114  0.7264
 4691TIP3    H135488   3.277   2.242   4.389  1.7645 -0.0584  0.6073
 4691TIP3    H235489   3.217   2.380   4.406  0.6491 -0.1167 -2.1929
 4692TIP3   OH235490   0.685   5.275  13.175 -0.4830 -0.0161  0.2376
 4692TIP3    H135491   0.679   5.371  13.170 -1.0314 -0.0773 -4.0872
 4692TIP3    H235492   0.595   5.245  13.166 -0.0087 -0.7755 -4.0361
 4693TIP3   OH235493   2.359   6.436   0.230  0.0269  1.0582 -0.3605
 4693TIP3    H135494   2.448   6.407   0.215 -0.1428  0.2646  0.1109
 4693TIP3    H235495   2.315   6.361   0.269 -0.6298  1.7012  0.1775
 4694TIP3   OH235496   1.182   5.650   2.522 -0.0811 -0.6510 -0.0039
 4694TIP3    H135497   1.142   5.634   2.608  2.1688  1.2375  1.5078
 4694TIP3    H235498   1.166   5.742   2.505  1.2723 -0.5128 -0.6183
 4695TIP3   OH235499   5.286   2.420   6.079  0.5631 -0.0706  0.2602
 4695TIP3    H135500   5.324   2.486   6.137  2.2395  1.2784 -2.2133
 4695TIP3    H235501   5.352   2.351   6.074  1.2137  0.6285 -1.3134
 4696TIP3   OH235502   0.766   3.706   6.365 -0.0076 -0.6724 -0.2688
 4696TIP3    H135503   0.811   3.626   6.393 -0.1916 -0.5453  0.4187
 4696TIP3    H235504   0.674   3.679   6.356 -0.2527 -0.3066  0.9888
 4697TIP3   OH235505   4.204   5.436   0.405  0.0285  0.3378  0.9235
 4697TIP3    H135506   4.224   5.355   0.360  1.6160  2.0562 -1.7168
 4697TIP3    H235507   4.124   5.417   0.454  0.0779 -2.6294  0.0253
 4698TIP3   OH235508   2.889   4.841   0.781  0.2369 -0.7634  0.1378
 4698TIP3    H135509   2.863   4.846   0.689  0.6221  1.6825  0.0943
 4698TIP3    H235510   2.902   4.748   0.798 -0.6073 -1.3254 -2.0592
 4699TIP3   OH235511   5.521   1.399  12.719 -0.6641 -0.3767 -0.0911
 4699TIP3    H135512   5.500   1.340  12.646  0.8682  1.9997 -2.6653
 4699TIP3    H235513   5.612   1.379  12.741 -0.8727 -0.5365  0.6509
 4700TIP3   OH235514   4.624   4.407  11.533 -0.3371 -0.5818 -0.0654
 4700TIP3    H135515   4.627   4.401  11.438 -0.7279 -1.3102 -0.0364
 4700TIP3    H235516   4.660   4.323  11.564  2.9488  0.8670  0.4816
 4701TIP3   OH235517   5.298   0.987  13.090  0.1970  0.0680 -0.9696
 4701TIP3    H135518   5.275   0.905  13.133  0.5653  0.2861 -0.3398
 4701TIP3    H235519   5.225   1.045  13.109  0.9672  0.5915  0.5669
 4702TIP3   OH235520   5.891   4.670  15.579 -0.2375 -0.2700  0.4258
 4702TIP3    H135521   5.978   4.681  15.541 -0.8196 -0.4932 -1.0391
 4702TIP3    H235522   5.880   4.575  15.587 -0.8335 -0.3109 -0.6454
 4703TIP3   OH235523   5.748   1.733   0.966  0.2452 -0.7407  0.1067
 4703TIP3    H135524   5.682   1.789   1.007  0.1435 -0.7029 -0.1103
 4703TIP3    H235525   5.816   1.794   0.936  0.7954 -0.8412  1.0811
 4704TIP3   OH235526   3.112   0.485  14.430 -0.1838  0.2534 -0.0354
 4704TIP3    H135527   3.038   0.504  14.373 -2.4585 -0.6240  2.4111
 4704TIP3    H235528   3.143   0.399  14.401 -0.4578  0.3847 -0.7386
 4705TIP3   OH235529   5.299   6.731   3.888  0.1255 -0.2461  0.4882
 4705TIP3    H135530   5.222   6.682   3.917 -0.8060 -0.5296 -2.2000
 4705TIP3    H235531   5.370   6.700   3.944 -1.2760 -1.5424  1.6446
 4706TIP3   OH235532   6.655   2.430  13.844 -0.6703 -0.3561 -0.4583
 4706TIP3    H135533   6.595   2.457  13.913  1.9596  0.5920  1.6338
 4706TIP3    H235534   6.685   2.343  13.871 -0.8997 -0.7372 -1.3794
 4707TIP3   OH235535   5.939   1.507  14.997  0.4679  0.0317  0.3272
 4707TIP3    H135536   6.024   1.491  15.038  0.9876  2.5388  0.3561
 4707TIP3    H235537   5.892   1.563  15.059  0.5598  2.3915 -1.6004
 4708TIP3   OH235538   5.208   5.593   4.815 -0.0396  0.0455  0.0803
 4708TIP3    H135539   5.245   5.670   4.859  0.5012 -0.1748  0.0155
 4708TIP3    H235540   5.274   5.524   4.827  0.1718  0.0072 -1.1316
 4709TIP3   OH235541   1.681   5.552   2.423 -0.0273  0.1596  0.0536
 4709TIP3    H135542   1.759   5.553   2.479 -0.2308  0.8363  0.3226
 4709TIP3    H235543   1.607   5.545   2.484 -0.4642  3.9365  0.1472
 4710TIP3   OH235544   3.386   4.944  11.822 -0.6511 -0.7538 -0.3789
 4710TIP3    H135545   3.348   5.030  11.837 -1.0666 -1.2144  1.5715
 4710TIP3    H235546   3.335   4.907  11.750 -0.6389  0.5040 -1.0618
 4711TIP3   OH235547   4.080   5.574  14.703  0.0614 -0.7195 -0.4255
 4711TIP3    H135548   4.135   5.651  14.713  0.0986 -0.6355 -1.2417
 4711TIP3    H235549   4.061   5.546  14.793  4.2688 -2.7946  0.0453
 4712TIP3   OH235550   1.872   3.481   1.628  0.3213 -0.1264  0.3420
 4712TIP3    H135551   1.886   3.426   1.551 -0.6785  1.8048 -1.3320
 4712TIP3    H235552   1.797   3.441   1.673 -1.0621  0.3380 -1.4115
 4713TIP3   OH235553   3.110   4.111   2.611 -0.6330  0.5047  0.0470
 4713TIP3    H135554   3.066   4.085   2.530  0.8302 -1.9206 -0.0824
 4713TIP3    H235555   3.132   4.203   2.599  2.7697 -0.5751 -3.9745
 4714TIP3   OH235556   0.236   1.823  11.365  0.3111 -0.5284  0.4612
 4714TIP3    H135557   0.270   1.886  11.301  0.7831  0.1553  1.3651
 4714TIP3    H235558   0.158   1.866  11.401  0.5565 -0.5223  0.9851
 4715TIP3   OH235559   3.596   0.081   2.629 -0.1074  0.1299 -0.2155
 4715TIP3    H135560   3.524   0.059   2.688  0.9497 -0.1672  1.0179
 4715TIP3    H235561   3.619  -0.002   2.587 -0.5689  0.2551 -0.7259
 4716TIP3   OH235562   3.808   0.680  15.940  0.3458  0.2495  0.0173
 4716TIP3    H135563   3.810   0.585  15.952 -0.2700  0.3866  1.3713
 4716TIP3    H235564   3.900   0.707  15.946  0.6074 -0.3329 -1.1673
 4717TIP3   OH235565   2.752   2.055   3.317  0.2285  0.2133  0.5516
 4717TIP3    H135566   2.703   2.121   3.366 -1.3227 -1.0877  0.8343
 4717TIP3    H235567   2.692   2.024   3.250  1.0552 -0.6423  0.1795
 4718TIP3   OH235568   4.337   0.820  11.127 -0.1833  0.3665 -0.3842
 4718TIP3    H135569   4.342   0.763  11.204 -1.4513 -0.2543 -0.7337
 4718TIP3    H235570   4.397   0.780  11.064 -0.8023 -0.3850 -0.5013
 4719TIP3   OH235571   4.739   5.173   4.492 -0.3980 -0.2225  0.6830
 4719TIP3    H135572   4.674   5.173   4.422  1.9157 -0.6219 -1.5657
 4719TIP3    H235573   4.812   5.224   4.459  1.3481 -1.5474  2.2434
 4720TIP3   OH235574   4.468   4.258  11.801 -0.0457  0.3927 -0.7315
 4720TIP3    H135575   4.485   4.164  11.797 -1.9435  0.0583 -1.5726
 4720TIP3    H235576   4.542   4.293  11.851 -0.2026 -1.7667  1.1551
 4721TIP3   OH235577   2.856   1.622  15.347  0.4638  0.1555 -0.4955
 4721TIP3    H135578   2.777   1.674  15.362  1.1066  1.8658 -2.5996
 4721TIP3    H235579   2.928   1.682  15.363  1.3251 -0.9388 -0.1475
 4722TIP3   OH235580   5.838   1.329   5.988 -0.0981  0.3624 -0.2560
 4722TIP3    H135581   5.867   1.293   6.071  0.2520 -1.5917 -1.1550
 4722TIP3    H235582   5.816   1.252   5.935  2.9603  1.2552 -3.1666
 4723TIP3   OH235583   2.542   5.338  14.276  0.1574  0.2380 -0.0456
 4723TIP3    H135584   2.483   5.390  14.332 -0.4124  0.8720 -1.1938
 4723TIP3    H235585   2.527   5.372  14.188  3.5060  1.6591 -0.2270
 4724TIP3   OH235586   5.663   2.659   2.752  0.0903  0.3086  0.5815
 4724TIP3    H135587   5.641   2.585   2.808  1.6301 -0.7027 -0.0872
 4724TIP3    H235588   5.751   2.684   2.778  0.2634  0.7698 -0.3938
 4725TIP3   OH235589   2.148   0.011   0.863 -0.3895  0.2634 -0.3740
 4725TIP3    H135590   2.132  -0.083   0.855  1.3466 -0.1659  0.6128
 4725TIP3    H235591   2.154   0.026   0.958  0.9357  1.0587 -0.5576
 4726TIP3   OH235592   0.003   0.889  14.633 -0.4370 -0.5332 -0.7967
 4726TIP3    H135593  -0.007   0.943  14.712  1.3687 -0.7403 -0.3648
 4726TIP3    H235594   0.011   0.800  14.666  1.4834 -0.5067 -1.0666
 4727TIP3   OH235595   2.077   2.027   2.147 -0.0045  0.1351  0.4927
 4727TIP3    H135596   2.145   2.073   2.098  2.2412 -3.1317  0.2091
 4727TIP3    H235597   2.045   2.091   2.210  2.8009  2.1043  0.0846
 4728TIP3   OH235598   4.085   3.357  16.465  0.2740 -0.3962 -0.3625
 4728TIP3    H135599   4.053   3.274  16.428  0.2039 -0.5132 -0.0496
 4728TIP3    H235600   4.180   3.352  16.456  0.3490 -0.9675  0.5760
 4729TIP3   OH235601   5.629   4.913   1.585 -0.7407  0.0944 -0.6745
 4729TIP3    H135602   5.704   4.962   1.552 -1.9572  0.3708 -3.2430
 4729TIP3    H235603   5.658   4.822   1.586 -0.0360  0.3135 -0.5879
 4730TIP3   OH235604   4.037   3.918  13.814  0.1851  0.3042 -0.0870
 4730TIP3    H135605   4.103   3.946  13.751 -1.1570  0.5737 -1.4549
 4730TIP3    H235606   3.996   3.841  13.773 -0.7994  0.5564  0.3799
 4731TIP3   OH235607   2.674   4.312  12.139  0.0114 -0.1770  0.6899
 4731TIP3    H135608   2.741   4.300  12.206  1.7287  1.0302 -0.6957
 4731TIP3    H235609   2.724   4.316  12.057 -1.8078  0.3743 -0.4409
 4732TIP3   OH235610   6.500   0.182   0.492 -0.1988 -0.3143  0.1097
 4732TIP3    H135611   6.475   0.233   0.570  1.8886  0.2764  0.4483
 4732TIP3    H235612   6.585   0.145   0.514  0.0290 -0.8533 -1.5862
 4733TIP3   OH235613   6.233   0.025   4.180 -0.2512 -0.4730 -0.4411
 4733TIP3    H135614   6.214  -0.069   4.186 -0.0602 -0.5105 -0.4124
 4733TIP3    H235615   6.327   0.031   4.197 -0.7810  0.0574  3.2259
 4734TIP3   OH235616   0.604   1.718   2.855 -0.1441 -0.5732 -0.3448
 4734TIP3    H135617   0.614   1.664   2.934 -1.3762 -0.0871  0.1702
 4734TIP3    H235618   0.543   1.669   2.800  0.8960 -1.0229 -1.1153
 4735TIP3   OH235619   2.550   3.314   1.353  0.4660  0.2755 -0.0290
 4735TIP3    H135620   2.468   3.266   1.364  0.8823 -0.6701 -0.8627
 4735TIP3    H235621   2.618   3.248   1.365  1.2841  1.5132  3.3890
 4736TIP3   OH235622   2.561   3.914  13.926 -0.7770 -0.0530  0.0746
 4736TIP3    H135623   2.496   3.887  13.991 -0.2165 -0.3706  0.5112
 4736TIP3    H235624   2.606   3.834  13.901  0.6663  0.3890  1.1271
 4737TIP3   OH235625   6.663   2.498   2.327  0.1851  0.2335  0.6757
 4737TIP3    H135626   6.684   2.468   2.416 -1.0706  1.0481  1.2676
 4737TIP3    H235627   6.571   2.525   2.332 -0.0986 -0.3211 -1.0452
 4738TIP3   OH235628   3.029   3.391  15.142 -0.1412 -0.1258 -0.4574
 4738TIP3    H135629   2.955   3.362  15.089 -0.1018 -1.3882  0.1316
 4738TIP3    H235630   3.010   3.357  15.230  0.7125  0.2774 -0.1027
 4739TIP3   OH235631   3.163   0.879  16.967 -0.0363  0.2269 -0.3243
 4739TIP3    H135632   3.227   0.808  16.968 -2.0094 -1.6904  0.7246
 4739TIP3    H235633   3.162   0.910  16.877  1.8985 -0.0570 -0.4900
 4740TIP3   OH235634   5.474   1.847  10.429 -0.0850 -0.1563 -0.7587
 4740TIP3    H135635   5.560   1.832  10.467  1.1203 -0.9266 -3.5393
 4740TIP3    H235636   5.469   1.942  10.416  0.0358 -0.0370  0.0700
 4741TIP3   OH235637   4.273   2.347   5.517 -0.0404  0.9598  0.0153
 4741TIP3    H135638   4.224   2.294   5.580  0.8537 -1.2208 -1.0230
 4741TIP3    H235639   4.283   2.432   5.560 -2.6960  0.7790  1.2165
 4742TIP3   OH235640   3.060   2.784  13.836 -0.5136 -0.7458  0.3447
 4742TIP3    H135641   2.986   2.732  13.869 -0.3278 -1.2343  0.0138
 4742TIP3    H235642   3.099   2.729  13.768 -0.2276 -0.2218  0.0768
 4743TIP3   OH235643   4.724   4.152  10.434  0.3867 -0.4598 -0.3018
 4743TIP3    H135644   4.773   4.204  10.370  0.0274  2.2305  1.4420
 4743TIP3    H235645   4.781   4.148  10.511 -0.3394 -1.1884  0.2163
 4744TIP3   OH235646   6.274   3.400  14.081 -0.3112  0.0022  0.1773
 4744TIP3    H135647   6.357   3.360  14.054 -0.1003  0.8407 -0.4513
 4744TIP3    H235648   6.224   3.408  14.000 -0.7741  0.0583  0.4637
 4745TIP3   OH235649   1.994   6.065   1.039  0.3732 -0.4227 -0.7407
 4745TIP3    H135650   1.977   5.983   1.087 -1.3077  0.7000  0.7144
 4745TIP3    H235651   1.913   6.081   0.990  0.2815  0.8773 -0.1886
 4746TIP3   OH235652   5.124   4.058   5.164 -0.2441  0.0544  0.1940
 4746TIP3    H135653   5.067   3.981   5.172 -0.8372  0.4840  0.1001
 4746TIP3    H235654   5.202   4.024   5.120  0.2823 -0.8924  1.7793
 4747TIP3   OH235655   3.854   6.493  13.483  0.2062  0.1680  0.1680
 4747TIP3    H135656   3.821   6.428  13.546 -0.8613  0.6289  0.0851
 4747TIP3    H235657   3.921   6.541  13.532  0.3665 -0.3903  0.5110
 4748TIP3   OH235658   1.074   2.987   4.462  0.8278 -0.0394 -0.0124
 4748TIP3    H135659   1.103   3.078   4.453  0.4175  0.0057 -0.9789
 4748TIP3    H235660   1.069   2.973   4.557  0.4348  1.0995  0.1580
 4749TIP3   OH235661   5.146   6.753   3.625 -0.0711 -0.1989 -0.2990
 4749TIP3    H135662   5.174   6.679   3.678  1.7418  0.1089 -0.7207
 4749TIP3    H235663   5.058   6.774   3.656 -0.3660 -2.0872  0.2696
 4750TIP3   OH235664   3.689   5.685  14.539 -0.1409 -0.1407 -0.0557
 4750TIP3    H135665   3.636   5.685  14.460  0.1209 -0.1321 -0.2330
 4750TIP3    H235666   3.735   5.769  14.537  1.3737 -0.9461 -0.9171
 4751TIP3   OH235667   0.721   3.164   4.834  0.0155  0.4828  0.2643
 4751TIP3    H135668   0.782   3.136   4.901 -0.1202 -2.1949 -0.6181
 4751TIP3    H235669   0.772   3.165   4.753 -0.6107  0.1839 -0.1509
 4752TIP3   OH235670   6.724   3.127  14.841 -0.2518 -0.1260  0.0329
 4752TIP3    H135671   6.713   3.167  14.927  1.6595 -0.8891  0.6755
 4752TIP3    H235672   6.706   3.198  14.779 -0.2523  0.8176  1.0904
 4753TIP3   OH235673   4.292   3.312   0.393  0.0410  0.5198  0.2223
 4753TIP3    H135674   4.268   3.405   0.388  0.9832  0.8041  0.9126
 4753TIP3    H235675   4.377   3.307   0.349 -0.7907 -0.3269 -1.3702
 4754TIP3   OH235676   0.785   4.098   1.008  0.1273 -0.2997 -0.0140
 4754TIP3    H135677   0.847   4.166   1.035  0.9473  0.5672 -3.5242
 4754TIP3    H235678   0.833   4.048   0.942 -2.1984 -0.9269 -1.3229
 4755TIP3   OH235679   4.175   2.342   4.036 -0.4253  1.2529 -0.1211
 4755TIP3    H135680   4.120   2.363   3.961 -0.4624  0.3755 -0.3519
 4755TIP3    H235681   4.147   2.254   4.063 -0.7710  1.7518  1.2540
 4756TIP3   OH235682   2.667   5.425  15.477  0.4594 -0.1797  0.2268
 4756TIP3    H135683   2.704   5.488  15.414  0.1674 -1.7969 -1.6618
 4756TIP3    H235684   2.738   5.363  15.492 -0.0661 -0.8487  0.0025
 4757TIP3   OH235685   1.634   3.937  14.353 -0.4363 -0.0451  0.5296
 4757TIP3    H135686   1.600   3.926  14.264 -0.6255  2.7628  0.1448
 4757TIP3    H235687   1.556   3.938  14.409 -0.7588  2.2700  0.1491
 4758TIP3   OH235688   4.447   5.187  12.782  0.5427  0.3413 -0.6856
 4758TIP3    H135689   4.527   5.176  12.833  0.7765  2.4008 -0.5067
 4758TIP3    H235690   4.378   5.198  12.847 -0.0744 -2.0473 -0.8252
 4759TIP3   OH235691   4.667   1.405  11.388  0.4365 -0.0032 -0.1514
 4759TIP3    H135692   4.642   1.321  11.426 -1.8613  0.7799  0.2211
 4759TIP3    H235693   4.679   1.387  11.295 -0.0424 -0.7448 -0.0809
 4760TIP3   OH235694   2.025   1.220  16.181  0.1120 -0.3856  0.2467
 4760TIP3    H135695   2.113   1.209  16.216  0.4225  0.2212 -0.3142
 4760TIP3    H235696   1.993   1.131  16.169  1.4479 -0.7115 -1.4544
 4761TIP3   OH235697   4.099   3.682  14.510 -0.5439  0.3241 -0.3304
 4761TIP3    H135698   4.004   3.674  14.503 -0.6614  1.6327 -0.4536
 4761TIP3    H235699   4.118   3.664  14.602 -0.9795  0.7090 -0.1646
 4762TIP3   OH235700   4.878   4.355   2.710  0.0295  0.0520  0.4994
 4762TIP3    H135701   4.867   4.324   2.621  0.0741  0.4974  0.3347
 4762TIP3    H235702   4.971   4.339   2.730  0.1495  0.4429  0.2710
 4763TIP3   OH235703   5.826   5.734   2.422  0.2280  0.2013 -0.0310
 4763TIP3    H135704   5.835   5.779   2.506  0.3459 -2.2462  1.3553
 4763TIP3    H235705   5.732   5.735   2.404  0.4071  3.2032 -1.4095
 4764TIP3   OH235706   4.862   5.751  12.880 -0.0155  0.0889 -0.0571
 4764TIP3    H135707   4.832   5.662  12.863  0.4639  0.0277 -0.6046
 4764TIP3    H235708   4.895   5.748  12.970  1.1239 -0.6113 -0.4707
 4765TIP3   OH235709   3.796   0.861   2.003  0.4905  0.3782  0.6397
 4765TIP3    H135710   3.852   0.820   1.937 -0.1018 -0.9046  0.8999
 4765TIP3    H235711   3.808   0.807   2.081  0.8480  1.6208  1.4656
 4766TIP3   OH235712   0.864   2.088  12.973 -0.3135 -0.0662  0.4686
 4766TIP3    H135713   0.942   2.141  12.954 -0.0042 -0.7920 -0.3669
 4766TIP3    H235714   0.805   2.105  12.900 -1.3079  1.1071  1.5020
 4767TIP3   OH235715   4.171   5.184   2.617  0.6386  0.3742 -0.1219
 4767TIP3    H135716   4.151   5.126   2.544  1.3763 -0.1840  0.1098
 4767TIP3    H235717   4.088   5.194   2.664  1.0429 -2.8702  1.5370
 4768TIP3   OH235718   3.162   2.603  13.380  0.0815  0.3501  0.1484
 4768TIP3    H135719   3.186   2.681  13.331  1.5390  0.4254  0.9495
 4768TIP3    H235720   3.230   2.539  13.359 -0.0422 -0.0744  0.9919
 4769TIP3   OH235721   4.945   2.183   2.648  0.6671 -0.2668  0.2346
 4769TIP3    H135722   4.953   2.218   2.736  0.5918 -1.9186  0.9187
 4769TIP3    H235723   5.032   2.151   2.626  0.9394  1.0464 -0.7152
 4770TIP3   OH235724   1.252   4.763  11.852  0.3628  0.1718  0.2536
 4770TIP3    H135725   1.273   4.697  11.918 -0.0157  0.4121  0.6231
 4770TIP3    H235726   1.161   4.787  11.871  0.3902  0.5561 -0.0871
 4771TIP3   OH235727   2.267   1.205   3.914  0.8743  0.2913 -0.2294
 4771TIP3    H135728   2.273   1.150   3.993 -0.2684  0.2739 -0.1311
 4771TIP3    H235729   2.313   1.155   3.847 -0.2894 -0.8984 -0.1826
 4772TIP3   OH235730   4.981   6.570   2.805 -0.4198  0.4124  0.7591
 4772TIP3    H135731   5.012   6.656   2.832 -0.4685  0.8335 -0.4892
 4772TIP3    H235732   4.888   6.583   2.788 -0.4659  0.0638  0.7417
 4773TIP3   OH235733   6.350   6.346  12.852 -0.0612  1.0024  0.1744
 4773TIP3    H135734   6.325   6.429  12.892 -0.2261  1.0245  0.0266
 4773TIP3    H235735   6.344   6.362  12.758 -1.1117  0.5244  0.1421
 4774TIP3   OH235736   3.119   6.488  11.594 -0.3208 -0.2315  0.5866
 4774TIP3    H135737   3.086   6.557  11.536 -0.8294 -0.8756  0.1107
 4774TIP3    H235738   3.214   6.496  11.587 -0.3670  0.4878  0.6131
 4775TIP3   OH235739   4.136   2.005  14.115  0.5796  0.4406  0.4012
 4775TIP3    H135740   4.206   1.986  14.177 -1.9127 -1.1644  2.9947
 4775TIP3    H235741   4.090   2.079  14.154 -0.6539 -0.1828  0.1695
 4776TIP3   OH235742   2.486   1.922  17.160  0.5258  0.3491 -0.0991
 4776TIP3    H135743   2.464   1.888  17.247 -0.5238  1.0035 -0.0894
 4776TIP3    H235744   2.582   1.917  17.156  0.5562 -0.1782  0.8843
 4777TIP3   OH235745   0.141   2.859  11.469  0.5736 -0.0075 -0.7223
 4777TIP3    H135746   0.190   2.926  11.421  0.4132 -0.3332 -1.3353
 4777TIP3    H235747   0.107   2.800  11.402  0.4714 -0.5462 -0.2058
 4778TIP3   OH235748   3.377   1.022  16.150  0.8079  0.2328  0.3417
 4778TIP3    H135749   3.309   1.034  16.083  1.4194  1.0322 -0.1562
 4778TIP3    H235750   3.438   1.094  16.135  1.0582  0.3214  1.6540
 4779TIP3   OH235751   4.214   1.280   0.938 -0.1033 -0.1929  0.0906
 4779TIP3    H135752   4.254   1.195   0.924 -0.8565 -0.3287 -1.4114
 4779TIP3    H235753   4.175   1.303   0.854  0.0027  1.6005  0.4746
 4780TIP3   OH235754   4.439   1.869  11.727  0.7688  0.1984  0.0309
 4780TIP3    H135755   4.425   1.948  11.778  1.6045 -0.2336  0.9601
 4780TIP3    H235756   4.528   1.842  11.748  1.6078  0.6513 -2.5719
 4781TIP3   OH235757   1.595   1.738   3.379 -0.1973 -0.1452 -0.3290
 4781TIP3    H135758   1.503   1.743   3.355 -0.7613  0.9277  1.8035
 4781TIP3    H235759   1.604   1.657   3.429  0.9574 -2.3391 -3.7318
 4782TIP3   OH235760   2.259   5.169   1.422  0.5297  0.1363  0.1180
 4782TIP3    H135761   2.186   5.190   1.480  1.0644  0.2521  0.7578
 4782TIP3    H235762   2.328   5.231   1.446  0.7999  0.1067 -0.5579
 4783TIP3   OH235763   5.623   4.973  13.834 -0.1613  0.3833 -0.0116
 4783TIP3    H135764   5.671   4.994  13.754 -0.6381  0.2199 -0.3505
 4783TIP3    H235765   5.607   5.057  13.876 -0.4508  0.5301 -0.4103
 4784TIP3   OH235766   4.907   2.055  16.316 -0.1231  0.0172  0.8496
 4784TIP3    H135767   4.955   1.995  16.373  0.0208 -0.8916 -0.1995
 4784TIP3    H235768   4.827   2.008  16.292 -0.9469  1.0123  1.5422
 4785TIP3   OH235769   4.976   3.905   2.203 -0.4850  0.5058 -0.1324
 4785TIP3    H135770   4.915   3.836   2.178 -0.7071  0.1352  1.3572
 4785TIP3    H235771   5.037   3.911   2.130 -1.6001  0.0601 -1.1241
 4786TIP3   OH235772   2.766   6.483  14.048 -0.2698 -0.0435 -0.5072
 4786TIP3    H135773   2.852   6.524  14.041 -0.9397  1.4371 -0.3760
 4786TIP3    H235774   2.784   6.394  14.078  1.1698  0.4385  0.1063
 4787TIP3   OH235775   5.571   0.180   3.143  0.2688 -0.5335 -0.4183
 4787TIP3    H135776   5.545   0.228   3.221 -1.2327 -3.9209  1.3991
 4787TIP3    H235777   5.665   0.165   3.153  0.1136 -0.8384  0.7539
 4788TIP3   OH235778   6.507   3.389  12.791 -0.3300 -0.1262 -0.1148
 4788TIP3    H135779   6.509   3.302  12.750  1.1411  0.2259 -0.8483
 4788TIP3    H235780   6.594   3.425  12.775 -0.4633  0.9366  1.4163
 4789TIP3   OH235781   2.292   1.204  17.178  0.7408  0.2737  0.2565
 4789TIP3    H135782   2.358   1.142  17.146 -0.7542 -1.9788  1.2489
 4789TIP3    H235783   2.322   1.228  17.266  0.4836 -0.4465  0.5537
 4790TIP3   OH235784   3.226   6.365  11.969 -0.0982 -0.0945  0.2015
 4790TIP3    H135785   3.174   6.444  11.985  0.1864  0.1372  0.0073
 4790TIP3    H235786   3.169   6.309  11.917  0.7754  1.3152 -2.4744
 4791TIP3   OH235787   6.243   0.728   3.926 -0.5431  0.2284 -0.2185
 4791TIP3    H135788   6.232   0.821   3.946 -0.6042  0.5676 -1.6992
 4791TIP3    H235789   6.264   0.726   3.832 -1.6873 -1.3183 -0.4814
 4792TIP3   OH235790   4.678   6.640  11.058  0.0418  0.1600  0.6012
 4792TIP3    H135791   4.744   6.706  11.036 -2.0608  1.7557 -1.5170
 4792TIP3    H235792   4.602   6.691  11.085 -1.1734 -1.4849  0.4154
 4793TIP3   OH235793   2.402   6.277   2.382 -0.8723  0.2601 -0.1234
 4793TIP3    H135794   2.422   6.235   2.298  0.5334 -1.5341  1.0512
 4793TIP3    H235795   2.327   6.229   2.415 -0.5353  0.0158  0.2911
 4794TIP3   OH235796   5.492   0.394   0.436 -0.1546  0.2853  0.1333
 4794TIP3    H135797   5.458   0.447   0.508  0.7686 -1.2183  1.7583
 4794TIP3    H235798   5.438   0.315   0.437  1.9141 -1.2177  1.4077
 4795TIP3   OH235799   1.598   4.099  15.534  0.3058 -0.1291 -0.2165
 4795TIP3    H135800   1.609   4.004  15.523  2.3051  0.2422 -2.0909
 4795TIP3    H235801   1.602   4.134  15.445  1.4157  1.8760  0.5561
 4796TIP3   OH235802   4.005   6.665  16.280 -0.2336  0.2949 -0.2623
 4796TIP3    H135803   4.009   6.759  16.261 -0.5051  1.0735  2.9380
 4796TIP3    H235804   4.092   6.632  16.257 -0.3275  1.1434 -2.0060
 4797TIP3   OH235805   3.875   1.323  14.526 -0.0295 -0.5290 -0.3950
 4797TIP3    H135806   3.877   1.414  14.495  0.8046 -0.5953 -0.5471
 4797TIP3    H235807   3.783   1.308  14.548 -0.1886  0.3335 -0.4225
 4798TIP3   OH235808   0.574   2.200   3.074 -0.0490  0.6758  0.0348
 4798TIP3    H135809   0.546   2.233   2.989 -2.7110  1.0707  0.9934
 4798TIP3    H235810   0.613   2.114   3.055  0.7072  1.3605 -1.6929
 4799TIP3   OH235811   4.712   1.332   3.506 -0.0864 -0.1968 -0.2089
 4799TIP3    H135812   4.616   1.339   3.503 -0.0246  1.4651  0.4811
 4799TIP3    H235813   4.742   1.404   3.451  0.7695 -0.2105  0.2325
 4800TIP3   OH235814   0.251   0.026  15.126 -0.4086  0.5903 -0.4838
 4800TIP3    H135815   0.303  -0.040  15.172  0.3951  0.9895 -0.8081
 4800TIP3    H235816   0.165  -0.014  15.116 -0.5931  0.4351  1.2717
 4801TIP3   OH235817   0.753   2.286  12.109 -0.4335  0.3825 -0.4079
 4801TIP3    H135818   0.843   2.293  12.076 -0.5364 -0.2324 -0.8506
 4801TIP3    H235819   0.762   2.293  12.204  0.3517 -1.6862 -0.2532
 4802TIP3   OH235820   5.269   0.690  12.274 -0.5173  0.2116  0.5887
 4802TIP3    H135821   5.180   0.726  12.272 -0.0609  1.5439  1.9596
 4802TIP3    H235822   5.325   0.763  12.249  0.4266  0.5528  3.3057
 4803TIP3   OH235823   4.295   6.552  16.413  0.1555  0.1470 -0.2757
 4803TIP3    H135824   4.360   6.516  16.473  0.1941  0.4806 -0.1123
 4803TIP3    H235825   4.263   6.631  16.457  1.6262  1.5224 -1.5559
 4804TIP3   OH235826   0.955   6.520   2.113 -0.5598 -0.1396 -0.3077
 4804TIP3    H135827   0.989   6.463   2.044 -2.1216 -0.5840 -0.7498
 4804TIP3    H235828   0.909   6.461   2.172  0.6007  0.2593  1.0583
 4805TIP3   OH235829   2.172   2.730  14.135 -0.0656  0.0070  0.2715
 4805TIP3    H135830   2.139   2.700  14.219 -1.6094 -0.3136 -0.4147
 4805TIP3    H235831   2.214   2.814  14.154 -0.7226  0.1202  1.3048
 4806TIP3   OH235832   0.151   3.212   4.979  0.0040  0.2581 -0.1870
 4806TIP3    H135833   0.207   3.185   5.051  1.9356  0.2949 -1.5728
 4806TIP3    H235834   0.162   3.307   4.974  0.1733  0.2179 -0.7206
 4807TIP3   OH235835   3.552   2.160  16.079 -0.2324  0.0824  0.0378
 4807TIP3    H135836   3.557   2.080  16.131 -2.6896 -0.1271  0.0391
 4807TIP3    H235837   3.584   2.134  15.992 -1.8039 -1.1828 -0.2159
 4808TIP3   OH235838   3.211   0.376   4.033  0.4292  0.3156 -0.3761
 4808TIP3    H135839   3.270   0.416   3.969  0.8916  0.4438  0.1206
 4808TIP3    H235840   3.268   0.323   4.089 -0.0403 -0.2342 -0.4006
 4809TIP3   OH235841   2.484   5.242   5.156  0.1815  0.8928 -0.2036
 4809TIP3    H135842   2.487   5.228   5.062 -0.2985  0.2943 -0.1331
 4809TIP3    H235843   2.492   5.337   5.166  0.4668  0.9387 -0.8309
 4810TIP3   OH235844   1.833   4.215   2.772  0.1954 -0.1839 -0.0677
 4810TIP3    H135845   1.812   4.122   2.765  1.3707 -0.3936 -1.1160
 4810TIP3    H235846   1.899   4.231   2.705  0.0822  1.4030  0.1372
 4811TIP3   OH235847   0.753   4.186   2.896 -0.0896  0.1726  0.6405
 4811TIP3    H135848   0.837   4.175   2.851 -1.5312  0.2423 -2.3124
 4811TIP3    H235849   0.746   4.280   2.911 -0.1247  0.3160 -0.2142
 4812TIP3   OH235850   0.291   1.230   0.236  0.0081  0.1230  0.4078
 4812TIP3    H135851   0.344   1.206   0.160 -0.0590 -0.2811  0.4884
 4812TIP3    H235852   0.265   1.147   0.276 -1.5975  0.2715 -0.2482
 4813TIP3   OH235853   5.354   3.349  12.925  0.6805  0.9735  0.1216
 4813TIP3    H135854   5.378   3.409  12.854  0.2965  2.8302  1.4618
 4813TIP3    H235855   5.299   3.283  12.884  1.5721  1.2181 -1.5326
 4814TIP3   OH235856   0.729   4.066   5.890 -0.1123  0.0592 -0.8039
 4814TIP3    H135857   0.804   4.089   5.945 -0.1259 -0.5756 -0.5124
 4814TIP3    H235858   0.730   4.132   5.820 -0.4140  1.2079  0.2387
 4815TIP3   OH235859   3.013   2.648  11.187  0.0251  0.2774 -0.0640
 4815TIP3    H135860   2.991   2.740  11.204  0.0602  0.3409 -0.3619
 4815TIP3    H235861   3.040   2.646  11.096 -0.6003 -0.1475 -0.2447
 4816TIP3   OH235862   4.068   0.328  13.340  0.7978 -0.3993  0.2332
 4816TIP3    H135863   4.120   0.250  13.358 -1.0163 -1.6266  0.5111
 4816TIP3    H235864   4.026   0.348  13.424 -0.1229 -0.2067 -0.2636
 4817TIP3   OH235865   0.022   1.192   4.094 -0.1959 -0.2005 -0.1800
 4817TIP3    H135866  -0.035   1.266   4.074  0.6742  0.0040 -2.1022
 4817TIP3    H235867  -0.035   1.115   4.084 -0.9378  0.1208  1.2179
 4818TIP3   OH235868   4.748   2.223  11.641 -0.4107  0.4454  0.2112
 4818TIP3    H135869   4.763   2.273  11.561 -1.9186 -1.2001 -1.1901
 4818TIP3    H235870   4.828   2.171  11.652 -0.7739 -0.4266 -1.1167
 4819TIP3   OH235871   2.573   6.385  12.816  0.1445 -0.4798 -0.2077
 4819TIP3    H135872   2.490   6.384  12.865  0.1799 -0.8905 -0.1542
 4819TIP3    H235873   2.640   6.384  12.884  0.1998 -1.8447 -0.2649
 4820TIP3   OH235874   5.975   3.347   0.356  0.4062 -0.0432 -0.7865
 4820TIP3    H135875   5.958   3.407   0.429  1.9881  2.5990 -2.4222
 4820TIP3    H235876   6.070   3.344   0.349  0.3273 -1.9155 -1.4769
 4821TIP3   OH235877   2.308   5.109  11.570  0.5579 -0.1548  0.2819
 4821TIP3    H135878   2.301   5.032  11.627 -0.6942  0.1936  0.6405
 4821TIP3    H235879   2.305   5.184  11.629  0.0095  0.1963 -0.1699
 4822TIP3   OH235880   4.784   1.789  10.896  0.1993  0.8984  0.0887
 4822TIP3    H135881   4.774   1.706  10.850 -0.1221  0.8336  0.2778
 4822TIP3    H235882   4.757   1.770  10.986  0.2990  1.1627  0.1742
 4823TIP3   OH235883   1.125   5.393  13.376 -0.0372  0.0726  0.0234
 4823TIP3    H135884   1.203   5.377  13.322 -1.1755 -0.4689 -1.5295
 4823TIP3    H235885   1.061   5.329  13.345 -0.2293 -1.5313  3.2871
 4824TIP3   OH235886   2.650   1.830  10.256 -0.1963 -0.2634  0.1650
 4824TIP3    H135887   2.640   1.737  10.236 -1.5135  0.3457 -2.3488
 4824TIP3    H235888   2.562   1.858  10.281  0.4938  0.0500  2.4927
 4825TIP3   OH235889   5.389   0.961   4.846  0.6118  0.4492 -0.3056
 4825TIP3    H135890   5.406   0.869   4.827  1.1618  0.6464 -0.7784
 4825TIP3    H235891   5.430   1.009   4.774 -0.0006  1.0494 -0.2685
 4826TIP3   OH235892   0.527   1.162   0.100  0.1492  1.0214  0.1460
 4826TIP3    H135893   0.546   1.148   0.193  0.2414 -0.0637 -0.0221
 4826TIP3    H235894   0.601   1.123   0.054 -0.5287  0.3530 -0.4116
 4827TIP3   OH235895   0.046   6.106   2.134 -0.0192  0.0931  0.7655
 4827TIP3    H135896   0.049   6.202   2.130  0.2545  0.0448 -0.8062
 4827TIP3    H235897   0.023   6.079   2.045 -0.4111 -1.2989  1.2672
 4828TIP3   OH235898   2.520   4.207  10.678 -0.0484  0.4721  0.0989
 4828TIP3    H135899   2.540   4.120  10.643 -0.9050  0.3497 -0.0968
 4828TIP3    H235900   2.503   4.192  10.771  0.3408  0.5166  0.1803
 4829TIP3   OH235901   3.918   1.562  15.734 -0.4681 -0.2979  0.1878
 4829TIP3    H135902   3.947   1.504  15.805  1.1071 -0.5059 -0.5902
 4829TIP3    H235903   3.996   1.612  15.711 -0.8893 -0.3993 -1.5615
 4830TIP3   OH235904   0.598   5.183   1.693  0.3028  0.0872 -0.0835
 4830TIP3    H135905   0.621   5.182   1.786 -0.2318 -2.6981  0.0988
 4830TIP3    H235906   0.681   5.187   1.647  0.6302  0.2674  0.5193
 4831TIP3   OH235907   6.701   3.297   4.402 -0.3078  0.0650  0.1656
 4831TIP3    H135908   6.749   3.262   4.327 -1.3715  0.4828 -0.7499
 4831TIP3    H235909   6.718   3.391   4.400  0.3148 -0.0271  0.9473
 4832TIP3   OH235910   3.471   4.453  15.781  0.4573 -0.4626  0.8468
 4832TIP3    H135911   3.428   4.368  15.779  0.0175 -0.2388  0.5106
 4832TIP3    H235912   3.406   4.513  15.744  1.4762 -0.3023 -0.7658
 4833TIP3   OH235913   5.456   2.218   4.447 -0.3580 -0.2133  0.2588
 4833TIP3    H135914   5.386   2.245   4.388  1.7482  0.7676 -1.9429
 4833TIP3    H235915   5.494   2.300   4.478  0.7500 -0.6972  0.2285
 4834TIP3   OH235916   4.135   0.237   3.258 -0.0619 -0.0656  0.0441
 4834TIP3    H135917   4.138   0.142   3.252  0.1560  0.0054 -1.4945
 4834TIP3    H235918   4.226   0.265   3.248 -0.3680  0.3671 -2.0425
 4835TIP3   OH235919   2.279   6.713   2.597 -0.3905 -0.0775 -0.0417
 4835TIP3    H135920   2.354   6.773   2.600 -1.5367  1.4934 -1.1959
 4835TIP3    H235921   2.251   6.705   2.688  2.2392 -2.1865  0.6967
 4836TIP3   OH235922   2.964   3.026  16.834 -0.2595 -0.5238 -0.4258
 4836TIP3    H135923   2.996   3.081  16.763 -1.0900  1.6324  0.7660
 4836TIP3    H235924   3.026   3.042  16.906 -0.6373 -0.9761  0.0026
 4837TIP3   OH235925   5.964   0.958  15.676  0.3431 -0.2250 -0.5272
 4837TIP3    H135926   5.906   1.023  15.714  0.4243 -0.2567 -0.3484
 4837TIP3    H235927   6.051   0.982  15.708  0.4386 -0.1452 -0.8364
 4838TIP3   OH235928   1.180   0.385  15.193 -0.0643 -0.0021  0.4246
 4838TIP3    H135929   1.194   0.390  15.287  0.0151  0.3611  0.3947
 4838TIP3    H235930   1.112   0.449  15.175  0.9760  1.0389  0.0321
 4839TIP3   OH235931   6.352   4.304   4.755 -0.1237 -0.3525  0.3781
 4839TIP3    H135932   6.412   4.366   4.798 -1.1077 -0.1797  1.5504
 4839TIP3    H235933   6.287   4.359   4.712  0.1094 -0.5504 -0.2324
 4840TIP3   OH235934   4.270   0.302  14.505 -0.0160  0.6890  0.2305
 4840TIP3    H135935   4.258   0.214  14.540  0.9165  0.0445 -0.9987
 4840TIP3    H235936   4.358   0.328  14.534  0.1974  0.7138 -0.4215
 4841TIP3   OH235937   3.180   0.120  11.572 -0.4957 -0.1457  0.3489
 4841TIP3    H135938   3.217   0.079  11.494  0.7365 -0.0822  0.8885
 4841TIP3    H235939   3.138   0.200  11.538 -0.3453 -0.3368 -0.3061
 4842TIP3   OH235940   1.966   4.243   1.931  0.2358  0.3049 -0.4856
 4842TIP3    H135941   2.009   4.161   1.953  0.3903 -0.1644 -2.3538
 4842TIP3    H235942   1.961   4.242   1.835  0.3487  2.5212 -0.5594
 4843TIP3   OH235943   0.689   0.955   5.396 -0.1683  0.0405  0.1958
 4843TIP3    H135944   0.765   1.010   5.413  1.8487 -2.5178  0.2017
 4843TIP3    H235945   0.620   0.991   5.451  1.5992  1.3292  1.7034
 4844TIP3   OH235946   3.073   4.696   0.504 -0.1212  0.0194 -0.2298
 4844TIP3    H135947   2.997   4.746   0.474 -0.7214 -1.0454 -0.5500
 4844TIP3    H235948   3.035   4.620   0.548  0.7637 -0.3120 -0.0193
 4845TIP3   OH235949   1.007   0.617   6.212 -0.1885  0.0142  0.1536
 4845TIP3    H135950   0.988   0.695   6.160 -2.5038  0.3140  1.3191
 4845TIP3    H235951   0.967   0.634   6.297 -0.3855 -2.2573  0.5841
 4846TIP3   OH235952   0.038   0.812   4.790  0.2748 -0.0232  0.1105
 4846TIP3    H135953   0.129   0.802   4.818  0.8112  3.1292 -0.1426
 4846TIP3    H235954   0.029   0.752   4.716  2.1125 -0.4564  0.1983
 4847TIP3   OH235955   5.361   4.507  15.713 -0.3679 -0.0445 -0.0084
 4847TIP3    H135956   5.368   4.416  15.684  1.2969  0.4517 -1.3768
 4847TIP3    H235957   5.440   4.549  15.678 -1.0042  1.8939  0.7419
 4848TIP3   OH235958   0.866   0.416  15.720 -0.1627 -0.0637 -0.0615
 4848TIP3    H135959   0.841   0.441  15.631  0.0278 -0.4861 -0.2349
 4848TIP3    H235960   0.931   0.481  15.746 -0.4623  0.2572 -0.1055
 4849TIP3   OH235961   3.185   4.951  12.612 -0.2518 -0.5287  0.3233
 4849TIP3    H135962   3.268   4.915  12.583 -0.2270  0.2268 -0.5849
 4849TIP3    H235963   3.183   5.040  12.575 -2.0096 -0.9694 -0.7708
 4850TIP3   OH235964   1.207   0.035  12.938  0.1506 -0.0251  0.0432
 4850TIP3    H135965   1.241  -0.024  13.005 -0.6510  0.0820  0.5506
 4850TIP3    H235966   1.112   0.020  12.938 -0.0322  1.0554 -0.0183
 4851TIP3   OH235967   3.660   1.824  12.236  0.1255  0.1878  0.0542
 4851TIP3    H135968   3.632   1.855  12.150  2.0007  1.7275 -0.0671
 4851TIP3    H235969   3.714   1.747  12.216 -1.9687 -1.4206  0.1505
 4852TIP3   OH235970   2.323   2.540  12.833  0.0776 -0.0178 -0.1971
 4852TIP3    H135971   2.292   2.611  12.889 -0.0340  2.2010 -2.8979
 4852TIP3    H235972   2.250   2.519  12.776  1.4981  1.0777 -2.5825
 4853TIP3   OH235973   0.336   5.238   4.654  0.3316  0.2098  0.0380
 4853TIP3    H135974   0.418   5.281   4.630  0.2018 -0.4945 -1.7851
 4853TIP3    H235975   0.312   5.278   4.738  1.9086  1.2764  0.0249
 4854TIP3   OH235976   2.266   1.831  13.377 -1.1795 -0.3720  0.0790
 4854TIP3    H135977   2.255   1.747  13.332 -0.1748  1.0108 -3.0713
 4854TIP3    H235978   2.357   1.832  13.405 -0.8250  0.0889 -1.0141
 4855TIP3   OH235979   4.062   0.813   2.315 -0.0538 -0.2659 -0.7555
 4855TIP3    H135980   4.099   0.729   2.339  0.3419 -0.0170 -0.4791
 4855TIP3    H235981   3.977   0.792   2.276 -0.7626 -0.6817  0.9502
 4856TIP3   OH235982   3.636   5.667   0.626 -0.4928  0.0085  0.1043
 4856TIP3    H135983   3.695   5.739   0.605 -1.3343  0.7016  0.0397
 4856TIP3    H235984   3.572   5.667   0.555  0.2173 -1.6370 -0.5797
 4857TIP3   OH235985   5.397   5.911   5.924 -0.2456 -0.0179 -0.1538
 4857TIP3    H135986   5.487   5.884   5.905 -0.0095  1.8344 -2.0348
 4857TIP3    H235987   5.344   5.867   5.856 -0.5771 -0.0618  0.1292
 4858TIP3   OH235988   2.483   3.460   5.650  0.6760  0.3165  0.3005
 4858TIP3    H135989   2.419   3.491   5.715  2.3398  1.8850  1.3016
 4858TIP3    H235990   2.519   3.380   5.688  1.1815  0.8794  1.0284
 4859TIP3   OH235991   3.128   4.660   6.173  0.5500  0.9413 -0.2279
 4859TIP3    H135992   3.127   4.719   6.248  0.8879 -0.7371  1.1677
 4859TIP3    H235993   3.042   4.617   6.176  0.7679  0.4840 -0.4882
 4860TIP3   OH235994   3.309   5.889   4.303  0.3402  0.5347  0.2151
 4860TIP3    H135995   3.222   5.883   4.343  0.7882 -1.2359  1.0023
 4860TIP3    H235996   3.296   5.854   4.214  0.1530  0.7879  0.1397
 4861TIP3   OH235997   0.115   3.751   2.993  0.4906 -0.0500  0.4669
 4861TIP3    H135998   0.035   3.738   3.045 -0.6832 -1.3070 -1.5216
 4861TIP3    H235999   0.182   3.774   3.057 -1.4326  1.0198  2.2337
 4862TIP3   OH236000   1.611   1.988   1.481  0.1393 -0.5676  0.1171
 4862TIP3    H136001   1.589   1.973   1.389  0.9477 -0.5163 -0.0952
 4862TIP3    H236002   1.690   2.042   1.477 -0.7062  0.7684  0.8441
 4863TIP3   OH236003   3.257   3.252   5.069 -0.3485 -0.0591  0.1021
 4863TIP3    H136004   3.214   3.316   5.013  0.1168 -0.9578 -1.3224
 4863TIP3    H236005   3.337   3.297   5.100 -0.6178  0.4418  0.0850
 4864TIP3   OH236006   2.018   0.925   4.871  0.4317  0.3130 -0.3974
 4864TIP3    H136007   2.055   0.903   4.785  0.2724  0.2879 -0.4616
 4864TIP3    H236008   2.014   0.841   4.917  1.8591  0.5427  0.1749
 4865TIP3   OH236009   0.921   1.181   1.982  0.4789 -0.2395  0.5323
 4865TIP3    H136010   0.919   1.132   2.064  3.1139 -2.2210 -0.4405
 4865TIP3    H236011   0.912   1.114   1.914 -1.2956  1.3014 -0.8614
 4866TIP3   OH236012   2.397   5.266   2.585 -0.7036 -0.1015 -0.1568
 4866TIP3    H136013   2.454   5.319   2.641  1.2622 -1.0777 -1.0919
 4866TIP3    H236014   2.325   5.240   2.641  1.1472 -1.0182  1.9717
 4867TIP3   OH236015   6.292   3.090   4.130  0.1555  0.5526 -0.0056
 4867TIP3    H136016   6.207   3.133   4.126 -0.2908 -0.3894 -1.0911
 4867TIP3    H236017   6.355   3.162   4.133 -0.6526  1.2617  0.5042
 4868TIP3   OH236018   5.562   6.422   1.434 -0.1449 -0.5144 -0.1685
 4868TIP3    H136019   5.471   6.450   1.436  0.5102  1.7515  1.2394
 4868TIP3    H236020   5.594   6.437   1.523  1.9768  0.1692 -0.9837
 4869TIP3   OH236021   6.179   5.568   5.290  0.1492  0.1846 -0.6187
 4869TIP3    H136022   6.263   5.601   5.257  1.3425 -1.3521  0.7291
 4869TIP3    H236023   6.184   5.474   5.277 -1.6093  0.1119 -0.9565
 4870TIP3   OH236024   3.959   0.671   5.117  0.2534  0.5463 -0.6595
 4870TIP3    H136025   3.891   0.606   5.135 -2.9448  2.8992 -2.9385
 4870TIP3    H236026   3.952   0.734   5.189 -0.3427  1.0189 -1.1216
 4871TIP3   OH236027   2.542   1.102  10.840 -0.5255  0.0486 -0.9252
 4871TIP3    H136028   2.566   1.170  10.903  0.7866 -0.0416 -1.2979
 4871TIP3    H236029   2.619   1.093  10.784  0.0678 -3.0075  0.1980
 4872TIP3   OH236030   3.937   6.192   3.344 -0.0009 -0.1077 -0.0052
 4872TIP3    H136031   3.987   6.117   3.312  1.8137  0.5045  1.2610
 4872TIP3    H236032   3.966   6.266   3.291  0.7407  0.3148  0.9559
 4873TIP3   OH236033   2.242   5.346  13.915  0.4162 -0.2579 -0.0692
 4873TIP3    H136034   2.280   5.377  13.997 -1.2522 -0.5809  0.8553
 4873TIP3    H236035   2.314   5.352  13.852  1.6558  0.2474  1.3399
 4874TIP3   OH236036   3.401   2.010   5.161 -0.0723  0.0574  0.3467
 4874TIP3    H136037   3.475   2.021   5.221 -0.8655 -0.3087  1.4178
 4874TIP3    H236038   3.409   1.920   5.129  0.9996  0.6015 -1.0251
 4875TIP3   OH236039   0.646   0.589  16.882 -0.9874 -0.4604 -0.4368
 4875TIP3    H136040   0.604   0.509  16.914 -1.3101  0.2043  0.8630
 4875TIP3    H236041   0.575   0.653  16.876 -0.6439 -0.1204 -0.9647
 4876TIP3   OH236042   3.851   4.335  14.100  0.0261 -0.8508 -0.1015
 4876TIP3    H136043   3.906   4.294  14.034 -1.9404  1.0397 -3.2041
 4876TIP3    H236044   3.762   4.311  14.076 -0.8256  0.5519  1.4145
 4877TIP3   OH236045   3.564   6.556  11.352  0.0199 -0.2544 -0.2080
 4877TIP3    H136046   3.477   6.516  11.354 -0.1335  0.0722  2.1932
 4877TIP3    H236047   3.612   6.505  11.287 -1.8408 -0.6613 -1.3421
 4878TIP3   OH236048   3.369   6.565   4.877 -0.0553 -0.2800  0.4637
 4878TIP3    H136049   3.418   6.647   4.870 -0.0093 -0.2932  0.6230
 4878TIP3    H236050   3.310   6.578   4.950 -0.7559 -0.0286 -0.1313
 4879TIP3   OH236051   4.835   0.190  12.741 -0.1612 -0.1159 -0.5976
 4879TIP3    H136052   4.893   0.184  12.665 -0.1767  0.4176 -0.6561
 4879TIP3    H236053   4.770   0.121  12.728 -0.6645  0.5101 -1.5038
 4880TIP3   OH236054   4.499   0.729   3.119  0.4495  0.1411  0.0117
 4880TIP3    H136055   4.506   0.690   3.206  1.6612 -0.0300 -0.1457
 4880TIP3    H236056   4.590   0.747   3.094  0.0571  0.9842 -0.8581
 4881TIP3   OH236057   5.658   0.783   3.164  0.2725 -0.0646  0.4018
 4881TIP3    H136058   5.662   0.855   3.227 -2.0053 -0.2265  0.8003
 4881TIP3    H236059   5.714   0.812   3.092 -1.2257  2.5277  0.1526
 4882TIP3   OH236060   6.037   5.358   3.186 -0.1711 -0.4051 -1.0930
 4882TIP3    H136061   6.053   5.413   3.263  0.4807  1.0143 -2.1877
 4882TIP3    H236062   6.033   5.269   3.221  0.7032  0.1311  0.4980
 4883TIP3   OH236063   3.094   1.489  16.599 -0.2299  0.8193 -0.2366
 4883TIP3    H136064   3.008   1.500  16.559 -0.7600 -2.7692 -0.4033
 4883TIP3    H236065   3.078   1.496  16.694 -1.0478 -1.0894 -0.1854
 4884TIP3   OH236066   5.258   2.526  11.326  0.1303 -0.0595 -0.2016
 4884TIP3    H136067   5.338   2.485  11.294 -1.0669 -1.2089 -1.8692
 4884TIP3    H236068   5.193   2.456  11.328 -0.2104  0.1188  4.0075
 4885TIP3   OH236069   3.193   4.727   2.697  0.0223 -0.5393 -0.7766
 4885TIP3    H136070   3.210   4.687   2.612  1.9562 -0.7109 -0.3675
 4885TIP3    H236071   3.228   4.816   2.689 -0.8522 -0.1628 -0.5179
 4886TIP3   OH236072   0.163   4.315  13.681  0.2619 -0.0737  0.1848
 4886TIP3    H136073   0.105   4.362  13.741 -1.3172 -1.3654 -0.2456
 4886TIP3    H236074   0.215   4.258  13.738  1.4804  1.3971  0.6142
 4887TIP3   OH236075   1.504   5.815   4.951  0.3894  0.1316 -0.7088
 4887TIP3    H136076   1.510   5.901   4.993  0.9484 -0.5134  0.5815
 4887TIP3    H236077   1.584   5.809   4.899  0.5871  0.2077 -0.4182
 4888TIP3   OH236078   3.014   4.083  15.926  0.2013  0.3525 -0.2205
 4888TIP3    H136079   2.926   4.062  15.956 -0.1151  2.0865  0.1674
 4888TIP3    H236080   3.070   4.018  15.970 -1.0674 -2.7701 -2.7988
 4889TIP3   OH236081   1.563   0.267  11.499 -0.1808  0.0805  0.1822
 4889TIP3    H136082   1.565   0.175  11.526 -0.2501  0.1999  0.6051
 4889TIP3    H236083   1.630   0.273  11.432 -1.1089 -0.5772 -0.8348
 4890TIP3   OH236084   2.620   5.112   2.751 -0.2550 -0.0788  0.0682
 4890TIP3    H136085   2.569   5.075   2.823 -1.1418 -0.1244 -0.5732
 4890TIP3    H236086   2.579   5.197   2.733 -0.6831 -0.5134 -1.0549
 4891TIP3   OH236087   2.429   2.818  12.158 -0.0803 -0.3635 -0.0958
 4891TIP3    H136088   2.492   2.766  12.208  0.8330  1.3885  0.6640
 4891TIP3    H236089   2.422   2.773  12.074 -0.1463 -2.2769  0.8731
 4892TIP3   OH236090   3.228   0.105   1.710  0.4849  0.2462 -0.2845
 4892TIP3    H136091   3.157   0.148   1.662  0.9832  1.6187  0.1678
 4892TIP3    H236092   3.241   0.159   1.788 -0.2325 -1.8788  1.3945
 4893TIP3   OH236093   6.739   0.829   0.929  0.7943 -0.0539 -0.3442
 4893TIP3    H136094   6.773   0.767   0.993  0.7069 -0.5816 -0.8035
 4893TIP3    H236095   6.712   0.905   0.982  0.5729 -0.5400  0.2615
 4894TIP3   OH236096   5.391   3.806  11.685 -0.1910 -0.3227 -0.1955
 4894TIP3    H136097   5.351   3.734  11.734 -1.4623 -0.1008 -0.8803
 4894TIP3    H236098   5.482   3.779  11.674 -0.4950 -1.5359  0.1275
 4895TIP3   OH236099   4.322   5.006  11.240  0.0658  0.6102  0.4827
 4895TIP3    H136100   4.237   4.993  11.282 -0.8825 -0.1580 -1.5293
 4895TIP3    H236101   4.301   5.056  11.161  1.4351  0.1412 -0.1971
 4896TIP3   OH236102   4.738   5.234  16.726  0.3513  0.0379  0.1364
 4896TIP3    H136103   4.782   5.300  16.672  0.9709 -0.6864 -0.2671
 4896TIP3    H236104   4.804   5.166  16.740 -0.1017 -0.2373  1.0206
 4897TIP3   OH236105   0.178   5.936   3.197  0.3540  0.5931 -0.0009
 4897TIP3    H136106   0.126   5.988   3.257 -0.1818 -0.8338  0.8186
 4897TIP3    H236107   0.196   5.855   3.245  0.3067 -0.3944 -1.6005
 4898TIP3   OH236108   2.168   1.642  16.648  0.4692 -0.6719 -0.0583
 4898TIP3    H136109   2.158   1.587  16.726  1.0471 -0.5149  0.1341
 4898TIP3    H236110   2.246   1.608  16.604 -0.0258 -0.9492 -0.7336
 4899TIP3   OH236111   3.766   3.697  10.327  0.2773  0.1913 -0.8310
 4899TIP3    H136112   3.854   3.673  10.356 -0.6205  0.3907  2.4647
 4899TIP3    H236113   3.769   3.792  10.317 -0.1214  0.5655  1.8911
 4900TIP3   OH236114   3.959   5.824  15.476 -0.3486 -0.1196 -0.1197
 4900TIP3    H136115   3.933   5.816  15.567 -0.2825  0.3195 -0.0566
 4900TIP3    H236116   4.003   5.909  15.471  1.3043 -0.9466 -0.1730
 4901TIP3   OH236117   2.615   4.939  13.462 -0.6613  0.6024 -0.0150
 4901TIP3    H136118   2.696   4.989  13.457  0.3715 -1.0106 -0.3404
 4901TIP3    H236119   2.617   4.899  13.549 -0.6302 -0.1728 -0.3588
 4902TIP3   OH236120   1.793   1.037  12.230 -0.0033  0.1574 -0.2140
 4902TIP3    H136121   1.774   0.993  12.147  0.1622  1.0725 -0.7513
 4902TIP3    H236122   1.749   0.984  12.296  0.6199 -1.1148 -0.7694
 4903TIP3   OH236123   6.539   5.708   3.706  0.3065  0.3576 -0.1537
 4903TIP3    H136124   6.576   5.791   3.674  0.0425  0.5701  0.0866
 4903TIP3    H236125   6.459   5.734   3.752 -0.7993 -0.1927 -1.6701
 4904TIP3   OH236126   5.365   1.501   1.297 -0.4173  0.0135  0.5560
 4904TIP3    H136127   5.276   1.535   1.289 -0.8295 -0.9282  0.9994
 4904TIP3    H236128   5.419   1.566   1.252 -1.2842  0.7538  0.5467
 4905TIP3   OH236129   5.343   3.075  13.304 -0.9023 -0.2997 -0.1928
 4905TIP3    H136130   5.367   3.073  13.212 -0.2361 -1.2563 -0.0175
 4905TIP3    H236131   5.420   3.111  13.348 -0.8506 -0.7461  0.0866
 4906TIP3   OH236132   4.122   4.188  13.380  0.2541  0.1775 -0.1274
 4906TIP3    H136133   4.128   4.274  13.421  0.8889  0.1611 -0.1817
 4906TIP3    H236134   4.210   4.151  13.386  0.8048  0.8061 -2.8908
 4907TIP3   OH236135   4.658   5.748  12.531  0.3069 -0.2493  0.8537
 4907TIP3    H136136   4.586   5.781  12.586 -1.3790 -0.1262 -1.2766
 4907TIP3    H236137   4.721   5.820  12.528 -0.6593  0.6179  0.8298
 4908TIP3   OH236138   3.309   6.280   5.565  0.1908  0.0432  0.1473
 4908TIP3    H136139   3.285   6.371   5.548  4.7568  1.4153 -0.2338
 4908TIP3    H236140   3.345   6.248   5.482  1.9732 -0.8488  1.2130
 4909TIP3   OH236141   4.278   4.940  15.189  0.5924  0.4297  0.4427
 4909TIP3    H136142   4.291   4.961  15.282 -0.2833  2.0746  0.2197
 4909TIP3    H236143   4.235   5.017  15.153  0.5387 -0.3650 -1.2545
 4910TIP3   OH236144   2.420   2.139   4.603  0.4377  0.0892  0.3806
 4910TIP3    H136145   2.492   2.125   4.542 -0.0199  1.9514 -0.6805
 4910TIP3    H236146   2.437   2.078   4.675  2.4182 -0.3319 -0.3764
 4911TIP3   OH236147   2.438   4.384  12.890 -0.4740  0.3828  0.1282
 4911TIP3    H136148   2.444   4.451  12.958  0.0620  0.1072  0.3606
 4911TIP3    H236149   2.411   4.431  12.812  2.2375  1.3108 -0.3451
 4912TIP3   OH236150   3.501   0.270   3.634  0.2275 -0.2741 -0.2059
 4912TIP3    H136151   3.480   0.199   3.694 -1.1093  1.0356  0.9824
 4912TIP3    H236152   3.504   0.348   3.690  3.6309  0.3876 -1.1181
 4913TIP3   OH236153   1.543   3.801  16.277 -0.2375 -0.0763  0.4729
 4913TIP3    H136154   1.631   3.779  16.247 -1.5416 -1.0770 -3.1337
 4913TIP3    H236155   1.540   3.897  16.273  0.7318 -0.0156  0.8866
 4914TIP3   OH236156   2.202   2.778   2.882 -0.3467  0.1255  0.3397
 4914TIP3    H136157   2.251   2.857   2.859 -0.7366 -0.1060 -1.5177
 4914TIP3    H236158   2.237   2.711   2.824 -2.8934  0.0062 -1.2375
 4915TIP3   OH236159   6.377   2.834   0.529  0.2308 -0.3152  0.0144
 4915TIP3    H136160   6.316   2.880   0.471  0.4695 -1.8809 -1.5787
 4915TIP3    H236161   6.394   2.751   0.484  1.9927 -0.7560  1.3975
 4916TIP3   OH236162   4.092   2.745  15.629 -0.2389 -0.2076 -0.6758
 4916TIP3    H136163   4.108   2.836  15.653 -0.8877 -0.0299 -0.8875
 4916TIP3    H236164   4.009   2.747  15.581  0.4212 -0.7238 -1.8828
 4917TIP3   OH236165   1.281   5.940   0.326 -0.0511  0.1813 -0.5628
 4917TIP3    H136166   1.307   5.926   0.235 -1.7450 -0.3241 -0.9993
 4917TIP3    H236167   1.191   5.973   0.320  0.4226  1.8899  0.8718
 4918TIP3   OH236168   0.098   6.474   3.195  0.2601  0.2873 -0.3959
 4918TIP3    H136169   0.025   6.499   3.139  0.4451 -0.9393 -1.2271
 4918TIP3    H236170   0.072   6.501   3.283 -1.1990 -0.1206 -0.6783
 4919TIP3   OH236171   0.000   1.764  13.577 -0.0310 -0.2369 -0.8088
 4919TIP3    H136172   0.054   1.752  13.498 -0.2239 -0.5939 -0.8904
 4919TIP3    H236173  -0.045   1.847  13.562 -1.0684 -0.9216 -1.6881
 4920TIP3   OH236174   5.954   3.595  14.895 -1.3308 -0.2040  0.0940
 4920TIP3    H136175   5.876   3.543  14.915 -0.3042 -1.0611  2.2661
 4920TIP3    H236176   6.027   3.533  14.903 -0.3201  0.8569 -0.5856
 4921TIP3   OH236177   0.372   5.076  14.849 -0.5545  0.5889  0.2003
 4921TIP3    H136178   0.397   4.986  14.829  0.2111  0.6975  0.6214
 4921TIP3    H236179   0.428   5.130  14.792 -2.2714  0.7838 -1.3929
 4922TIP3   OH236180   2.890   6.715   5.812  0.0684  0.0785  0.4036
 4922TIP3    H136181   2.909   6.711   5.718  0.0707 -0.8669  0.4325
 4922TIP3    H236182   2.813   6.659   5.823 -0.4639  0.8871  0.8392
 4923TIP3   OH236183   0.854   3.504   6.009  0.1127 -0.3393 -0.3053
 4923TIP3    H136184   0.800   3.426   6.021 -0.4489  0.0426 -0.2945
 4923TIP3    H236185   0.938   3.482   6.048  0.2522 -1.2532 -1.0841
 4924TIP3   OH236186   5.487   1.066   5.086 -0.3101  0.8911 -0.1747
 4924TIP3    H136187   5.448   1.038   5.004 -3.2451 -0.5548  1.5711
 4924TIP3    H236188   5.580   1.046   5.077 -0.4669  1.1008 -3.1959
 4925TIP3   OH236189   2.943   4.776  13.515  0.1050  0.2858 -0.3590
 4925TIP3    H136190   2.945   4.682  13.494  1.1530  0.5441 -1.5076
 4925TIP3    H236191   3.016   4.789  13.575  0.9587  0.6207 -1.4389
 4926TIP3   OH236192   2.468   1.223   3.481 -0.1889 -0.2799  0.0941
 4926TIP3    H136193   2.390   1.203   3.429 -0.4363 -0.1395  0.4069
 4926TIP3    H236194   2.533   1.251   3.417 -0.1943 -0.9930 -0.2337
 4927TIP3   OH236195   0.877   6.478  11.608 -0.2363 -0.3896 -0.4574
 4927TIP3    H136196   0.855   6.387  11.587  0.5581 -1.1566  1.6757
 4927TIP3    H236197   0.973   6.481  11.606 -0.2326  0.2034  0.1553
 4928TIP3   OH236198   4.899   2.372   3.808 -0.2376  0.0924  0.0890
 4928TIP3    H136199   4.987   2.408   3.798 -0.1630  0.1473  0.9165
 4928TIP3    H236200   4.844   2.427   3.752 -0.1643  1.6199  1.4579
 4929TIP3   OH236201   2.837   6.510  15.113  0.3828 -0.4756 -0.0997
 4929TIP3    H136202   2.875   6.529  15.027 -0.3508 -0.5929 -0.4596
 4929TIP3    H236203   2.785   6.431  15.099 -1.9078  0.9711 -0.2171
 4930TIP3   OH236204   1.562   3.546  13.509  0.5250  0.4759  0.4688
 4930TIP3    H136205   1.555   3.528  13.603 -0.3502 -0.5632  0.2264
 4930TIP3    H236206   1.549   3.461  13.467  2.2275  0.6688 -0.5744
 4931TIP3   OH236207   4.790   4.729   3.544 -0.6099  0.6360 -0.4993
 4931TIP3    H136208   4.751   4.701   3.461  0.5364 -0.8551 -0.5930
 4931TIP3    H236209   4.881   4.750   3.522  0.2239 -1.4614  0.6003
 4932TIP3   OH236210   2.246   2.146   4.398  1.1515 -0.1527  0.5177
 4932TIP3    H136211   2.263   2.062   4.355  1.7156 -0.3044  1.0263
 4932TIP3    H236212   2.298   2.143   4.479  0.0428  0.0930  1.2613
 4933TIP3   OH236213   3.593   2.718  10.864  0.4354  0.0251 -0.2146
 4933TIP3    H136214   3.568   2.663  10.938 -1.3179  1.9666  0.7456
 4933TIP3    H236215   3.685   2.738  10.879 -0.0890  1.1233  2.0445
 4934TIP3   OH236216   3.166   4.513  10.462  0.5738 -0.3070 -0.4662
 4934TIP3    H136217   3.194   4.533  10.551  0.8012 -1.3020 -0.3119
 4934TIP3    H236218   3.097   4.577  10.444 -0.2146 -0.7816  0.7986
 4935TIP3   OH236219   4.238   4.840  10.664 -0.0440  0.0648  0.3264
 4935TIP3    H136220   4.199   4.755  10.684  0.3504 -0.3821 -0.6950
 4935TIP3    H236221   4.332   4.827  10.674  0.0015  0.4748  0.4698
 4936TIP3   OH236222   2.045   0.015  14.135  0.4448  0.5557  0.1114
 4936TIP3    H136223   2.024   0.061  14.054  2.1503  0.9336 -0.1400
 4936TIP3    H236224   2.059   0.084  14.200  0.6899  0.3112  0.3213
 4937TIP3   OH236225   2.740   4.389   3.539 -0.0324  0.1088 -0.5786
 4937TIP3    H136226   2.741   4.358   3.448 -3.1298 -2.5327  0.0931
 4937TIP3    H236227   2.652   4.426   3.551 -0.7072 -1.9987  1.9384
 4938TIP3   OH236228   5.111   3.933  14.391  0.1541  0.5104 -0.3244
 4938TIP3    H136229   5.196   3.921  14.347  1.0993  1.4411  1.1466
 4938TIP3    H236230   5.124   4.010  14.446 -1.0206 -0.5093  1.4561
 4939TIP3   OH236231   4.108   2.032   0.705 -0.0909 -1.1740  0.6176
 4939TIP3    H136232   4.112   1.942   0.675  0.7614 -0.4018 -1.8825
 4939TIP3    H236233   4.196   2.067   0.688 -0.1033 -0.0999  2.4433
 4940TIP3   OH236234   1.936   1.750  14.442 -0.3948  0.2650  0.3074
 4940TIP3    H136235   1.938   1.663  14.403 -0.3419  0.1874  0.4795
 4940TIP3    H236236   1.945   1.734  14.536  0.5906  0.5130  0.2644
 4941TIP3   OH236237   0.752   5.919  13.956  0.4803 -0.2392 -0.3610
 4941TIP3    H136238   0.818   5.950  14.018 -0.7016  1.2740  0.1889
 4941TIP3    H236239   0.669   5.953  13.989 -0.6462 -2.2816 -0.9018
 4942TIP3   OH236240   4.543   0.616   4.936 -0.0271  0.1164  0.3196
 4942TIP3    H136241   4.509   0.705   4.951  0.7827  0.4921 -0.0049
 4942TIP3    H236242   4.490   0.581   4.865 -1.4310 -0.2794  1.5260
 4943TIP3   OH236243   1.062   5.868   2.853  0.4142  0.2600  0.5158
 4943TIP3    H136244   1.137   5.836   2.902  1.5420 -0.0682 -1.3240
 4943TIP3    H236245   1.087   5.858   2.761 -1.8905  0.1300 -0.1687
 4944TIP3   OH236246   5.272   5.216  16.182 -0.4699 -0.1679 -0.5513
 4944TIP3    H136247   5.296   5.269  16.258 -1.3084 -1.1832  0.4654
 4944TIP3    H236248   5.199   5.263  16.142 -2.7930 -1.5763  1.6956
 4945TIP3   OH236249   2.340   0.881  16.168 -0.1927  0.4688  0.4348
 4945TIP3    H136250   2.420   0.847  16.127 -0.4094  0.5710 -0.0843
 4945TIP3    H236251   2.297   0.932  16.099 -0.8160  0.2328  0.6360
 4946TIP3   OH236252   6.718   2.726  10.973 -0.4222  0.4726  0.3905
 4946TIP3    H136253   6.735   2.786  11.046 -1.7201  2.7445 -1.0659
 4946TIP3    H236254   6.795   2.736  10.916 -0.0726 -0.2151  0.7303
 4947TIP3   OH236255   2.377   2.408   5.171  0.3452  0.3609  0.0477
 4947TIP3    H136256   2.394   2.342   5.238  1.8621  0.1384 -0.5360
 4947TIP3    H236257   2.306   2.461   5.208 -0.9843 -1.6219  0.4765
 4948TIP3   OH236258   6.300   5.858  14.414  0.4186 -0.1168 -0.1687
 4948TIP3    H136259   6.323   5.946  14.381  1.8889 -0.0626  0.8995
 4948TIP3    H236260   6.331   5.858  14.505 -1.0486 -1.2037  0.3582
 4949TIP3   OH236261   2.747   2.434   0.945  0.1040  0.0004 -0.5686
 4949TIP3    H136262   2.839   2.416   0.930 -0.1369 -0.7688 -1.2436
 4949TIP3    H236263   2.721   2.491   0.873  0.0774  0.2959 -0.3252
 4950TIP3   OH236264   0.379   6.016  11.933 -0.1818 -0.3989 -0.1124
 4950TIP3    H136265   0.348   5.932  11.900 -1.9709  0.2625 -0.2139
 4950TIP3    H236266   0.347   6.019  12.024 -0.7399  0.4601 -0.3302
 4951TIP3   OH236267   2.422   6.564  16.487  0.3125  0.3685 -0.2185
 4951TIP3    H136268   2.459   6.475  16.487 -1.2923 -0.4018 -2.6525
 4951TIP3    H236269   2.328   6.550  16.475  0.1760  2.3827 -2.0296
 4952TIP3   OH236270   6.367   4.458   5.104 -0.9817 -0.0612 -0.2543
 4952TIP3    H136271   6.400   4.500   5.024  0.2789 -1.3163 -0.4279
 4952TIP3    H236272   6.320   4.380   5.073  0.0221 -0.8836  0.2253
 4953TIP3   OH236273   5.841   5.845  13.264  0.0795  0.4031 -0.0781
 4953TIP3    H136274   5.750   5.818  13.275 -0.8986  3.1860 -0.3016
 4953TIP3    H236275   5.850   5.861  13.170  0.6779  0.4840 -0.0125
 4954TIP3   OH236276   3.740   4.875  16.878 -0.6632  0.0391 -0.1129
 4954TIP3    H136277   3.645   4.865  16.884 -0.7433 -0.6052 -1.8886
 4954TIP3    H236278   3.752   4.955  16.826 -0.1953  0.7944  1.1113
 4955TIP3   OH236279   1.987   2.631   3.638  0.5884 -0.0137 -0.2975
 4955TIP3    H136280   2.056   2.692   3.663 -0.0516  0.0323  1.5761
 4955TIP3    H236281   1.910   2.662   3.686 -0.0395 -1.5916 -0.2250
 4956TIP3   OH236282   3.236   0.602  14.120  0.1736  0.3334 -0.1765
 4956TIP3    H136283   3.244   0.641  14.207 -0.8548 -2.5634  1.3651
 4956TIP3    H236284   3.283   0.519  14.126 -2.5185 -1.4256 -1.3279
 4957TIP3   OH236285   4.872   4.893  14.433  0.2445 -0.1235 -0.3355
 4957TIP3    H136286   4.874   4.972  14.380  1.1733 -0.3241 -0.6246
 4957TIP3    H236287   4.963   4.862  14.434  0.2737 -0.1167  1.3936
 4958TIP3   OH236288   4.624   4.399   3.593 -0.0969 -0.1947 -0.3914
 4958TIP3    H136289   4.635   4.342   3.517 -0.6904  1.4415 -1.7671
 4958TIP3    H236290   4.561   4.354   3.648  2.6757 -2.9902  0.8209
 4959TIP3   OH236291   4.492   1.414   2.634  0.5952  0.3166 -0.0973
 4959TIP3    H136292   4.506   1.452   2.547 -0.5327  0.4415 -0.2398
 4959TIP3    H236293   4.439   1.336   2.618 -0.8007  1.0840  0.5739
 4960TIP3   OH236294   5.637   3.964  12.695 -0.0633 -0.0109 -0.0094
 4960TIP3    H136295   5.715   4.011  12.725  0.2832 -0.7540  0.2761
 4960TIP3    H236296   5.574   3.974  12.766 -0.9773  2.2521 -1.0287
 4961TIP3   OH236297   2.684   5.803   5.306 -0.1055  0.2080  0.7234
 4961TIP3    H136298   2.589   5.791   5.296  0.2788 -3.2168  0.0556
 4961TIP3    H236299   2.705   5.762   5.389  0.8434  0.6814  0.7306
 4962TIP3   OH236300   2.370   2.128   2.505 -0.8368  0.6173  0.3232
 4962TIP3    H136301   2.364   2.141   2.411  0.2275 -0.4163  0.0895
 4962TIP3    H236302   2.279   2.128   2.535 -1.2928 -0.6003 -0.9348
 4963TIP3   OH236303   1.705   0.898  14.930  0.0396  0.5026 -0.1320
 4963TIP3    H136304   1.679   0.814  14.968  0.9697 -0.6823 -1.9536
 4963TIP3    H236305   1.623   0.941  14.906 -0.4276 -0.3112  0.0009
 4964TIP3   OH236306   1.304   5.138  16.023 -0.5370  0.3901  0.0046
 4964TIP3    H136307   1.339   5.154  15.935  0.2150  1.2460  0.4414
 4964TIP3    H236308   1.268   5.222  16.051  1.3636  0.8082  1.4171
 4965TIP3   OH236309   6.370   2.486  13.431  0.1401  0.2759 -0.0779
 4965TIP3    H136310   6.410   2.543  13.496 -0.3572  0.5857 -0.0363
 4965TIP3    H236311   6.278   2.481  13.457 -0.0188  0.2372 -0.6407
 4966TIP3   OH236312   6.344   6.625  12.970  0.9554 -0.2020  0.1525
 4966TIP3    H136313   6.269   6.684  12.981  0.2438 -0.4214 -2.6456
 4966TIP3    H236314   6.369   6.601  13.059 -0.6506  1.9028  1.2734
 4967TIP3   OH236315   4.443   1.485   3.538  0.0800 -0.0380  0.7151
 4967TIP3    H136316   4.395   1.424   3.595  1.6401 -1.5189  0.5104
 4967TIP3    H236317   4.498   1.536   3.597 -0.8068  0.8144  0.8295
 4968TIP3   OH236318   4.087   4.216   5.166  0.4253 -0.1281 -0.0672
 4968TIP3    H136319   4.134   4.298   5.179 -1.0971  0.7952 -0.0934
 4968TIP3    H236320   4.113   4.187   5.079  0.3356  0.7961 -0.4137
 4969TIP3   OH236321   2.148   6.287  14.564  0.3909 -0.2380  0.4384
 4969TIP3    H136322   2.159   6.372  14.521  2.3734 -0.6174  0.0526
 4969TIP3    H236323   2.214   6.287  14.634 -1.8612 -0.1781  2.6747
 4970TIP3   OH236324   3.326   4.167   2.402 -0.4973  0.4271  0.0392
 4970TIP3    H136325   3.408   4.126   2.375 -1.0157  1.0912 -2.8886
 4970TIP3    H236326   3.258   4.105   2.379 -0.9833  0.9507  0.0248
 4971TIP3   OH236327   4.157   5.975   6.132 -0.1306 -0.2383  0.1559
 4971TIP3    H136328   4.109   5.895   6.152 -0.2644  0.1801  1.6459
 4971TIP3    H236329   4.249   5.952   6.143 -0.0605 -0.5795 -0.9831
 4972TIP3   OH236330   3.539   5.622  10.547  0.3781  0.2389 -0.0962
 4972TIP3    H136331   3.598   5.645  10.475  2.6244  1.2680  1.9679
 4972TIP3    H236332   3.531   5.702  10.599 -0.9866 -0.5448  0.9879
 4973TIP3   OH236333   3.813   3.314  12.908 -0.6899 -0.2383 -0.2319
 4973TIP3    H136334   3.824   3.409  12.904 -0.9020 -0.2032  0.0196
 4973TIP3    H236335   3.901   3.279  12.894 -0.4094  0.0194  0.8073
 4974TIP3   OH236336   2.663   1.700  14.570 -0.2494  0.4694  0.7645
 4974TIP3    H136337   2.695   1.756  14.640 -2.0231  0.1676  1.8800
 4974TIP3    H236338   2.670   1.753  14.491 -1.1430  1.9887  1.6620
 4975TIP3   OH236339   6.188   2.328  11.647  0.5293  0.1880 -0.1847
 4975TIP3    H136340   6.116   2.334  11.584  1.5968  1.4685 -1.3360
 4975TIP3    H236341   6.160   2.383  11.720 -0.7109 -1.2931  0.5071
 4976TIP3   OH236342   1.551   3.192   5.092 -0.4490 -0.5784  0.1886
 4976TIP3    H136343   1.547   3.136   5.014  2.1250 -3.1122  1.6973
 4976TIP3    H236344   1.529   3.279   5.059  0.0700 -1.5779 -3.2750
 4977TIP3   OH236345   5.396   0.632   5.540 -0.4099 -0.1783 -0.3891
 4977TIP3    H136346   5.309   0.600   5.564  0.0896  0.4231  2.6608
 4977TIP3    H236347   5.448   0.553   5.528 -0.8986 -0.5349 -0.1925
 4978TIP3   OH236348   0.514   0.427  13.059 -0.2878  0.1741 -0.0647
 4978TIP3    H136349   0.523   0.507  13.007 -0.5916 -0.0547 -0.4836
 4978TIP3    H236350   0.448   0.376  13.012  0.9842 -0.9835 -0.6627
 4979TIP3   OH236351   5.866   4.832   3.551 -0.3788  0.9179  0.4813
 4979TIP3    H136352   5.923   4.898   3.590  1.2101 -0.4782  0.6752
 4979TIP3    H236353   5.891   4.830   3.458  0.4077 -0.1473  0.6909
 4980TIP3   OH236354   6.032   2.851   3.149 -0.1627 -0.0381 -0.2642
 4980TIP3    H136355   5.937   2.838   3.149 -0.3533  1.1277  1.1615
 4980TIP3    H236356   6.053   2.875   3.239  1.5264 -0.4814 -0.5146
 4981TIP3   OH236357   4.282   2.568  16.035 -0.1422  0.1174 -0.0997
 4981TIP3    H136358   4.193   2.532  16.035 -0.4311  0.8050 -0.7064
 4981TIP3    H236359   4.296   2.598  15.945  1.2036 -1.1479 -0.3422
 4982TIP3   OH236360   6.335   6.554  14.077 -0.7439  0.0566  0.4193
 4982TIP3    H136361   6.401   6.588  14.017 -0.7963 -1.2867 -0.4353
 4982TIP3    H236362   6.252   6.576  14.036 -0.8030  0.2292  0.6305
 4983TIP3   OH236363   4.830   1.418   2.023  0.2008 -0.2591  0.5084
 4983TIP3    H136364   4.735   1.424   2.034 -0.0081  1.2907 -1.3773
 4983TIP3    H236365   4.841   1.356   1.950  0.7015 -0.9844  1.1899
 4984TIP3   OH236366   4.355   0.922  13.112 -0.3200  0.0148 -0.5330
 4984TIP3    H136367   4.279   0.914  13.168 -2.6422  0.1502 -3.4161
 4984TIP3    H236368   4.346   1.007  13.070  0.3823 -0.6862 -2.2317
 4985TIP3   OH236369   0.886   2.922   1.547  0.6817 -0.1951  0.4137
 4985TIP3    H136370   0.858   2.873   1.624  0.0977 -0.0400  0.3020
 4985TIP3    H236371   0.874   2.862   1.474 -0.3410  0.2145  0.2350
 4986TIP3   OH236372   1.136   0.600   3.904 -0.4657  0.3386 -0.0085
 4986TIP3    H136373   1.122   0.650   3.984  3.1911 -0.8245  1.5605
 4986TIP3    H236374   1.087   0.519   3.917  0.5098 -0.0622  1.3803
 4987TIP3   OH236375   5.261   2.962  11.414 -0.3601 -0.0074 -0.1206
 4987TIP3    H136376   5.270   2.956  11.318  0.5376 -0.2211 -0.0340
 4987TIP3    H236377   5.325   3.028  11.440  1.1863 -1.6930  0.5592
 4988TIP3   OH236378   1.307   1.072   4.098  0.0479  0.0199  0.1117
 4988TIP3    H136379   1.320   0.983   4.130  0.4239  0.0264 -0.0187
 4988TIP3    H236380   1.334   1.128   4.171 -2.6315  0.0655  1.2167
 4989TIP3   OH236381   0.373   0.987   3.948 -0.2286 -1.1094  0.0553
 4989TIP3    H136382   0.300   1.048   3.958 -0.3701 -0.9564 -1.6125
 4989TIP3    H236383   0.332   0.907   3.915  0.0321 -1.9568  1.6898
 4990TIP3   OH236384   6.477   5.946   0.057 -0.1721  0.4140  0.7404
 4990TIP3    H136385   6.467   5.856   0.089 -3.7316  0.7104  0.8756
 4990TIP3    H236386   6.511   5.994   0.132  0.8701 -0.6327  0.9670
 4991TIP3   OH236387   5.089   3.875  10.763  0.1836  0.0240 -0.0927
 4991TIP3    H136388   5.097   3.877  10.858  1.2211  1.1626 -0.1787
 4991TIP3    H236389   5.083   3.782  10.741  0.7764 -0.2934  1.0275
 4992TIP3   OH236390   3.192   1.465   5.988  0.0829  0.0483  0.1311
 4992TIP3    H136391   3.216   1.546   6.033  1.6814 -1.0994  1.4865
 4992TIP3    H236392   3.163   1.406   6.058  0.5736 -1.0783 -0.5798
 4993TIP3   OH236393   3.662   4.529  16.031 -0.2942 -0.1867  0.0543
 4993TIP3    H136394   3.597   4.477  15.984 -0.4167 -0.5550  0.6142
 4993TIP3    H236395   3.719   4.465  16.073 -0.3317  0.1247  0.5971
 4994TIP3   OH236396   4.635   0.848   6.033 -0.3842  0.7750 -0.7582
 4994TIP3    H136397   4.546   0.834   6.000 -0.2335 -1.4830 -0.3858
 4994TIP3    H236398   4.637   0.800   6.116  1.5495 -0.3970 -1.4131
 4995TIP3   OH236399   4.094   2.629   4.072 -0.3874  0.2407  0.1419
 4995TIP3    H136400   4.151   2.698   4.106  0.7238 -0.0310 -1.0714
 4995TIP3    H236401   4.143   2.548   4.086 -0.0488  0.0847 -1.6841
 4996TIP3   OH236402   5.118   5.731   6.265  0.1295  0.1909 -0.3526
 4996TIP3    H136403   5.093   5.737   6.357  0.2621  0.5342 -0.3385
 4996TIP3    H236404   5.166   5.648   6.258 -0.1197  0.0304 -0.1711
 4997TIP3   OH236405   1.219   5.782  14.042 -0.4553  0.2349 -0.1278
 4997TIP3    H136406   1.169   5.718  13.991  1.9736  1.6264 -4.8126
 4997TIP3    H236407   1.166   5.861  14.039 -0.8081  0.0227  0.4794
 4998TIP3   OH236408   4.028   1.388  11.397 -0.3831  0.2804  0.1541
 4998TIP3    H136409   4.061   1.405  11.485  1.3455  2.7791 -0.8616
 4998TIP3    H236410   3.934   1.404  11.402 -0.3313  0.2263  1.5743
 4999TIP3   OH236411   0.741   4.744   3.042  0.4968 -0.0910  0.5759
 4999TIP3    H136412   0.745   4.826   3.091  2.1561  0.6195 -0.6585
 4999TIP3    H236413   0.649   4.739   3.014  0.5994  2.0079 -0.3666
 5000TIP3   OH236414   2.070   6.249  10.498  0.2759  0.1625  0.3545
 5000TIP3    H136415   2.032   6.274  10.582  2.7419  0.5894  1.4111
 5000TIP3    H236416   2.110   6.164  10.514 -0.5056 -0.4533 -0.8317
 5001TIP3   OH236417   3.809   3.617   1.453  0.3215 -0.0181  0.0012
 5001TIP3    H136418   3.833   3.614   1.545 -1.0165  0.5691  0.3909
 5001TIP3    H236419   3.795   3.710   1.435  0.9338 -0.0820 -0.9040
 5002TIP3   OH236420   5.041   4.236  12.008 -0.2915 -0.3337  0.6672
 5002TIP3    H136421   4.962   4.194  11.972  0.2109 -0.8413  0.1333
 5002TIP3    H236422   5.008   4.316  12.050 -1.0723 -0.4508  0.3100
 5003TIP3   OH236423   4.125   4.297  14.010 -0.3913  0.2263  0.5260
 5003TIP3    H136424   4.106   4.391  14.015 -0.4147  0.1487  2.2502
 5003TIP3    H236425   4.161   4.275  14.095 -0.4424 -1.3639  0.1674
 5004TIP3   OH236426   3.121   3.587   1.194 -1.0522 -0.3939  0.0559
 5004TIP3    H136427   3.086   3.635   1.119 -1.2174 -1.8713 -0.8493
 5004TIP3    H236428   3.044   3.571   1.250 -0.7642  1.6624  1.1693
 5005TIP3   OH236429   6.178   1.523  16.881  0.2834  0.2569  0.0394
 5005TIP3    H136430   6.085   1.503  16.877 -0.0944  1.9070  0.0596
 5005TIP3    H236431   6.214   1.484  16.802 -0.1580 -1.5543  0.6866
 5006TIP3   OH236432   1.969   0.320  15.741 -0.4172  0.0841 -0.4773
 5006TIP3    H136433   1.955   0.378  15.816 -1.2253  0.0255 -0.5761
 5006TIP3    H236434   2.044   0.358  15.696  1.1483 -0.8185  1.2435
 5007TIP3   OH236435   6.397   1.884  14.882  0.1131  0.5533 -0.4827
 5007TIP3    H136436   6.308   1.850  14.897  0.1098  0.6266 -0.3294
 5007TIP3    H236437   6.406   1.955  14.945 -0.3374  1.6764 -1.6441
 5008TIP3   OH236438   4.958   0.371   4.424 -0.2669 -0.3142 -0.2995
 5008TIP3    H136439   5.009   0.438   4.378 -0.3441  0.1338  0.2421
 5008TIP3    H236440   5.018   0.338   4.491 -0.3826 -0.4411 -0.2587
 5009TIP3   OH236441   5.254   3.884   1.159  0.8359 -0.2473  0.4064
 5009TIP3    H136442   5.287   3.807   1.205 -0.0564  0.0847  1.6330
 5009TIP3    H236443   5.330   3.917   1.111  0.9974 -2.4747 -1.0262
 5010TIP3   OH236444   3.294   3.493   0.777  0.0467  0.3695  0.0169
 5010TIP3    H136445   3.313   3.510   0.869 -1.1944  1.8428  0.0416
 5010TIP3    H236446   3.248   3.572   0.747 -1.2901 -0.8626 -1.3440
 5011TIP3   OH236447   2.445   1.546  16.893 -0.1967 -0.6519  0.5117
 5011TIP3    H136448   2.437   1.573  16.985  0.0333 -0.3324  0.4387
 5011TIP3    H236449   2.490   1.462  16.897 -2.2631 -1.8236  0.8407
 5012TIP3   OH236450   0.265   3.367   3.743 -0.0987  0.6935 -0.0452
 5012TIP3    H136451   0.319   3.367   3.663 -1.0070  0.2251 -0.6715
 5012TIP3    H236452   0.255   3.460   3.765  0.6657  0.8034 -0.1129
 5013TIP3   OH236453   2.407   1.702  14.304 -0.5358 -0.2285  0.2416
 5013TIP3    H136454   2.362   1.777  14.345  0.2043  0.5750 -0.3724
 5013TIP3    H236455   2.336   1.649  14.268 -1.0894  0.0374  0.9044
 5014TIP3   OH236456   2.646   0.076   1.040 -0.1373  0.1812  0.3544
 5014TIP3    H136457   2.555   0.056   1.017 -0.4818  0.6206  1.2910
 5014TIP3    H236458   2.690  -0.009   1.036 -0.6742 -0.1015  0.2780
 5015TIP3   OH236459   5.893   1.101  14.857  0.1242 -0.1674  0.1649
 5015TIP3    H136460   5.978   1.144  14.848  0.1553 -0.5214 -1.5558
 5015TIP3    H236461   5.851   1.112  14.771 -1.0911 -1.0023  0.6240
 5016TIP3   OH236462   5.873   3.499   0.591  0.3964  0.3973 -0.0304
 5016TIP3    H136463   5.882   3.411   0.626  1.6064  0.5027 -0.0250
 5016TIP3    H236464   5.905   3.556   0.661  1.3152  0.7120 -0.6938
 5017TIP3   OH236465   1.317   1.839  10.922  0.6772 -0.1034  0.3251
 5017TIP3    H136466   1.227   1.851  10.954  0.9164  0.9655  0.6112
 5017TIP3    H236467   1.349   1.763  10.972  0.4750  0.5031  1.4217
 5018TIP3   OH236468   2.292   4.475   2.477 -0.1357  0.0405  0.4631
 5018TIP3    H136469   2.220   4.472   2.414 -0.4850 -0.1820  0.8657
 5018TIP3    H236470   2.345   4.550   2.449  1.0981 -1.4751 -1.5592
 5019TIP3   OH236471   5.721   0.806   4.711 -0.0719 -0.6339 -0.2867
 5019TIP3    H136472   5.631   0.820   4.741 -0.0111 -2.7872  1.1529
 5019TIP3    H236473   5.768   0.776   4.789  1.5031 -1.1579 -1.3751
 5020TIP3   OH236474   6.734   2.298   3.264  0.1847  0.3888 -0.0407
 5020TIP3    H136475   6.736   2.378   3.211  0.1469  0.7005  0.4197
 5020TIP3    H236476   6.771   2.324   3.349  0.2151 -0.0943  0.0996
 5021TIP3   OH236477   2.110   0.192   2.804  0.5935 -0.6066  0.1482
 5021TIP3    H136478   2.146   0.120   2.855  1.0791 -0.3964  0.1095
 5021TIP3    H236479   2.185   0.249   2.786  0.1709  0.0315  0.3825
 5022TIP3   OH236480   0.888   0.660  15.484  0.1482  0.4348 -0.8565
 5022TIP3    H136481   0.969   0.684  15.527 -0.0367  1.7397 -1.2038
 5022TIP3    H236482   0.913   0.639  15.394 -0.0480  2.1794 -1.3496
 5023TIP3   OH236483   0.600   5.341  15.895 -0.0609 -0.1519 -0.4735
 5023TIP3    H136484   0.514   5.334  15.937  1.8515 -0.1505  3.9141
 5023TIP3    H236485   0.639   5.255  15.906  1.7963  0.8138  0.8695
 5024TIP3   OH236486   6.279   5.760  13.935  0.1301 -0.2346 -0.2155
 5024TIP3    H136487   6.341   5.752  14.008  0.8204 -0.6373 -0.8330
 5024TIP3    H236488   6.307   5.693  13.873  0.2573  0.8519 -1.3636
 5025TIP3   OH236489   2.685   5.120  16.252 -0.1840 -0.1513 -0.4222
 5025TIP3    H136490   2.656   5.054  16.190 -2.1975 -0.9512  1.2306
 5025TIP3    H236491   2.778   5.103  16.264 -0.6435 -2.8125  0.0297
 5026TIP3   OH236492   0.997   4.326   6.459 -0.1277  0.0344 -0.0870
 5026TIP3    H136493   0.943   4.389   6.411  0.7964  0.0239 -1.2194
 5026TIP3    H236494   0.979   4.242   6.417 -0.0422 -0.1417  0.2299
 5027TIP3   OH236495   3.441   2.351  17.195  0.0944  0.5105 -0.0093
 5027TIP3    H136496   3.460   2.444  17.180  0.0571  0.6213  0.6217
 5027TIP3    H236497   3.353   2.350  17.232  0.3745  0.2824  0.6632
 5028TIP3   OH236498   0.407   5.991  16.920 -0.5725  0.2122 -0.4161
 5028TIP3    H136499   0.312   5.982  16.927 -0.5228  0.0609  0.1313
 5028TIP3    H236500   0.421   6.085  16.910 -0.7776  0.2429 -0.4283
 5029TIP3   OH236501   0.421   5.108   2.016  0.1521 -0.5153 -1.0474
 5029TIP3    H136502   0.515   5.125   2.006  0.4306 -1.3165  0.0160
 5029TIP3    H236503   0.408   5.100   2.111 -1.1095  0.1951 -1.1313
 5030TIP3   OH236504   5.354   6.649   0.777 -0.0573  0.2143  0.3641
 5030TIP3    H136505   5.303   6.669   0.698 -0.3937  1.9251  0.9768
 5030TIP3    H236506   5.297   6.591   0.828 -0.8809  1.0921  0.4656
 5031TIP3   OH236507   1.219   1.182  14.834 -0.1279  0.2380  0.2494
 5031TIP3    H136508   1.178   1.268  14.847  0.5236  0.4544  0.9560
 5031TIP3    H236509   1.244   1.181  14.741 -1.3083  0.2749 -0.0888
 5032TIP3   OH236510   5.838   3.040  15.253 -0.3976 -0.3652  0.5083
 5032TIP3    H136511   5.816   2.956  15.293 -0.5362 -0.8532 -0.5482
 5032TIP3    H236512   5.899   3.081  15.314 -0.6486 -1.0469  1.2350
 5033TIP3   OH236513   3.120   1.001   2.895 -0.2884 -0.2146 -0.2570
 5033TIP3    H136514   3.067   1.079   2.878  1.6176  1.4452  0.9841
 5033TIP3    H236515   3.095   0.974   2.983  1.4444  1.1441  0.7287
 5034TIP3   OH236516   1.709   6.073   3.273  0.1736  0.2063 -0.1677
 5034TIP3    H136517   1.646   6.005   3.248 -2.0414  1.2665  2.0726
 5034TIP3    H236518   1.724   6.122   3.192 -1.4686 -0.4266 -0.8971
 5035TIP3   OH236519   6.741   0.263  12.758  0.1149  0.4259  0.4162
 5035TIP3    H136520   6.706   0.349  12.779  3.8285  2.9263 -2.3293
 5035TIP3    H236521   6.696   0.238  12.677  0.0599  0.5122  0.4208
 5036TIP3   OH236522   1.858   0.250  14.997  0.2084 -0.3374  0.2945
 5036TIP3    H136523   1.871   0.327  14.943  2.4438 -0.5514  0.4356
 5036TIP3    H236524   1.947   0.219  15.017 -0.6102 -2.6881  0.6039
 5037TIP3   OH236525   5.472   2.642  14.202 -0.0082 -0.2647  0.2014
 5037TIP3    H136526   5.381   2.670  14.211  0.1941  0.3410  0.4850
 5037TIP3    H236527   5.468   2.547  14.192 -0.6727 -0.2335  0.1342
 5038TIP3   OH236528   1.085   5.542   0.902 -0.2429 -0.4208 -0.4983
 5038TIP3    H136529   1.020   5.581   0.960 -1.0707  0.6420 -2.0720
 5038TIP3    H236530   1.046   5.458   0.875 -0.8162  0.0551 -1.1679
 5039TIP3   OH236531   2.530   6.715  15.770 -0.4317  0.3375  0.0536
 5039TIP3    H136532   2.444   6.756  15.776 -0.8399 -0.6268  1.2422
 5039TIP3    H236533   2.517   6.641  15.711 -0.8257 -0.7224  1.4291
 5040TIP3   OH236534   2.983   6.777  15.474  0.2320 -0.4531  0.6476
 5040TIP3    H136535   2.944   6.836  15.538  2.1763  1.3732  0.2625
 5040TIP3    H236536   3.039   6.719  15.526  0.6586  0.0439  0.7430
 5041TIP3   OH236537   1.809   2.809  11.170  0.3098  0.5289  0.5773
 5041TIP3    H136538   1.786   2.771  11.254 -0.5224 -0.7227 -0.1837
 5041TIP3    H236539   1.883   2.867  11.189  0.7454 -0.4449  1.9992
 5042TIP3   OH236540   3.776   3.648   1.146 -0.1138  0.0927 -0.0247
 5042TIP3    H136541   3.845   3.680   1.089 -1.4396 -0.4245 -2.0267
 5042TIP3    H236542   3.717   3.723   1.158 -0.9253 -0.3489 -1.1020
 5043TIP3   OH236543   0.954   1.407   1.793 -0.0713 -0.0683 -0.0319
 5043TIP3    H136544   0.960   1.322   1.837  0.2599  0.8561  1.8107
 5043TIP3    H236545   1.042   1.424   1.761 -0.2372 -0.5935 -0.7986
 5044TIP3   OH236546   2.449   0.076   4.545  0.0792 -0.1092  0.2963
 5044TIP3    H136547   2.374   0.038   4.500 -0.8901  1.1365  0.8048
 5044TIP3    H236548   2.474   0.151   4.491 -1.1150  1.4251  1.7774
 5045TIP3   OH236549   0.229   4.812   1.673  0.1338 -0.4035 -0.8351
 5045TIP3    H136550   0.233   4.816   1.769 -1.4113  0.0031 -0.7691
 5045TIP3    H236551   0.307   4.860   1.645  0.9969 -1.1473  0.2030
 5046TIP3   OH236552   0.706   0.218   5.476  0.4479  0.0574  0.4246
 5046TIP3    H136553   0.670   0.298   5.515  0.3665 -0.7723  2.1474
 5046TIP3    H236554   0.675   0.219   5.386 -1.3260  0.9226  1.0000
 5047TIP3   OH236555   5.343   1.924  17.092  0.4191  0.4382 -0.1626
 5047TIP3    H136556   5.364   2.017  17.096  1.0987  0.2542  0.9885
 5047TIP3    H236557   5.409   1.881  17.146  0.7346 -0.8441 -1.4852
 5048TIP3   OH236558   1.214   5.896  12.703 -0.3568  0.4219 -0.3956
 5048TIP3    H136559   1.209   5.882  12.608  1.6515  2.4586 -0.8924
 5048TIP3    H236560   1.219   5.808  12.740 -1.4721 -0.4282 -2.1424
 5049TIP3   OH236561   5.978   2.849   1.707 -0.1535 -0.0156 -0.4311
 5049TIP3    H136562   5.893   2.852   1.665 -0.1065  1.3491 -0.4736
 5049TIP3    H236563   6.005   2.757   1.701 -0.9264 -0.1782 -1.7749
 5050TIP3   OH236564   4.400   6.239  11.840  0.4583  0.4110 -0.2470
 5050TIP3    H136565   4.456   6.299  11.889  0.9356 -1.3147  1.4649
 5050TIP3    H236566   4.355   6.294  11.776 -0.0206  2.7634  1.9793
 5051TIP3   OH236567   5.589   0.365   3.342  0.6280 -0.3007  0.0847
 5051TIP3    H136568   5.682   0.352   3.360  0.7288 -2.0005 -1.3636
 5051TIP3    H236569   5.587   0.423   3.265  0.4100  1.0375  1.0631
 5052TIP3   OH236570   5.472   2.748  16.661  0.3221 -0.5157  0.2672
 5052TIP3    H136571   5.462   2.655  16.680 -2.1936 -1.2394 -3.4677
 5052TIP3    H236572   5.411   2.792  16.721 -1.5105 -1.7901 -0.5648
 5053TIP3   OH236573   0.947   1.241   3.420  0.1209  0.3086  0.0819
 5053TIP3    H136574   1.016   1.244   3.354 -1.0047  1.9265 -1.1128
 5053TIP3    H236575   0.868   1.270   3.374 -1.4911 -1.8569  1.2909
 5054TIP3   OH236576   1.719   0.223  16.297  0.4062  0.9228  0.5551
 5054TIP3    H136577   1.654   0.191  16.359 -0.1703  0.5307 -0.2313
 5054TIP3    H236578   1.793   0.251  16.352  0.2386 -0.1554  1.3721
 5055TIP3   OH236579   5.595   6.308   3.198  0.8029 -0.4157 -0.3091
 5055TIP3    H136580   5.585   6.357   3.280  1.6074 -1.3462  0.3746
 5055TIP3    H236581   5.569   6.219   3.220  0.1673 -0.4975 -1.3163
 5056TIP3   OH236582   0.825   3.610  11.620 -0.0936  0.3662 -0.3945
 5056TIP3    H136583   0.743   3.614  11.670  0.2762  0.9561  0.1817
 5056TIP3    H236584   0.830   3.695  11.576  0.4514  0.5233 -0.0344
 5057TIP3   OH236585   2.105   3.264  15.131 -0.0555  0.7606  0.0432
 5057TIP3    H136586   2.019   3.306  15.139 -0.9503 -1.2820  2.6839
 5057TIP3    H236587   2.086   3.174  15.106  1.3660  0.4225  0.1002
 5058TIP3   OH236588   4.800   4.030  11.229  0.5173 -0.1698 -0.1673
 5058TIP3    H136589   4.870   4.039  11.294  2.1046  0.5631 -1.9058
 5058TIP3    H236590   4.842   4.051  11.146 -1.9631  1.0804 -1.1849
 5059TIP3   OH236591   1.600   1.362   5.763 -0.4562  0.4568  0.1870
 5059TIP3    H136592   1.579   1.285   5.817 -0.1960 -0.2287 -0.6672
 5059TIP3    H236593   1.541   1.356   5.688  0.5532  0.2586 -0.6301
 5060TIP3   OH236594   5.534   3.996   5.126  0.1766  0.2643 -0.4745
 5060TIP3    H136595   5.454   3.981   5.076  0.0658 -0.6320 -0.0439
 5060TIP3    H236596   5.505   3.998   5.217  0.7540 -0.9149 -0.2554
 5061TIP3   OH236597   5.757   0.523  12.972 -0.8790  0.2490 -0.2689
 5061TIP3    H136598   5.828   0.587  12.974 -1.5807  1.0409 -0.2878
 5061TIP3    H236599   5.691   0.562  12.915 -2.0135  0.2783  1.0189
 5062TIP3   OH236600   2.438   0.164   6.038  0.1153  0.0507  0.0207
 5062TIP3    H136601   2.525   0.147   6.075 -0.2191  0.5698  1.0938
 5062TIP3    H236602   2.384   0.092   6.070  0.0750 -0.1010 -0.3862
 5063TIP3   OH236603   0.724   3.584   2.326  0.3110 -0.1596 -0.5143
 5063TIP3    H136604   0.654   3.620   2.272  0.4375  2.3944  0.8987
 5063TIP3    H236605   0.793   3.650   2.323  1.4381 -1.2509  0.5237
 5064TIP3   OH236606   1.882   6.106   5.498 -0.3138 -0.2175 -0.4636
 5064TIP3    H136607   1.895   6.016   5.530 -1.0384 -0.4270 -0.7328
 5064TIP3    H236608   1.830   6.149   5.565 -0.0874 -0.0384 -0.4016
 5065TIP3   OH236609   6.145   0.911  10.986  0.0578  0.1641  0.1779
 5065TIP3    H136610   6.234   0.914  11.022  0.0999 -1.5617  0.3039
 5065TIP3    H236611   6.150   0.961  10.905  1.3144 -0.4488 -0.1410
 5066TIP3   OH236612   0.360   3.346   0.034  0.1689 -0.3328  0.1757
 5066TIP3    H136613   0.300   3.272   0.023  0.3281 -0.2819 -1.1528
 5066TIP3    H236614   0.305   3.423   0.024  0.0211 -0.2358  1.4689
 5067TIP3   OH236615   0.556   6.612  15.645 -0.0196 -0.5946  0.1623
 5067TIP3    H136616   0.465   6.634  15.664  0.8179  2.1665  1.5576
 5067TIP3    H236617   0.590   6.578  15.728  0.7726  0.6265  0.3612
 5068TIP3   OH236618   5.713   2.322  13.779 -0.6271  0.4761  0.7426
 5068TIP3    H136619   5.757   2.330  13.695 -0.4879  1.9978  0.9345
 5068TIP3    H236620   5.630   2.279  13.758  0.0325 -0.5113  0.0713
 5069TIP3   OH236621   1.671   5.621   1.256 -0.0431  0.2596 -0.3197
 5069TIP3    H136622   1.585   5.648   1.288  1.1025  3.0725  0.7340
 5069TIP3    H236623   1.678   5.660   1.169  0.7493  1.4866  0.2667
 5070TIP3   OH236624   3.309   5.625   4.804 -0.4698 -0.2877 -0.2084
 5070TIP3    H136625   3.293   5.591   4.892 -0.1054  1.2501  0.4873
 5070TIP3    H236626   3.301   5.548   4.747  0.1053 -1.4846  1.2374
 5071TIP3   OH236627   2.277   1.545   1.362 -0.2641  0.0025  0.2963
 5071TIP3    H136628   2.370   1.531   1.376 -0.3632  0.8027  2.1325
 5071TIP3    H236629   2.261   1.635   1.392 -1.6381 -0.1587  0.1261
 5072TIP3   OH236630   6.129   2.876  14.105  0.3512 -0.2853  0.0733
 5072TIP3    H136631   6.217   2.840  14.111  0.5009  0.1868  0.9183
 5072TIP3    H236632   6.104   2.894  14.196  0.5390  2.3138 -0.3159
 5073TIP3   OH236633   4.502   1.145   0.487 -0.8096 -0.2137 -0.5296
 5073TIP3    H136634   4.484   1.176   0.576  0.3031  0.0852 -0.3995
 5073TIP3    H236635   4.502   1.224   0.433  0.8285 -0.0958 -0.3973
 5074TIP3   OH236636   5.917   3.187  11.431 -0.3076 -0.3616  0.2167
 5074TIP3    H136637   5.941   3.144  11.513 -2.1292 -1.3921  0.2489
 5074TIP3    H236638   5.926   3.119  11.365  0.9513  0.4117 -0.4570
 5075TIP3   OH236639   2.643   0.592  10.121 -0.0180 -0.1527 -0.3543
 5075TIP3    H136640   2.704   0.647  10.170 -1.4798  1.2013  0.0090
 5075TIP3    H236641   2.660   0.612  10.029  0.2257  0.0426 -0.2661
 5076TIP3   OH236642   3.798   2.889   1.590 -0.3301  0.1984 -0.0044
 5076TIP3    H136643   3.800   2.811   1.645 -0.2334  0.0511 -0.2185
 5076TIP3    H236644   3.753   2.862   1.510 -0.1501  0.3158 -0.1455
 5077TIP3   OH236645   2.307   5.874  17.168 -0.0621 -0.7888  0.3992
 5077TIP3    H136646   2.250   5.807  17.205  0.6025 -1.4322  0.2766
 5077TIP3    H236647   2.341   5.922  17.244 -2.0274  0.7027  0.4272
 5078TIP3   OH236648   4.716   1.736   1.891 -0.4609  0.6222 -0.0549
 5078TIP3    H136649   4.651   1.786   1.841 -0.2245 -0.5069 -1.5486
 5078TIP3    H236650   4.673   1.653   1.911  0.6310 -0.3301 -1.4742
 5079TIP3   OH236651   6.052   1.510  13.304  0.5223  0.8520  0.8035
 5079TIP3    H136652   6.141   1.531  13.274  0.4013  1.0763  0.6006
 5079TIP3    H236653   6.060   1.422  13.341  0.8038  0.8218  0.6751
 5080TIP3   OH236654   1.924   5.029  13.391 -0.3040 -0.9871  0.3731
 5080TIP3    H136655   1.944   4.982  13.472 -0.2331  0.3305  1.1623
 5080TIP3    H236656   1.979   4.988  13.325 -0.0906 -1.8568  1.0706
 5081TIP3   OH236657   5.748   4.889   4.002 -0.3330 -0.0398  0.1950
 5081TIP3    H136658   5.728   4.848   3.918  1.5268  1.5393 -1.1156
 5081TIP3    H236659   5.756   4.816   4.064 -1.1512 -1.2865 -1.1147
 5082TIP3   OH236660   4.470   6.265   1.245 -0.6286  0.2159 -0.1296
 5082TIP3    H136661   4.394   6.214   1.272 -1.7587  0.0650 -3.1637
 5082TIP3    H236662   4.545   6.212   1.273 -1.6669 -0.7295  0.9973
 5083TIP3   OH236663   0.674   1.620   5.478 -0.0684  0.4328  0.4300
 5083TIP3    H136664   0.717   1.558   5.419 -1.3806 -0.6858  0.5939
 5083TIP3    H236665   0.730   1.620   5.556 -0.2440 -0.8744  0.5820
 5084TIP3   OH236666   4.080   6.685  15.342  0.0448 -0.0970 -0.1102
 5084TIP3    H136667   4.018   6.756  15.359  0.6790  0.1667  1.1919
 5084TIP3    H236668   4.128   6.713  15.264 -0.6855  0.2163 -0.4619
 5085TIP3   OH236669   6.657   4.265   4.851 -0.6470 -0.5838 -0.3787
 5085TIP3    H136670   6.683   4.198   4.787 -0.8502  0.1443 -1.2494
 5085TIP3    H236671   6.731   4.325   4.853 -0.7920 -0.4123 -0.1949
 5086TIP3   OH236672   3.236   1.692   1.590 -0.2528  0.1998 -0.4857
 5086TIP3    H136673   3.157   1.701   1.536 -1.3298 -0.2783  0.9615
 5086TIP3    H236674   3.214   1.623   1.653  0.5551  1.4567  1.2455
 5087TIP3   OH236675   5.933   6.295  10.588 -0.7251 -0.1562 -0.1209
 5087TIP3    H136676   5.959   6.355  10.658 -0.2146 -0.5950  0.0722
 5087TIP3    H236677   5.895   6.352  10.521  1.7483  0.7055 -0.9203
 5088TIP3   OH236678   3.386   4.183   4.594 -0.2713  0.3361 -0.2122
 5088TIP3    H136679   3.379   4.266   4.642 -0.4085 -0.0733  0.4926
 5088TIP3    H236680   3.480   4.173   4.579 -0.3807  1.5235 -1.9497
 5089TIP3   OH236681   5.368   0.897   2.026  0.0590 -0.1756 -0.3468
 5089TIP3    H136682   5.398   0.982   2.057  0.7752 -0.2878 -0.7190
 5089TIP3    H236683   5.425   0.834   2.069 -0.2647 -0.4527 -0.3168
 5090TIP3   OH236684   1.724   1.348  16.111  0.3461 -0.5949 -0.8526
 5090TIP3    H136685   1.662   1.390  16.050 -1.0707 -0.6223  0.5164
 5090TIP3    H236686   1.738   1.261  16.074 -4.1842 -2.4533  1.0878
 5091TIP3   OH236687   2.464   2.899  17.057  1.0407  0.4545 -0.1416
 5091TIP3    H136688   2.443   2.935  16.970  0.7207 -0.7166 -0.5723
 5091TIP3    H236689   2.494   2.810  17.039  3.1676  0.9311  0.7622
 5092TIP3   OH236690   6.434   1.960  15.531 -0.0875 -0.4828  0.8148
 5092TIP3    H136691   6.398   2.032  15.480 -3.1217 -0.6822  2.4653
 5092TIP3    H236692   6.528   1.965  15.515 -0.6237  0.5381 -3.2879
 5093TIP3   OH236693   1.340   5.242  13.905  0.1540  0.2905  0.2391
 5093TIP3    H136694   1.409   5.207  13.849  1.3640  0.5355  1.5294
 5093TIP3    H236695   1.266   5.183  13.890  0.3039  0.5756 -1.8723
 5094TIP3   OH236696   5.023   0.015  13.743  0.2327  0.1769  0.4069
 5094TIP3    H136697   4.957  -0.040  13.699  0.3936 -1.6478  2.2620
 5094TIP3    H236698   5.051   0.077  13.676 -0.3141 -1.7040 -1.7146
 5095TIP3   OH236699   5.718   3.353   5.153 -0.2203 -0.5517 -0.8269
 5095TIP3    H136700   5.728   3.325   5.062  0.4114 -0.0856 -0.9071
 5095TIP3    H236701   5.800   3.398   5.174 -0.6331 -0.0411 -0.2482
 5096TIP3   OH236702   5.010   2.147  14.320  0.8741  0.5883 -0.9940
 5096TIP3    H136703   5.051   2.062  14.305  0.5446  0.0508  0.9127
 5096TIP3    H236704   4.918   2.127  14.339  0.8237  1.3352 -0.3726
 5097TIP3   OH236705   0.089   3.683   3.458 -0.8533 -0.4905 -0.2263
 5097TIP3    H136706   0.027   3.615   3.485 -0.0697 -1.5844 -1.0621
 5097TIP3    H236707   0.093   3.743   3.532 -0.6249 -2.0371  1.0740
 5098TIP3   OH236708   3.846   6.551  14.527 -0.0926  0.0361 -0.0789
 5098TIP3    H136709   3.818   6.464  14.499  0.2862 -0.3579  0.7125
 5098TIP3    H236710   3.874   6.539  14.618 -0.9987  1.1905  0.3874
 5099TIP3   OH236711   2.780   3.497  15.687 -0.3040 -0.4641 -0.3372
 5099TIP3    H136712   2.709   3.501  15.622 -1.6658 -0.8139  1.0757
 5099TIP3    H236713   2.817   3.409  15.677 -1.5516 -1.0980  0.3792
 5100TIP3   OH236714   2.367   3.056   2.928  0.1602  0.0444 -0.2952
 5100TIP3    H136715   2.413   2.980   2.964 -0.5384 -0.2784 -0.0563
 5100TIP3    H236716   2.404   3.067   2.841  1.5811  0.5882  0.3538
 5101TIP3   OH236717   3.640   6.729  13.166 -0.2212  0.5411  0.2326
 5101TIP3    H136718   3.581   6.690  13.230  0.2501  1.1361  1.0506
 5101TIP3    H236719   3.637   6.670  13.091  0.0250 -0.7566  1.2132
 5102TIP3   OH236720   1.964   2.339  13.932  0.7175  0.0380 -0.3964
 5102TIP3    H136721   1.991   2.399  13.862 -1.0502  1.5735  0.1580
 5102TIP3    H236722   1.880   2.303  13.902  1.1819 -1.2865 -0.1800
 5103TIP3   OH236723   5.052   3.774  15.836 -0.8677 -0.0881 -0.0032
 5103TIP3    H136724   5.015   3.754  15.922 -0.6141  0.1152  0.1566
 5103TIP3    H236725   5.006   3.716  15.775 -1.9789  0.6852  0.0700
 5104TIP3   OH236726   0.246   3.892  16.758 -0.4862  0.0662 -0.0572
 5104TIP3    H136727   0.164   3.927  16.795 -0.4561  2.6726 -2.1615
 5104TIP3    H236728   0.225   3.876  16.666  1.2340  0.3388 -0.5218
 5105TIP3   OH236729   6.286   2.436  15.807  0.1392  0.1945  0.0528
 5105TIP3    H136730   6.259   2.420  15.717  0.3390  0.9466 -0.1430
 5105TIP3    H236731   6.284   2.531  15.817 -1.5648  0.0708  1.3673
 5106TIP3   OH236732   3.874   2.858   3.381 -0.6442 -0.7661 -0.7392
 5106TIP3    H136733   3.819   2.869   3.303 -2.4835  1.5104  0.7455
 5106TIP3    H236734   3.963   2.862   3.347 -1.3718 -1.0629 -2.8599
 5107TIP3   OH236735   5.329   1.027   0.914 -0.8512  0.0202 -0.2283
 5107TIP3    H136736   5.293   1.043   1.001 -1.9307 -1.2452 -0.4143
 5107TIP3    H236737   5.252   1.012   0.859 -0.1464  0.0559 -1.2364
 5108TIP3   OH236738   4.016   3.076  11.650  0.0310 -0.3769  0.0086
 5108TIP3    H136739   3.945   3.036  11.700 -0.3065  0.5131  0.2506
 5108TIP3    H236740   4.087   3.011  11.655 -0.1610 -0.5242  1.2372
 5109TIP3   OH236741   2.660   4.062   4.466  0.0826  0.2808  0.1054
 5109TIP3    H136742   2.592   4.127   4.483  0.2604  1.2331 -2.3354
 5109TIP3    H236743   2.618   3.978   4.480 -0.4121  0.8641  2.4656
 5110TIP3   OH236744   0.834   4.025   1.553 -0.4723  0.0916 -0.2204
 5110TIP3    H136745   0.909   3.968   1.569 -0.1990  0.4021 -0.3696
 5110TIP3    H236746   0.869   4.096   1.499 -1.0130 -0.0944 -0.8305
 5111TIP3   OH236747   3.399   0.053   0.933 -0.7512 -0.0207 -0.4232
 5111TIP3    H136748   3.425   0.053   1.025 -0.5626 -2.4905 -0.4337
 5111TIP3    H236749   3.350   0.135   0.923  0.1297  0.8253  1.5797
 5112TIP3   OH236750   5.594   1.137   0.888  0.2816  0.0328 -0.5882
 5112TIP3    H136751   5.587   1.217   0.836  1.0894 -0.7321 -1.9344
 5112TIP3    H236752   5.509   1.094   0.878  0.2030  0.2140 -0.7048
 5113TIP3   OH236753   3.831   1.238  14.105  0.3326 -0.7341 -0.3102
 5113TIP3    H136754   3.899   1.195  14.156 -1.0758 -1.6598  0.8616
 5113TIP3    H236755   3.775   1.166  14.075 -0.9095  0.0991 -0.0592
 5114TIP3   OH236756   3.145   6.184   3.946 -0.0440  0.8523  0.6466
 5114TIP3    H136757   3.148   6.274   3.916 -1.0766  1.8304  3.2291
 5114TIP3    H236758   3.235   6.152   3.935  0.3028  2.1266 -0.4104
 5115TIP3   OH236759   3.838   2.568  14.027  0.0174  0.2338 -0.0315
 5115TIP3    H136760   3.934   2.575  14.020  0.2154 -0.2683  1.6461
 5115TIP3    H236761   3.808   2.559  13.936  1.6999 -1.1408 -0.5170
 5116TIP3   OH236762   3.349   5.715   1.794 -0.0196  0.1365 -0.0543
 5116TIP3    H136763   3.373   5.728   1.703  1.7073  1.4365  0.5314
 5116TIP3    H236764   3.369   5.623   1.811 -0.9516 -0.2855 -1.1180
 5117TIP3   OH236765   2.532   0.304   0.020  0.1493  0.4905 -0.8245
 5117TIP3    H136766   2.478   0.304   0.099  1.8162 -0.2519  0.3714
 5117TIP3    H236767   2.582   0.386   0.024 -0.5961  1.0138 -1.7460
 5118TIP3   OH236768   6.204   5.843   4.047  0.0776 -0.1888 -0.0498
 5118TIP3    H136769   6.213   5.750   4.026  1.6602 -0.1159  0.2034
 5118TIP3    H236770   6.233   5.850   4.138  1.1864  0.7209 -0.4588
 5119TIP3   OH236771   6.213   4.534  12.441 -0.4291  0.5407 -0.4147
 5119TIP3    H136772   6.178   4.445  12.443 -0.7265  0.6664  0.3404
 5119TIP3    H236773   6.136   4.590  12.451  0.0289  0.7923  3.9273
 5120TIP3   OH236774   6.435   1.894  14.585  0.4159  0.5424  0.0309
 5120TIP3    H136775   6.418   1.924  14.674 -0.3282  0.7472 -0.1712
 5120TIP3    H236776   6.348   1.881  14.547  0.7214  0.8278 -0.7927
 5121TIP3   OH236777   4.179   6.655   4.693 -0.2302 -0.2362  0.3058
 5121TIP3    H136778   4.173   6.686   4.783 -1.5888 -0.3437  0.2661
 5121TIP3    H236779   4.088   6.642   4.665  0.2089 -2.2796 -0.3605
 5122TIP3   OH236780   6.221   1.716   3.723 -0.3064  0.4068  0.5774
 5122TIP3    H136781   6.290   1.782   3.726  0.3656 -0.0052 -2.5204
 5122TIP3    H236782   6.148   1.758   3.678 -0.7150 -0.2416  0.6162
 5123TIP3   OH236783   2.326   0.992  10.953  0.8191 -0.4001  0.0870
 5123TIP3    H136784   2.399   1.039  10.913 -0.2978  0.9151 -0.4978
 5123TIP3    H236785   2.282   0.950  10.880  0.7140 -0.8181  0.3839
 5124TIP3   OH236786   5.979   3.953   2.293 -0.0946 -0.5294  0.5425
 5124TIP3    H136787   5.977   3.943   2.198  3.3733  2.9597 -0.2005
 5124TIP3    H236788   6.040   3.885   2.323  0.8184 -0.0415 -0.1560
 5125TIP3   OH236789   1.937   1.520  15.766  0.1389 -0.1729 -0.1171
 5125TIP3    H136790   1.918   1.570  15.686  1.6617  0.0017 -0.3951
 5125TIP3    H236791   1.856   1.472  15.784 -0.9855  1.4725 -0.5133
 5126TIP3   OH236792   5.343   1.927  13.437  0.0934 -0.0381  0.0176
 5126TIP3    H136793   5.437   1.913  13.446 -0.0135 -0.5909  0.3019
 5126TIP3    H236794   5.329   1.936  13.342  0.8495  3.1963  0.0833
 5127TIP3   OH236795   5.840   2.430  13.009 -0.3739 -0.1798  0.4215
 5127TIP3    H136796   5.778   2.502  13.000 -1.6202 -1.0939  1.1956
 5127TIP3    H236797   5.916   2.456  12.958 -0.6706  1.7895  0.9194
 5128TIP3   OH236798   3.107   5.838  13.339  0.3276 -0.5757 -0.2690
 5128TIP3    H136799   3.140   5.928  13.339  0.7504 -0.7189  0.5134
 5128TIP3    H236800   3.184   5.784  13.322 -0.0497 -0.7594 -1.4419
 5129TIP3   OH236801   1.979   3.604   3.235  0.2998  0.0045  0.1862
 5129TIP3    H136802   1.943   3.530   3.185 -2.4139  2.7358 -2.3843
 5129TIP3    H236803   1.916   3.618   3.305  0.9554 -0.2639  0.8338
 5130TIP3   OH236804   6.689   6.397   5.897  0.2642 -0.2304 -0.2497
 5130TIP3    H136805   6.636   6.475   5.914  0.4801 -0.2745  0.7188
 5130TIP3    H236806   6.631   6.323   5.916  0.6171 -0.2797  0.7244
 5131TIP3   OH236807   6.684   3.599   5.026  0.6005 -0.1729 -0.2608
 5131TIP3    H136808   6.701   3.590   4.932  1.3447  0.1214 -0.1650
 5131TIP3    H236809   6.688   3.693   5.042 -0.0600 -0.1807 -0.0236
 5132TIP3   OH236810   0.832   3.165  10.516 -0.1774  0.2423  0.2822
 5132TIP3    H136811   0.742   3.139  10.530 -0.0070 -1.1106 -0.9055
 5132TIP3    H236812   0.877   3.085  10.488  1.1283  1.1164 -0.2572
 5133TIP3   OH236813   3.512   3.907  15.454  0.2022 -0.4484  0.1859
 5133TIP3    H136814   3.556   3.851  15.517  0.7889 -1.4555 -1.0802
 5133TIP3    H236815   3.455   3.849  15.405  1.3676 -0.1324 -1.6514
 5134TIP3   OH236816   0.128   0.655   5.722 -0.2762  0.4292  0.0867
 5134TIP3    H136817   0.196   0.700   5.673 -1.7151  3.1294  0.3183
 5134TIP3    H236818   0.159   0.655   5.813  0.7726 -1.2510 -0.2486
 5135TIP3   OH236819   4.965   0.174  14.441 -0.6690  0.1573  0.0913
 5135TIP3    H136820   4.936   0.198  14.353 -1.3396 -0.7336  0.0540
 5135TIP3    H236821   4.924   0.238  14.498  1.5127  2.0905 -0.3979
 5136TIP3   OH236822   2.554   4.280  16.441 -0.2057  0.0222  0.3482
 5136TIP3    H136823   2.566   4.298  16.347  0.8425  0.6244  0.5841
 5136TIP3    H236824   2.519   4.362  16.476 -1.1825 -0.4036  0.3834
 5137TIP3   OH236825   5.579   2.820   4.388 -0.0146  0.2332  0.2497
 5137TIP3    H136826   5.549   2.757   4.323  0.1583  0.7225 -0.3127
 5137TIP3    H236827   5.510   2.887   4.390  0.9524  1.3201 -0.9893
 5138TIP3   OH236828   4.548   1.723  13.985 -0.0522 -0.1373 -0.7232
 5138TIP3    H136829   4.573   1.730  14.078  0.4366  1.0373 -0.9273
 5138TIP3    H236830   4.461   1.762  13.981 -0.3262 -0.7344 -0.6641
 5139TIP3   OH236831   5.516   5.322  14.945  0.2864 -0.0566 -0.2426
 5139TIP3    H136832   5.536   5.270  14.867 -0.0298  0.5943 -0.7700
 5139TIP3    H236833   5.456   5.268  14.995 -0.4843  0.0116 -1.0582
 5140TIP3   OH236834   4.821   2.079   5.552  0.3347  0.2366 -0.1060
 5140TIP3    H136835   4.809   2.133   5.474  1.1950 -1.0469 -1.1618
 5140TIP3    H236836   4.774   1.998   5.533  1.1971 -0.3880  0.3996
 5141TIP3   OH236837   1.843   6.656  13.600  0.5273  0.0248 -0.3542
 5141TIP3    H136838   1.834   6.566  13.633  0.7623  0.5803  1.3083
 5141TIP3    H236839   1.825   6.649  13.507  0.8781 -1.8125 -0.3195
 5142TIP3   OH236840   6.410   0.128  15.808  0.6305 -0.0967  0.3712
 5142TIP3    H136841   6.391   0.037  15.831  1.4937 -0.2767  0.4034
 5142TIP3    H236842   6.335   0.177  15.841 -0.6602 -0.9789 -1.1318
 5143TIP3   OH236843   0.942   2.435   5.010  0.9202 -0.3697 -0.0017
 5143TIP3    H136844   0.910   2.410   4.924  1.1557  0.0743 -0.2195
 5143TIP3    H236845   0.999   2.510   4.994  0.2642  0.2775  0.6332
 5144TIP3   OH236846   6.121   4.664  14.387  0.2014  0.4108  0.0793
 5144TIP3    H136847   6.195   4.725  14.374  3.3726 -3.4810 -2.5945
 5144TIP3    H236848   6.147   4.611  14.462  0.2689 -1.1245 -0.9999
 5145TIP3   OH236849   4.705   4.119  12.911 -0.2856 -0.2645 -0.0072
 5145TIP3    H136850   4.758   4.057  12.860 -0.7396  0.0014 -0.8157
 5145TIP3    H236851   4.695   4.195  12.853 -0.0588  0.4140  0.8326
 5146TIP3   OH236852   1.203   1.608  13.498 -0.6752 -0.0810  0.6064
 5146TIP3    H136853   1.122   1.637  13.456 -0.9568 -1.8067 -0.1275
 5146TIP3    H236854   1.257   1.577  13.426 -0.3845 -1.2981  1.3339
 5147TIP3   OH236855   5.441   3.143   1.911 -0.2899  0.8177  0.0094
 5147TIP3    H136856   5.347   3.159   1.917 -0.0643  2.0300  0.6422
 5147TIP3    H236857   5.461   3.152   1.817 -1.0152 -0.8867 -0.3400
 5148TIP3   OH236858   2.530   1.071  11.919 -0.0478  0.2220 -0.5193
 5148TIP3    H136859   2.590   1.036  11.853  0.5918  0.1022  0.1057
 5148TIP3    H236860   2.452   1.096  11.870  0.6740  0.7752 -1.4148
 5149TIP3   OH236861   2.193   0.984  11.959 -0.4746 -0.2844 -0.1825
 5149TIP3    H136862   2.248   0.957  12.034 -1.6925  1.0939  1.2888
 5149TIP3    H236863   2.122   1.034  11.999 -3.1321 -2.3856 -1.9598
 5150TIP3   OH236864   3.212   1.887   5.731  0.0253  0.1074  0.0720
 5150TIP3    H136865   3.200   1.794   5.747 -0.1941  0.4802  2.4551
 5150TIP3    H236866   3.148   1.929   5.789 -0.6587  1.7290 -1.7652
 5151TIP3   OH236867   6.192   1.653   4.613 -0.6399  0.5925  0.0300
 5151TIP3    H136868   6.119   1.633   4.554  0.0624 -0.0362 -0.6543
 5151TIP3    H236869   6.151   1.675   4.696 -1.6042  0.1190 -0.3121
 5152TIP3   OH236870   4.699   1.284  12.979  0.2068 -0.3192 -0.3467
 5152TIP3    H136871   4.613   1.318  13.003  0.4161 -2.0342  3.5715
 5152TIP3    H236872   4.760   1.351  13.010  0.3718 -0.7542  0.2824
 5153TIP3   OH236873   1.711   1.985   3.330  0.1298  0.0843  0.3632
 5153TIP3    H136874   1.684   1.894   3.340  0.7908 -0.1292  0.2531
 5153TIP3    H236875   1.684   2.028   3.411 -1.1332  0.0354 -0.0183
 5154TIP3   OH236876   6.200   0.709   4.620  0.3469  0.0074  0.3485
 5154TIP3    H136877   6.256   0.723   4.544 -0.2101  1.1233  0.1228
 5154TIP3    H236878   6.170   0.796   4.644  1.2295 -0.2032  2.4309
 5155TIP3   OH236879   0.753   2.803   0.744 -0.0964  0.0695 -0.6883
 5155TIP3    H136880   0.795   2.819   0.829 -1.5333 -0.1379  0.0808
 5155TIP3    H236881   0.711   2.886   0.723  0.0060  0.0263 -1.0617
 5156TIP3   OH236882   2.760   6.266  15.032  0.2230  0.1533 -0.2560
 5156TIP3    H136883   2.716   6.289  14.950 -1.0718  0.5107  0.5105
 5156TIP3    H236884   2.851   6.253  15.007 -0.1186  0.3835 -1.7302
 5157TIP3   OH236885   3.323   4.582   2.943 -0.2187  0.3183 -0.0488
 5157TIP3    H136886   3.326   4.678   2.939 -0.5068  0.4235  1.5153
 5157TIP3    H236887   3.233   4.563   2.970  0.6628 -0.1893  2.8852
 5158TIP3   OH236888   4.748   4.016  16.564  0.4054 -0.1132  0.1617
 5158TIP3    H136889   4.698   4.086  16.522 -0.3188  0.6541  2.1918
 5158TIP3    H236890   4.713   3.935  16.525  0.0326  0.5633 -0.9560
 5159TIP3   OH236891   5.487   0.502  16.132 -0.2218  0.1729 -0.1482
 5159TIP3    H136892   5.557   0.540  16.185 -1.7071  0.8347  1.4238
 5159TIP3    H236893   5.532   0.468  16.054  1.9142 -0.0029  1.0810
 5160TIP3   OH236894   6.496   4.309  10.761  0.1002 -0.1222  0.5324
 5160TIP3    H136895   6.546   4.300  10.680 -0.2235 -1.9867  0.4850
 5160TIP3    H236896   6.411   4.269  10.742  0.0426 -0.6488  1.7805
 5161TIP3   OH236897   4.912   5.653  15.244  0.4861  0.0849 -0.0891
 5161TIP3    H136898   4.882   5.743  15.228 -1.2744 -0.5925 -0.9014
 5161TIP3    H236899   4.989   5.643  15.188 -0.6875  0.3946 -1.8352
 5162TIP3   OH236900   0.546   5.688   5.599 -0.1014  0.0254  0.1448
 5162TIP3    H136901   0.607   5.692   5.672 -0.0918 -1.1606  0.2187
 5162TIP3    H236902   0.599   5.704   5.521  0.5090 -1.8205  0.1252
 5163TIP3   OH236903   2.565   2.552   3.887 -0.5138 -0.1874 -0.0459
 5163TIP3    H136904   2.571   2.591   3.799 -3.1916  0.3070 -0.1116
 5163TIP3    H236905   2.567   2.458   3.872  2.4637 -0.1781 -0.2345
 5164TIP3   OH236906   5.109   5.125   4.244 -0.1399 -0.1308  0.4088
 5164TIP3    H136907   5.081   5.045   4.200 -0.1759  0.0812  0.0385
 5164TIP3    H236908   5.038   5.146   4.304 -1.7631  1.4830 -1.9159
 5165TIP3   OH236909   3.012   5.946  14.022 -0.5638 -0.2198 -0.0165
 5165TIP3    H136910   2.996   6.035  14.053 -1.1419 -0.0036 -0.9344
 5165TIP3    H236911   2.984   5.890  14.095  2.7314  0.3454  1.9484
 5166TIP3   OH236912   4.150   2.845  13.173 -0.3686  0.1192 -0.1322
 5166TIP3    H136913   4.104   2.888  13.245 -0.6736 -0.2242 -0.1183
 5166TIP3    H236914   4.242   2.844  13.199 -0.4557  0.1521  0.1731
 5167TIP3   OH236915   2.767   5.097  17.066  0.5124 -0.2478 -0.2302
 5167TIP3    H136916   2.782   5.145  17.147  0.4477  0.3338 -0.5543
 5167TIP3    H236917   2.771   5.164  16.997 -1.9623 -0.2739 -0.4964
 5168TIP3   OH236918   1.855   6.532   4.963  0.0587  0.3808 -0.1910
 5168TIP3    H136919   1.777   6.517   4.908  0.3284  0.1274 -0.5099
 5168TIP3    H236920   1.842   6.619   5.000 -0.7143  0.0647  0.3110
 5169TIP3   OH236921   2.492   4.161   1.270  0.1963 -1.2466  0.3561
 5169TIP3    H136922   2.552   4.087   1.260  0.6766 -0.7559 -0.4476
 5169TIP3    H236923   2.465   4.182   1.181  0.5862 -0.0150  0.5195
 5170TIP3   OH236924   1.830   1.446  12.251 -0.1504  0.3145 -0.2462
 5170TIP3    H136925   1.912   1.495  12.248 -0.8785  1.7529  1.5080
 5170TIP3    H236926   1.762   1.514  12.242 -1.1673 -0.6581 -0.0924
 5171TIP3   OH236927   2.290   0.568  13.726  0.0029  0.4338  0.5586
 5171TIP3    H136928   2.327   0.585  13.640  0.8384  2.0053  1.1826
 5171TIP3    H236929   2.265   0.476  13.724  3.8724 -0.7791  0.0414
 5172TIP3   OH236930   0.255   2.953  10.268 -0.0302  0.3516  0.5179
 5172TIP3    H136931   0.336   3.002  10.285  2.2692 -2.8280 -0.2251
 5172TIP3    H236932   0.212   2.948  10.353  1.1213  1.2149  1.1851
 5173TIP3   OH236933   5.531   1.483  11.170  0.0476  0.1712 -0.2336
 5173TIP3    H136934   5.559   1.441  11.089  1.1702 -1.8081  1.0970
 5173TIP3    H236935   5.609   1.484  11.225 -1.1279 -0.3275  1.5320
 5174TIP3   OH236936   5.603   4.166  13.109 -0.2654  0.0174  0.3574
 5174TIP3    H136937   5.684   4.114  13.103  0.1507  0.5214  1.3874
 5174TIP3    H236938   5.630   4.254  13.083 -1.2934 -0.5038 -2.9335
 5175TIP3   OH236939   0.427   1.995   4.175 -0.1006 -0.9364  0.3267
 5175TIP3    H136940   0.432   1.904   4.144  2.2283 -0.0382 -2.3745
 5175TIP3    H236941   0.517   2.017   4.198 -0.6742  0.6637  1.1470
 5176TIP3   OH236942   6.638   3.604   1.936 -0.0878 -0.8071  0.2069
 5176TIP3    H136943   6.668   3.536   1.997 -0.7264  0.3489  1.8728
 5176TIP3    H236944   6.717   3.626   1.885  0.8877 -0.7155  1.6879
 5177TIP3   OH236945   2.044   6.534  15.393  0.0939  0.2359  0.1165
 5177TIP3    H136946   2.070   6.586  15.469  1.8603  0.1064 -0.3497
 5177TIP3    H236947   2.020   6.599  15.326  1.5417  0.4707 -0.2086
 5178TIP3   OH236948   5.592   3.957  13.471  0.1600  0.3055  1.0306
 5178TIP3    H136949   5.516   4.015  13.468  0.8064  1.1403 -1.0201
 5178TIP3    H236950   5.594   3.915  13.385  1.5634 -0.2829  1.3147
 5179TIP3   OH236951   0.732   6.413  15.817  0.4435 -0.3257 -0.7255
 5179TIP3    H136952   0.759   6.321  15.815  0.2515 -0.3950 -0.3304
 5179TIP3    H236953   0.645   6.412  15.858  1.3941  0.2284  1.5010
 5180TIP3   OH236954   5.326   2.317   1.677  0.0559  0.5065 -0.2889
 5180TIP3    H136955   5.362   2.234   1.646  0.2698  0.1065  0.9820
 5180TIP3    H236956   5.289   2.358   1.598  0.3077 -0.6011 -1.0049
 5181TIP3   OH236957   1.864   5.476   4.328  0.5923  0.4938 -0.4354
 5181TIP3    H136958   1.936   5.530   4.361  4.1289 -3.9852  0.2128
 5181TIP3    H236959   1.905   5.418   4.265 -3.0191 -0.9889 -1.6877
 5182TIP3   OH236960   2.464   4.893  15.195 -0.3098 -0.0326 -0.0561
 5182TIP3    H136961   2.500   4.965  15.247 -0.6799  0.1134  0.0017
 5182TIP3    H236962   2.372   4.916  15.183 -0.6283 -0.8757  0.6191
 5183TIP3   OH236963   0.664   5.442   3.502  0.0393  0.2692 -0.2550
 5183TIP3    H136964   0.722   5.491   3.561  0.4196 -0.1923 -0.2348
 5183TIP3    H236965   0.657   5.355   3.543  0.7145 -0.2244 -1.1376
 5184TIP3   OH236966   2.190   4.095   2.106  0.1878 -0.0413  0.0268
 5184TIP3    H136967   2.121   4.029   2.109  0.4616 -0.3228  0.2895
 5184TIP3    H236968   2.271   4.044   2.098  0.2833  0.3201 -1.6806
 5185TIP3   OH236969   3.658   3.586  11.399  0.0181 -0.1642 -0.8423
 5185TIP3    H136970   3.653   3.605  11.305  0.9852  1.6439 -0.5835
 5185TIP3    H236971   3.750   3.600  11.420 -0.2581 -0.2234  0.4453
 5186TIP3   OH236972   5.364   2.554  12.554  0.6131 -0.1377 -0.4121
 5186TIP3    H136973   5.425   2.626  12.534  0.2468  0.5003  0.6720
 5186TIP3    H236974   5.383   2.488  12.488  1.0429  0.9088 -1.3783
 5187TIP3   OH236975   5.751   6.468   0.412  0.0484 -0.1017 -0.4011
 5187TIP3    H136976   5.677   6.463   0.473 -0.1818 -1.7042 -0.7765
 5187TIP3    H236977   5.827   6.444   0.465 -0.2540 -2.2580 -0.8630
 5188TIP3   OH236978   4.452   3.752   2.891  0.2960  0.1879  0.0178
 5188TIP3    H136979   4.431   3.730   2.800 -0.5849 -0.1571  0.2904
 5188TIP3    H236980   4.517   3.821   2.885  0.4514 -0.0314 -0.8772
 5189TIP3   OH236981   3.644   4.456  12.744 -0.5703 -0.2802  0.1085
 5189TIP3    H136982   3.692   4.534  12.714 -0.7499 -0.9641 -2.1290
 5189TIP3    H236983   3.679   4.439  12.831  0.2994  1.6222  0.1884
 5190TIP3   OH236984   4.541   4.737   4.195  0.0400  0.2122 -0.2805
 5190TIP3    H136985   4.457   4.771   4.225  0.4622  0.3184  0.8227
 5190TIP3    H236986   4.606   4.800   4.226  0.5852 -0.1482 -0.6459
 5191TIP3   OH236987   1.645   2.362   4.989 -0.0047 -0.1271 -0.4285
 5191TIP3    H136988   1.709   2.419   5.031  0.6392 -2.0501  1.3125
 5191TIP3    H236989   1.662   2.372   4.895  0.1964  2.3529 -0.2031
 5192TIP3   OH236990   0.955   1.287  15.835  0.4782 -0.1706 -0.2132
 5192TIP3    H136991   0.879   1.284  15.777 -0.2807 -0.8787  0.7737
 5192TIP3    H236992   0.943   1.368  15.885 -0.6926 -1.1925  1.2664
 5193TIP3   OH236993   2.164   2.523  14.770  0.5801 -0.7515 -0.3763
 5193TIP3    H136994   2.086   2.505  14.822  0.5716  0.9026  0.2426
 5193TIP3    H236995   2.236   2.487  14.821  0.5571  0.7369  0.7526
 5194TIP3   OH236996   4.123   3.206  14.461 -0.4435  0.7525  0.0551
 5194TIP3    H136997   4.177   3.135  14.494 -0.7471 -0.2418 -1.4974
 5194TIP3    H236998   4.037   3.167  14.449 -0.4661  1.2098 -1.3956
 5195TIP3   OH236999   4.659   5.519  11.467 -0.4121  0.3707 -0.2931
 5195TIP3    H137000   4.643   5.429  11.498  1.0371 -0.3635 -1.5505
 5195TIP3    H237001   4.674   5.510  11.373  1.1798  1.7360 -0.2071
 5196TIP3   OH237002   3.652   1.001  14.833 -0.6312 -0.3086 -0.0350
 5196TIP3    H137003   3.566   1.005  14.791 -0.1894  0.3550 -0.9049
 5196TIP3    H237004   3.639   0.944  14.908 -1.4093 -1.6606 -1.1512
 5197TIP3   OH237005   6.035   4.247  11.276  0.3757 -0.0966 -0.4446
 5197TIP3    H137006   6.089   4.305  11.330 -0.8403  1.6463 -1.0226
 5197TIP3    H237007   6.048   4.279  11.186 -1.2209  0.0555 -0.6460
 5198TIP3   OH237008   2.175   3.668  16.685 -0.3265  0.2985 -0.7326
 5198TIP3    H137009   2.138   3.742  16.638 -0.3731  0.1922 -0.8633
 5198TIP3    H237010   2.265   3.693  16.705 -0.5359  0.6600 -0.2038
 5199TIP3   OH237011   4.150   6.776   5.550 -0.4135  0.2224 -0.0817
 5199TIP3    H137012   4.123   6.741   5.635 -0.4616  0.6056  0.0598
 5199TIP3    H237013   4.132   6.869   5.556  3.0842  0.9815  0.9035
 5200TIP3   OH237014   1.495   6.026  15.454 -0.0566 -0.6203 -0.6075
 5200TIP3    H137015   1.549   6.008  15.531  0.7646 -0.3394 -1.1060
 5200TIP3    H237016   1.405   6.032  15.488  0.4890  1.3212  0.6371
 5201TIP3   OH237017   0.143   5.562   1.976  0.7812 -0.2807 -0.6059
 5201TIP3    H137018   0.048   5.551   1.970  0.6299 -0.0616  0.8532
 5201TIP3    H237019   0.156   5.656   1.959  0.6565 -0.1867 -0.2088
 5202TIP3   OH237020   5.881   0.413  15.860 -0.3760  0.6162  0.1471
 5202TIP3    H137021   5.833   0.492  15.836 -1.1728 -0.2224 -1.1761
 5202TIP3    H237022   5.859   0.398  15.952 -1.5906  0.9950 -0.0682
 5203TIP3   OH237023   5.575   5.789  14.532 -0.3107 -0.9117 -0.2262
 5203TIP3    H137024   5.572   5.883  14.550 -1.2560 -1.4455  2.9192
 5203TIP3    H237025   5.669   5.768  14.531  0.0244  0.2336 -2.7417
 5204TIP3   OH237026   0.931   4.276   4.472 -0.4578  0.2378 -0.0614
 5204TIP3    H137027   0.972   4.360   4.493 -1.4412  0.6510  0.2593
 5204TIP3    H237028   0.902   4.286   4.381  0.2765 -0.1215 -0.3501
 5205TIP3   OH237029   1.149   4.279  10.657 -0.0300 -0.6450  0.1548
 5205TIP3    H137030   1.196   4.198  10.678 -0.5811 -1.4816 -1.6550
 5205TIP3    H237031   1.057   4.255  10.660 -0.1655 -0.5570 -2.0226
 5206TIP3   OH237032   1.869   0.475   0.892  0.3091 -0.0322 -0.4219
 5206TIP3    H137033   1.920   0.504   0.817 -0.0889  0.2453 -0.5884
 5206TIP3    H237034   1.869   0.550   0.952  0.1674 -0.0586 -0.3881
 5207TIP3   OH237035   0.125   1.993   0.208  0.0546 -0.2440  0.0950
 5207TIP3    H137036   0.067   1.922   0.236 -0.9832  0.6577  0.3151
 5207TIP3    H237037   0.148   1.972   0.118 -1.3922 -0.1652 -0.3186
 5208TIP3   OH237038   2.265   3.984  11.305  0.6270  0.3361 -0.3324
 5208TIP3    H137039   2.217   3.972  11.223  0.9840  0.9696 -0.6420
 5208TIP3    H237040   2.355   3.958  11.284  0.7480  0.6237 -0.1804
 5209TIP3   OH237041   4.601   3.070   1.529  0.2273  0.4071  0.4050
 5209TIP3    H137042   4.694   3.074   1.549  0.6254 -0.1512 -1.1918
 5209TIP3    H237043   4.574   2.981   1.555  0.5233  0.0150 -0.5842
 5210TIP3   OH237044   4.887   4.420   3.465  0.2014  0.0372 -0.2197
 5210TIP3    H137045   4.855   4.396   3.378 -1.0397 -1.1069  0.5156
 5210TIP3    H237046   4.974   4.380   3.470  1.5478  2.4323 -1.9031
 5211TIP3   OH237047   2.781   0.145   5.410  0.5086 -0.2580  0.4743
 5211TIP3    H137048   2.747   0.205   5.477  1.6882  1.1035 -0.0954
 5211TIP3    H237049   2.864   0.183   5.383 -0.1500 -0.4566 -2.1279
 5212TIP3   OH237050   2.794   3.665  15.923 -0.2326 -0.4522  0.0554
 5212TIP3    H137051   2.774   3.608  15.848  0.7104  0.3478 -0.8364
 5212TIP3    H237052   2.809   3.750  15.884  3.3645 -0.6301  0.7624
 5213TIP3   OH237053   2.490   2.348  12.275 -0.1177 -0.3188  0.0982
 5213TIP3    H137054   2.448   2.272  12.234  0.3991 -0.8930  0.6244
 5213TIP3    H237055   2.524   2.399  12.201  1.3753 -1.6704 -0.1825
 5214TIP3   OH237056   0.879   0.170   0.952  0.3211  0.0431 -0.3317
 5214TIP3    H137057   0.812   0.233   0.979  1.1733  0.2124  1.5995
 5214TIP3    H237058   0.954   0.225   0.928  0.3473 -0.1914 -0.7894
 5215TIP3   OH237059   6.363   0.903  11.230  0.1957  0.1135  0.0692
 5215TIP3    H137060   6.404   0.987  11.252 -1.4858  0.9274  0.2390
 5215TIP3    H237061   6.434   0.839  11.238  1.4060  1.4445  0.4038
 5216TIP3   OH237062   1.082   1.735   0.993 -0.0239 -0.6635  0.6121
 5216TIP3    H137063   1.107   1.705   1.080 -0.0072  0.1465  0.8958
 5216TIP3    H237064   1.163   1.768   0.954  0.2308 -2.1842 -0.2161
 5217TIP3   OH237065   5.358   5.756  12.156 -0.2364  0.4988  0.2922
 5217TIP3    H137066   5.295   5.790  12.220 -0.5617  1.0518 -0.3148
 5217TIP3    H237067   5.420   5.828  12.144 -0.2362  0.4331 -0.0965
 5218TIP3   OH237068   3.627   2.884  14.874 -0.1283 -0.2810 -0.5935
 5218TIP3    H137069   3.641   2.889  14.969  0.5615 -1.8311 -0.5762
 5218TIP3    H237070   3.684   2.952  14.838  0.2918 -0.2793  0.0490
 5219TIP3   OH237071   3.480   2.364  12.589  0.3369 -0.2191  0.1316
 5219TIP3    H137072   3.538   2.427  12.633  2.3832 -1.0368 -1.2556
 5219TIP3    H237073   3.395   2.409  12.584  0.1955  0.2837  3.9732
 5220TIP3   OH237074   6.348   0.379   3.098  0.2237 -0.1430 -0.0172
 5220TIP3    H137075   6.420   0.437   3.072 -0.4991  0.8445  0.1156
 5220TIP3    H237076   6.327   0.330   3.018 -0.1094  0.8422 -0.5545
 5221TIP3   OH237077   1.730   4.024   3.982 -0.0808 -0.2718  0.4953
 5221TIP3    H137078   1.672   4.015   3.906  0.1023 -0.5427  0.3845
 5221TIP3    H237079   1.807   4.070   3.949 -0.2888  0.2158  0.6758
 5222TIP3   OH237080   5.778   2.795  16.860  0.4476 -0.1669 -0.0628
 5222TIP3    H137081   5.867   2.799  16.897 -0.5309 -1.3695  2.6809
 5222TIP3    H237082   5.760   2.885  16.831  0.6125  1.6103  4.4875
 5223TIP3   OH237083   3.635   2.175   0.864 -0.1912 -0.1525  0.6309
 5223TIP3    H137084   3.719   2.130   0.867  0.0681  0.3259  0.5599
 5223TIP3    H237085   3.656   2.265   0.840 -0.7790 -0.1695  0.0078
 5224TIP3   OH237086   1.863   1.335   6.318  0.0971  0.0920 -0.1299
 5224TIP3    H137087   1.912   1.304   6.242 -2.1634  1.1900 -2.1720
 5224TIP3    H237088   1.872   1.265   6.383  1.7196 -1.0937 -1.5394
 5225TIP3   OH237089   2.711   3.431  11.775 -0.3420  0.7126  0.5541
 5225TIP3    H137090   2.716   3.424  11.870 -1.8428  1.3462  0.7012
 5225TIP3    H237091   2.676   3.519  11.759  1.6216  1.3477 -0.6616
 5226TIP3   OH237092   2.313   2.850   1.853  0.2733  0.0350 -0.4469
 5226TIP3    H137093   2.321   2.802   1.936  1.0701  0.1718 -0.4340
 5226TIP3    H237094   2.310   2.781   1.786  0.3656 -0.0601 -0.3538
 5227TIP3   OH237095   2.984   1.050   3.288 -0.0626 -0.2855  0.7207
 5227TIP3    H137096   2.950   1.136   3.313 -1.7600 -0.5096 -0.6716
 5227TIP3    H237097   2.913   0.989   3.308  1.0843 -1.3962  1.5999
 5228TIP3   OH237098   5.675   5.102  12.739  0.6726 -0.4691  0.0164
 5228TIP3    H137099   5.649   5.126  12.828  1.2692 -0.0320  0.0799
 5228TIP3    H237100   5.645   5.175  12.685  0.7672 -0.4896 -0.0645
 5229TIP3   OH237101   4.169   2.723   0.549 -0.3577 -0.3015 -0.0853
 5229TIP3    H137102   4.231   2.677   0.605  1.3903  0.4216 -1.3728
 5229TIP3    H237103   4.180   2.685   0.463 -1.0705  0.4437 -0.5256
 5230TIP3   OH237104   4.705   1.931   4.451 -0.5220  0.0514 -0.8019
 5230TIP3    H137105   4.725   1.999   4.515 -1.8091 -0.1932 -0.1134
 5230TIP3    H237106   4.682   1.854   4.504 -0.7490 -0.4134 -1.5576
 5231TIP3   OH237107   5.562   0.148   1.617  0.1929 -0.5835 -0.3932
 5231TIP3    H137108   5.557   0.224   1.675 -0.2269 -0.8143 -0.1270
 5231TIP3    H237109   5.575   0.185   1.530  0.1975 -0.2137 -0.2367
 5232TIP3   OH237110   4.614   4.473   0.999 -0.0239 -0.0371 -0.0440
 5232TIP3    H137111   4.646   4.518   1.077  0.8939 -0.7603  0.0224
 5232TIP3    H237112   4.524   4.449   1.021  0.5433 -1.1753  1.2650
 5233TIP3   OH237113   0.817   0.625   0.109  0.2612 -0.0922 -0.1646
 5233TIP3    H137114   0.809   0.586   0.196  0.2183 -1.9331 -0.9336
 5233TIP3    H237115   0.748   0.691   0.105  0.2851  0.0483  1.1857
 5234TIP3   OH237116   1.686   6.234  16.851 -0.5049  0.5616 -0.1989
 5234TIP3    H137117   1.724   6.291  16.917 -1.0805  1.3001 -0.4940
 5234TIP3    H237118   1.601   6.208  16.886 -0.3704  0.1146 -0.1938
 5235TIP3   OH237119   0.210   0.920  11.674  0.1965  0.4325 -0.2129
 5235TIP3    H137120   0.146   0.882  11.613 -0.4959  2.3202 -0.7436
 5235TIP3    H237121   0.288   0.866  11.664 -1.0345 -1.4344 -0.1745
 5236TIP3   OH237122   1.116   6.146   0.642 -0.0709  0.2226 -0.6317
 5236TIP3    H137123   1.127   6.097   0.561 -0.2756  1.3360 -1.3526
 5236TIP3    H237124   1.163   6.095   0.708  0.5117 -0.4440 -1.5452
 5237TIP3   OH237125   4.064   5.155   1.720 -0.0721 -0.1876  0.0855
 5237TIP3    H137126   3.972   5.133   1.711  0.0806 -0.7866 -0.0542
 5237TIP3    H237127   4.110   5.083   1.678  0.4135  1.0117 -1.5605
 5238TIP3   OH237128   0.665   5.218   1.963 -0.2728  0.4080  0.0259
 5238TIP3    H137129   0.709   5.163   2.028 -1.7806  0.5126  1.2011
 5238TIP3    H237130   0.673   5.307   1.998 -0.6366  0.5302 -0.1926
 5239TIP3   OH237131   2.572   2.396  15.174  0.1795  0.0526  0.3122
 5239TIP3    H137132   2.501   2.460  15.175 -0.3491 -0.5209  0.1838
 5239TIP3    H237133   2.607   2.400  15.085  1.9715  2.1074  1.0340
 5240TIP3   OH237134   4.737   5.459  12.524 -0.0797 -0.3897 -0.6078
 5240TIP3    H137135   4.832   5.447  12.524 -0.2249 -2.1723  1.4129
 5240TIP3    H237136   4.725   5.553  12.511  1.9896  0.0300  0.0775
 5241TIP3   OH237137   0.589   3.559   1.796  0.1859 -0.0365 -0.4353
 5241TIP3    H137138   0.669   3.514   1.769  0.3180  0.0881 -0.2595
 5241TIP3    H237139   0.620   3.629   1.853 -0.2197 -1.6212  1.8595
 5242TIP3   OH237140   0.688   3.723   2.833 -0.1921  0.6919  0.2135
 5242TIP3    H137141   0.704   3.816   2.845  0.5874  0.6699 -0.5092
 5242TIP3    H237142   0.597   3.709   2.859 -0.4209  1.7169 -0.0197
 5243TIP3   OH237143   3.435   6.453  14.434  0.0450 -0.6956 -0.2861
 5243TIP3    H137144   3.524   6.449  14.468  0.1909 -1.3869 -0.7368
 5243TIP3    H237145   3.395   6.526  14.481  0.7942 -0.4855  0.0408
 5244TIP3   OH237146   1.829   3.433  15.512 -0.1843  0.2313  0.0650
 5244TIP3    H137147   1.896   3.462  15.575  0.4494 -0.4019 -0.2997
 5244TIP3    H237148   1.761   3.500  15.518 -0.4196 -0.1212  1.8443
 5245TIP3   OH237149   2.370   1.903   4.321 -0.4101  0.2716  0.3278
 5245TIP3    H137150   2.319   1.863   4.251 -0.7594  0.9724  0.1729
 5245TIP3    H237151   2.427   1.833   4.352 -0.4822 -0.1343 -0.4349
 5246TIP3   OH237152   0.726   2.118  14.720  0.3435  0.0023  0.5290
 5246TIP3    H137153   0.796   2.109  14.784  0.8482  0.6208  0.0823
 5246TIP3    H237154   0.704   2.211  14.722  0.7336  0.1347 -0.5618
 5247TIP3   OH237155   2.209   5.953   4.259 -0.4229 -0.0423 -0.4346
 5247TIP3    H137156   2.244   6.024   4.205 -0.0933 -0.6286 -1.0074
 5247TIP3    H237157   2.119   5.980   4.279  0.3846  1.6480  1.3253
 5248TIP3   OH237158   4.917   5.079   0.539 -0.0699 -0.4141 -0.6103
 5248TIP3    H137159   4.992   5.021   0.528 -0.9284 -1.5360 -0.7084
 5248TIP3    H237160   4.953   5.167   0.527  0.8196 -1.0192 -2.8954
 5249TIP3   OH237161   0.712   4.101   5.321 -0.1739  0.3130  0.2532
 5249TIP3    H137162   0.617   4.112   5.312  0.0801  1.3098 -1.8714
 5249TIP3    H237163   0.728   4.011   5.292 -0.5073 -0.0785  1.2338
 5250TIP3   OH237164   3.364   1.030   2.301  0.5002  0.0306 -0.5067
 5250TIP3    H137165   3.315   0.972   2.243  0.8104 -0.2409 -0.5022
 5250TIP3    H237166   3.298   1.082   2.346  0.2301 -0.2315 -0.6047
 5251TIP3   OH237167   6.147   5.034   5.275  0.2718  0.2162 -0.1618
 5251TIP3    H137168   6.223   4.979   5.255 -0.5808 -0.7250 -0.8551
 5251TIP3    H237169   6.086   4.976   5.319 -0.1905  0.8919  0.1008
 5252TIP3   OH237170   1.657   1.460  13.407 -0.2012 -0.3641  0.2915
 5252TIP3    H137171   1.684   1.424  13.491 -1.1805  1.4359  1.4527
 5252TIP3    H237172   1.727   1.523  13.384 -0.1081 -0.5968 -0.0688
 5253TIP3   OH237173   4.560   3.339  15.461  0.4368 -0.0436  0.1905
 5253TIP3    H137174   4.603   3.391  15.529 -1.2325  0.4532  0.9115
 5253TIP3    H237175   4.543   3.255  15.502  2.4597 -0.9835 -0.7409
 5254TIP3   OH237176   6.469   5.655   5.662 -0.1391 -0.3904  0.1863
 5254TIP3    H137177   6.409   5.662   5.736  1.9727  2.5382  1.8750
 5254TIP3    H237178   6.531   5.728   5.675  1.6969 -1.1146 -3.2717
 5255TIP3   OH237179   0.196   2.594  10.844 -0.2749  0.0320 -0.6643
 5255TIP3    H137180   0.183   2.613  10.751  1.7597  0.9745 -0.8201
 5255TIP3    H237181   0.255   2.663  10.874 -1.5690  0.2736  1.5761
 5256TIP3   OH237182   2.855   6.625   2.455  0.8022  0.6997 -0.1910
 5256TIP3    H137183   2.792   6.643   2.384  2.3636  2.5391 -1.2117
 5256TIP3    H237184   2.801   6.611   2.532 -0.8972  0.8485 -1.2985
 5257TIP3   OH237185   6.765   4.076  16.345 -0.1683  0.5731 -0.4178
 5257TIP3    H137186   6.793   4.165  16.367  2.8573 -0.2054 -0.6918
 5257TIP3    H237187   6.777   4.026  16.426 -1.7128  0.3166 -0.3052
 5258TIP3   OH237188   4.163   1.040   5.291 -0.3437 -0.1184 -0.2521
 5258TIP3    H137189   4.097   1.106   5.310 -0.0596  0.0271  0.2396
 5258TIP3    H237190   4.242   1.071   5.335 -1.3597 -3.1575  4.4725
 5259TIP3   OH237191   1.958   2.638   2.500  0.3399 -0.5488  0.4597
 5259TIP3    H137192   1.963   2.559   2.554 -2.8296 -1.2894 -0.1066
 5259TIP3    H237193   2.001   2.614   2.418 -0.6860 -1.7741  0.2498
 5260TIP3   OH237194   1.359   3.960  15.240  0.3795 -0.0262  0.2722
 5260TIP3    H137195   1.410   4.040  15.257  0.2015 -0.1676  1.5981
 5260TIP3    H237196   1.423   3.899  15.203  0.7420  0.4042  0.1706
 5261TIP3   OH237197   4.921   4.138  16.781  0.1281 -0.3116  0.1107
 5261TIP3    H137198   4.962   4.082  16.715  2.6876 -0.2059  1.4932
 5261TIP3    H237199   4.984   4.210  16.792 -1.4986  1.0565  0.7971
 5262TIP3   OH237200   1.380   6.455  13.391  0.2369  0.2917  0.0607
 5262TIP3    H137201   1.406   6.428  13.479 -1.9911 -0.5480  0.5295
 5262TIP3    H237202   1.459   6.446  13.339  2.2714  2.9646  2.3516
 5263TIP3   OH237203   5.949   0.625  16.154  0.3365  0.3871  0.1781
 5263TIP3    H137204   5.896   0.555  16.115  1.8183 -0.5611 -0.2132
 5263TIP3    H237205   5.888   0.672  16.212 -1.3712  0.4724 -1.5842
 5264TIP3   OH237206   6.170   2.341  12.643 -0.5213 -0.3790 -0.0538
 5264TIP3    H137207   6.108   2.298  12.702  0.0724 -0.1203  0.7800
 5264TIP3    H237208   6.222   2.269  12.607 -0.5773 -0.5056  0.1147
 5265TIP3   OH237209   2.260   1.923  12.655 -0.1592  0.0087  0.4059
 5265TIP3    H137210   2.343   1.875  12.658 -0.1003  0.1172  0.5042
 5265TIP3    H237211   2.270   1.994  12.718 -0.4249 -0.1335  0.6107
 5266TIP3   OH237212   0.599   3.307   1.978  0.2269  0.2350 -0.1067
 5266TIP3    H137213   0.667   3.271   2.035  0.3089  1.9704  0.9550
 5266TIP3    H237214   0.647   3.349   1.907  0.3163  1.4969  0.6650
 5267TIP3   OH237215   1.744   3.833  15.866  0.4179 -0.3035  0.8823
 5267TIP3    H137216   1.687   3.901  15.901 -0.2240 -0.7425  0.7166
 5267TIP3    H237217   1.711   3.817  15.778  2.6681  1.5476 -0.4114
 5268TIP3   OH237218   6.528   4.351  12.940 -0.3351  0.3827  0.4746
 5268TIP3    H137219   6.550   4.274  12.992 -0.7746 -2.2257 -2.7997
 5268TIP3    H237220   6.433   4.360  12.948 -0.2865  0.5770  0.8389
 5269TIP3   OH237221   4.569   0.626   3.578  0.1922 -0.0166  0.2676
 5269TIP3    H137222   4.577   0.721   3.571 -1.0057 -0.0096 -1.8701
 5269TIP3    H237223   4.654   0.597   3.608  0.7435  1.6916  0.4873
 5270TIP3   OH237224   1.939   3.828  12.248  0.2353  0.0648  0.6041
 5270TIP3    H137225   1.904   3.807  12.161  0.1827 -0.1130  0.6673
 5270TIP3    H237226   1.889   3.772  12.307  0.2998  0.1572  0.7447
 5271TIP3   OH237227   0.877   3.399   4.424  0.7326 -0.5733  0.8618
 5271TIP3    H137228   0.880   3.416   4.330  1.4350  2.7237  1.3495
 5271TIP3    H237229   0.835   3.476   4.461  0.7602 -1.6364  3.3120
 5272TIP3   OH237230   1.652   3.935  11.244 -0.8424 -0.2094  0.3165
 5272TIP3    H137231   1.601   3.993  11.187 -0.3132 -1.3105 -1.3263
 5272TIP3    H237232   1.639   3.848  11.208  3.7193 -0.3782 -1.4894
 5273TIP3   OH237233   6.595   0.574   5.205 -0.6664 -0.4599 -0.1035
 5273TIP3    H137234   6.560   0.632   5.273 -1.5300 -0.0398 -0.8802
 5273TIP3    H237235   6.523   0.512   5.188 -0.4646 -0.5475 -0.6440
 5274TIP3   OH237236   5.051   4.304   6.147 -0.2861 -0.1986  0.0584
 5274TIP3    H137237   5.039   4.210   6.128  0.6334  0.0174 -1.7658
 5274TIP3    H237238   4.992   4.348   6.086  1.0073  0.4660 -0.7544
 5275TIP3   OH237239   2.763   6.375  13.001  0.3749 -0.4078  0.3309
 5275TIP3    H137240   2.792   6.286  13.021 -0.1613 -0.5458  0.5024
 5275TIP3    H237241   2.835   6.431  13.032  0.2653 -0.7136  1.1724
 5276TIP3   OH237242   5.271   5.223   0.637  0.0672  0.5881  0.4142
 5276TIP3    H137243   5.268   5.179   0.722  0.2167  0.8781  0.5710
 5276TIP3    H237244   5.336   5.292   0.648 -0.3879  1.0475  0.2665
 5277TIP3   OH237245   0.661   2.278   1.490 -0.1012 -0.2926 -0.2072
 5277TIP3    H137246   0.592   2.212   1.497  0.7770 -1.3430 -1.0736
 5277TIP3    H237247   0.724   2.240   1.429  0.8846  0.9662 -0.0087
 5278TIP3   OH237248   2.691   4.102   0.689  0.3815 -0.0064 -0.0452
 5278TIP3    H137249   2.742   4.028   0.658  1.6172  1.1368 -0.8922
 5278TIP3    H237250   2.602   4.084   0.659  0.0759 -2.2929  1.9167
 5279TIP3   OH237251   4.909   2.831  15.675  0.1077 -0.2742 -0.1889
 5279TIP3    H137252   4.859   2.763  15.631 -0.5150 -0.1038  0.2477
 5279TIP3    H237253   4.994   2.790  15.694  0.4473 -0.3019 -1.6556
 5280TIP3   OH237254   6.493   2.020   2.490 -0.2114 -0.1435 -0.6346
 5280TIP3    H137255   6.532   1.974   2.565  3.1457  0.4484 -1.8359
 5280TIP3    H237256   6.496   2.112   2.514  0.7290  0.0364 -1.3885
 5281TIP3   OH237257   5.830   6.089   1.417  0.2342 -0.3751 -0.6950
 5281TIP3    H137258   5.752   6.101   1.363 -0.7717  0.1817  0.8178
 5281TIP3    H237259   5.827   5.997   1.444  0.2774 -0.4391 -0.9118
 5282TIP3   OH237260   4.124   5.330  12.081  0.1835  0.3399 -0.1590
 5282TIP3    H137261   4.199   5.379  12.114  0.8097 -0.0779 -0.9099
 5282TIP3    H237262   4.049   5.387  12.094  0.7773  1.1511 -0.2552
 5283TIP3   OH237263   0.574   4.764  13.462 -0.3299  0.4047 -0.3592
 5283TIP3    H137264   0.594   4.843  13.411  1.8639 -0.3111 -0.6740
 5283TIP3    H237265   0.651   4.709  13.454 -0.6867 -0.6135  2.1291
 5284TIP3   OH237266   3.074   2.806  11.696  0.5021  0.3887  0.4825
 5284TIP3    H137267   3.151   2.761  11.660  1.2732  0.2956  2.1505
 5284TIP3    H237268   3.008   2.799  11.628  1.2838 -1.4523 -0.1438
 5285TIP3   OH237269   1.034   2.212  14.078 -0.6366  0.0246 -0.2853
 5285TIP3    H137270   1.076   2.215  13.992  0.8903 -1.8509  0.3349
 5285TIP3    H237271   1.062   2.292  14.121  2.5120 -1.1464  0.1182
 5286TIP3   OH237272   6.269   1.579   5.931 -0.1315 -0.1043  0.1469
 5286TIP3    H137273   6.196   1.561   5.872 -0.1569 -2.9472  0.9003
 5286TIP3    H237274   6.339   1.611   5.874 -0.4586 -1.8823 -1.3421
 5287TIP3   OH237275   2.035   2.505   0.479  0.1815  0.6071 -0.4573
 5287TIP3    H137276   1.963   2.548   0.525 -1.4005 -0.9993 -1.2844
 5287TIP3    H237277   2.108   2.507   0.541 -1.7927 -1.3598  2.1845
 5288TIP3   OH237278   1.555   1.769   6.117 -0.1778 -0.5385 -0.7024
 5288TIP3    H137279   1.519   1.680   6.111  2.0745 -1.5840  0.0687
 5288TIP3    H237280   1.479   1.826   6.108 -2.0044 -2.5581  0.7390
 5289TIP3   OH237281   0.398   2.903   3.196 -0.0914 -0.1304  0.1135
 5289TIP3    H137282   0.462   2.857   3.251  0.7810  0.0636 -0.7089
 5289TIP3    H237283   0.436   2.990   3.183 -1.6089  0.8035  1.4510
 5290TIP3   OH237284   1.528   1.272   0.284  0.8017 -0.1948  0.1214
 5290TIP3    H137285   1.577   1.354   0.279 -0.3270  0.4170 -2.0307
 5290TIP3    H237286   1.443   1.296   0.321  0.3714 -0.3188 -0.7612
 5291TIP3   OH237287   2.975   3.953   4.070 -0.0715 -0.4908 -0.0892
 5291TIP3    H137288   3.028   3.939   4.147 -1.3670 -2.3771  0.5261
 5291TIP3    H237289   2.909   4.017   4.098  0.1727 -0.2687 -0.0133
 5292TIP3   OH237290   5.751   6.114  16.731  0.3277  0.6607 -0.6100
 5292TIP3    H137291   5.727   6.158  16.813 -0.7745 -1.3639  0.2157
 5292TIP3    H237292   5.811   6.045  16.757 -0.3339 -0.2573 -1.4445
 5293TIP3   OH237293   2.966   4.179   5.163 -0.0086 -0.0061 -0.3611
 5293TIP3    H137294   2.936   4.176   5.254  0.7506  0.6027 -0.0810
 5293TIP3    H237295   2.945   4.267   5.133  1.1967  0.3236 -0.2573
 5294TIP3   OH237296   3.656   2.622  13.720  0.6836 -0.1789  0.0632
 5294TIP3    H137297   3.697   2.693  13.769 -0.3971  0.2248  0.4317
 5294TIP3    H237298   3.563   2.629  13.742  0.5928 -1.9228  0.3714
 5295TIP3   OH237299   3.943   5.953  12.572 -0.4250 -0.0648  0.5704
 5295TIP3    H137300   3.977   5.867  12.595 -0.6743 -0.2197  0.3656
 5295TIP3    H237301   3.950   5.957  12.476 -2.3937 -0.7146  0.3569
 5296TIP3   OH237302   0.740   4.347  14.881 -0.7891 -0.0981  0.1093
 5296TIP3    H137303   0.830   4.315  14.871 -0.7482 -0.6849  1.9649
 5296TIP3    H237304   0.710   4.362  14.791  1.4731  1.0511 -0.5477
 5297TIP3   OH237305   4.679   4.519   4.099  0.1476  0.8992  0.2032
 5297TIP3    H137306   4.654   4.571   4.175 -0.1606  0.8854  0.1113
 5297TIP3    H237307   4.705   4.434   4.135 -0.2434  0.8089  0.2676
 5298TIP3   OH237308   6.304   5.935  15.847  0.1380  0.3155  0.2399
 5298TIP3    H137309   6.316   5.892  15.932  0.4803 -0.9980 -0.4478
 5298TIP3    H237310   6.362   5.887  15.788  0.1265  1.4017 -0.6847
 5299TIP3   OH237311   2.312   4.607  16.710 -0.0224  0.2118  0.1490
 5299TIP3    H137312   2.300   4.526  16.759 -1.5019 -0.8834 -1.8784
 5299TIP3    H237313   2.341   4.578  16.623 -1.7814  1.7058 -1.0108
 5300TIP3   OH237314   4.333   6.672   0.666  0.7507  0.1514  0.5172
 5300TIP3    H137315   4.375   6.595   0.629  0.4135  0.9416 -1.6851
 5300TIP3    H237316   4.241   6.648   0.675  0.9715 -0.3094  1.6629
 5301TIP3   OH237317   1.727   2.530   1.821 -0.1172  0.4451 -0.2937
 5301TIP3    H137318   1.790   2.497   1.885 -0.6262 -0.7364 -0.3731
 5301TIP3    H237319   1.775   2.533   1.739 -0.2378 -0.7746 -0.4241
 5302TIP3   OH237320   5.617   1.979   5.383  0.6791 -0.6853 -0.1794
 5302TIP3    H137321   5.678   2.052   5.394 -0.1973  0.1048 -0.4533
 5302TIP3    H237322   5.534   2.020   5.359  0.4023 -1.8380 -1.2831
 5303TIP3   OH237323   3.538   1.810   4.613 -0.0639 -0.1116  0.1655
 5303TIP3    H137324   3.592   1.886   4.592 -1.6817  1.0944  0.2046
 5303TIP3    H237325   3.524   1.767   4.528 -2.0480  1.6671 -0.4798
 5304TIP3   OH237326   2.136   3.889   4.229  0.4017  0.1703 -0.0392
 5304TIP3    H137327   2.071   3.949   4.192  0.7198  0.6685  0.1835
 5304TIP3    H237328   2.096   3.856   4.309  0.8131  1.2829  0.6539
 5305TIP3   OH237329   3.461   5.762   1.545  0.3065  0.8278 -0.6886
 5305TIP3    H137330   3.481   5.786   1.455  2.0169  1.1775 -0.2637
 5305TIP3    H237331   3.508   5.679   1.558 -1.7108 -0.3848 -0.7356
 5306TIP3   OH237332   5.082   3.663   4.235  0.1154 -0.0253 -0.4009
 5306TIP3    H137333   5.027   3.662   4.156  0.7734  0.3847 -0.8847
 5306TIP3    H237334   5.087   3.755   4.259 -1.1580 -0.2779  0.9182
 5307TIP3   OH237335   1.579   0.421   0.894  0.6016 -0.1016  0.4468
 5307TIP3    H137336   1.597   0.327   0.882 -1.6718 -0.5964  0.4554
 5307TIP3    H237337   1.661   0.464   0.871  0.9927 -1.9501 -2.0948
 5308TIP3   OH237338   3.337   4.016  13.351 -0.5536 -0.2342 -0.5787
 5308TIP3    H137339   3.341   3.976  13.438  0.3278  0.7337 -0.1425
 5308TIP3    H237340   3.279   4.092  13.363  0.9898  0.9456 -0.3618
 5309TIP3   OH237341   4.714   0.991  11.669 -0.2307 -1.0304  0.0647
 5309TIP3    H137342   4.661   1.009  11.746  0.0510 -1.1007  0.2777
 5309TIP3    H237343   4.802   0.975  11.703  0.1681  0.1353 -0.3726
 5310TIP3   OH237344   4.307   5.980  10.997 -0.3183  0.3741  0.0490
 5310TIP3    H137345   4.337   5.903  10.949 -3.3027  0.2058 -1.8569
 5310TIP3    H237346   4.367   6.050  10.970  0.2547 -0.5162 -1.0894
 5311TIP3   OH237347   4.324   3.632   1.802 -0.2160  0.4916  0.2220
 5311TIP3    H137348   4.395   3.611   1.741 -0.0623 -0.5015  0.7185
 5311TIP3    H237349   4.275   3.701   1.758 -0.0753 -0.1597 -1.0125
 5312TIP3   OH237350   2.502   3.434   1.029  0.3437 -0.7572  0.1774
 5312TIP3    H137351   2.435   3.472   0.973 -1.8646 -1.3525  2.2550
 5312TIP3    H237352   2.482   3.468   1.117  0.6836 -3.5297  1.4316
 5313TIP3   OH237353   3.147   3.204  12.186 -0.0201 -0.2301 -0.3583
 5313TIP3    H137354   3.061   3.241  12.205  0.4638  0.5721  0.3829
 5313TIP3    H237355   3.151   3.124  12.238 -0.2889 -0.2091 -0.3053
 5314TIP3   OH237356   2.912   1.185   3.863  0.1577 -0.1510  0.4170
 5314TIP3    H137357   2.958   1.103   3.846  0.8768  0.6160 -1.8160
 5314TIP3    H237358   2.849   1.192   3.791 -2.0300 -0.1293  2.2281
 5315TIP3   OH237359   4.782   5.385  13.184 -0.5281 -0.2249  0.1213
 5315TIP3    H137360   4.847   5.324  13.220 -0.7547  0.3779  1.5857
 5315TIP3    H237361   4.738   5.334  13.116  0.8248 -0.9550 -0.2510
 5316TIP3   OH237362   5.201   4.300  14.334 -0.0885 -0.0371 -0.3241
 5316TIP3    H137363   5.210   4.257  14.249 -0.5956 -1.4646  0.3048
 5316TIP3    H237364   5.108   4.318  14.342 -0.0210  0.2342 -0.1460
 5317TIP3   OH237365   2.337   6.275  10.449  0.2598 -0.0943  0.0216
 5317TIP3    H137366   2.252   6.268  10.406 -0.7011 -1.9609  2.0116
 5317TIP3    H237367   2.393   6.213  10.403  0.7687  1.5236 -1.6381
 5318TIP3   OH237368   1.316   2.826  14.391  0.1240  0.1816 -0.9450
 5318TIP3    H137369   1.303   2.760  14.459  0.8288  0.9602 -0.0083
 5318TIP3    H237370   1.338   2.776  14.313 -1.0536 -0.7557 -0.7098
 5319TIP3   OH237371   2.295   6.188  11.259  0.6041 -0.8152 -0.0827
 5319TIP3    H137372   2.360   6.188  11.330  0.6761  1.4891 -0.0893
 5319TIP3    H237373   2.333   6.244  11.191 -0.6970 -0.7229 -0.7619
 5320TIP3   OH237374   1.087   3.686   3.907  0.3148  0.0251  0.0578
 5320TIP3    H137375   1.067   3.594   3.926 -1.7655  0.3007 -0.6325
 5320TIP3    H237376   1.058   3.733   3.985 -0.9255  0.3249 -0.5606
 5321TIP3   OH237377   1.792   0.224   0.897  0.1304  0.5121  0.2701
 5321TIP3    H137378   1.827   0.313   0.888  0.9087  0.2533  0.6996
 5321TIP3    H237379   1.816   0.198   0.986  1.0937 -0.6356 -0.3079
 5322TIP3   OH237380   3.544   3.185   5.920 -0.4548  0.1171 -0.6766
 5322TIP3    H137381   3.611   3.120   5.943 -1.9199 -1.7482 -1.3808
 5322TIP3    H237382   3.590   3.249   5.866  1.4350  0.6872  1.4208
 5323TIP3   OH237383   5.336   1.643   0.304 -0.3133  0.2491  0.2185
 5323TIP3    H137384   5.384   1.561   0.299  0.5380  0.7861 -0.6178
 5323TIP3    H237385   5.281   1.644   0.226  1.8931  1.7908 -1.4414
 5324TIP3   OH237386   0.464   6.647  12.672 -0.4899 -0.7273 -0.1044
 5324TIP3    H137387   0.427   6.658  12.584 -3.5406  0.1022  1.1475
 5324TIP3    H237388   0.397   6.684  12.731  3.1594  2.7378  2.4052
 5325TIP3   OH237389   0.867   6.212  11.513  0.6197 -0.7638 -0.1479
 5325TIP3    H137390   0.917   6.134  11.537  1.0312 -0.4006  0.2110
 5325TIP3    H237391   0.867   6.213  11.417  2.5505 -0.0168 -0.1889
 5326TIP3   OH237392   0.215   5.449  11.584  0.2562  0.3512 -0.3608
 5326TIP3    H137393   0.173   5.515  11.639  1.5268  1.6344 -0.8523
 5326TIP3    H237394   0.228   5.374  11.641 -0.5110  0.8118  0.4375
 5327TIP3   OH237395   2.797   1.603  12.203 -0.1947 -0.4020 -0.2141
 5327TIP3    H137396   2.850   1.525  12.221 -0.4349 -0.6945 -0.7396
 5327TIP3    H237397   2.839   1.643  12.127 -2.1094 -2.0142 -2.2801
 5328TIP3   OH237398   0.891   0.042   0.497 -0.1921 -0.5915 -0.0542
 5328TIP3    H137399   0.956   0.099   0.537 -1.5007  0.9831 -0.0746
 5328TIP3    H237400   0.942  -0.022   0.447  1.3320  0.1599  0.4980
 5329TIP3   OH237401   3.396   0.081  11.729 -0.8058  0.0937 -0.2448
 5329TIP3    H137402   3.364   0.081  11.819 -0.6422  0.8148 -0.1762
 5329TIP3    H237403   3.321   0.113  11.678  0.0770  2.9508  0.0566
 5330TIP3   OH237404   4.274   4.382   1.344  0.0974 -0.0765  0.2961
 5330TIP3    H137405   4.269   4.469   1.385 -0.3221  1.2921 -2.4546
 5330TIP3    H237406   4.182   4.358   1.328  0.2644 -0.3165 -0.3296
 5331TIP3   OH237407   2.928   6.362  15.830  0.2501  0.2824  0.0401
 5331TIP3    H137408   2.996   6.387  15.891  0.4548  0.4959 -0.2727
 5331TIP3    H237409   2.873   6.300  15.879  1.1332 -0.5278  0.0435
 5332TIP3   OH237410   4.586   5.805  11.325  0.3843  0.1151  0.1807
 5332TIP3    H137411   4.599   5.749  11.248  0.1438 -0.8540  0.8316
 5332TIP3    H237412   4.499   5.843  11.311  1.5824  2.4291 -1.5450
 5333TIP3   OH237413   5.059   6.032  14.387 -0.0468  0.1981  0.3920
 5333TIP3    H137414   5.002   5.960  14.359 -1.7671  1.3197  0.8788
 5333TIP3    H237415   5.003   6.088  14.440  1.7795  0.8543  1.7618
 5334TIP3   OH237416   1.107   5.372  11.127 -0.0364  0.5429  0.1038
 5334TIP3    H137417   1.132   5.333  11.211 -0.5854  1.0489  0.5062
 5334TIP3    H237418   1.184   5.359  11.071 -0.7485 -2.6062 -0.3238
 5335TIP3   OH237419   4.495   1.166   2.285  0.5560 -0.2096 -0.0600
 5335TIP3    H137420   4.576   1.156   2.234  0.4888 -2.0071  0.1270
 5335TIP3    H237421   4.426   1.172   2.219  0.6251 -1.0122 -0.2207
 5336TIP3   OH237422   5.806   1.303   5.331  0.3714  0.3908  0.4536
 5336TIP3    H137423   5.824   1.299   5.237  0.0297  2.9626  0.2157
 5336TIP3    H237424   5.710   1.296   5.337  0.2611  1.6930  0.4549
 5337TIP3   OH237425   4.697   0.382  16.719 -0.4131 -0.0712  0.3039
 5337TIP3    H137426   4.635   0.392  16.792 -0.4218  0.2498  0.2537
 5337TIP3    H237427   4.680   0.458  16.663 -1.7913 -1.3124 -1.0661
 5338TIP3   OH237428   4.754   2.651   5.612 -0.2101  0.3451  0.0121
 5338TIP3    H137429   4.839   2.652   5.567  1.2355  1.3911  2.5210
 5338TIP3    H237430   4.712   2.732   5.584  0.5613  0.8641  0.3018
 5339TIP3   OH237431   6.168   2.647   3.047  0.0000 -0.2569  0.0641
 5339TIP3    H137432   6.105   2.590   3.003 -0.8224  0.8332 -0.2049
 5339TIP3    H237433   6.117   2.724   3.072  1.3496  0.9179 -0.6873
 5340TIP3   OH237434   1.093   1.127  13.948  0.2973  0.0672 -0.0368
 5340TIP3    H137435   1.173   1.169  13.980  0.5250 -0.2093 -0.2392
 5340TIP3    H237436   1.046   1.102  14.027 -0.2607  1.4892  0.0920
 5341TIP3   OH237437   4.346   1.186  13.022 -0.3221  0.4030 -0.4374
 5341TIP3    H137438   4.250   1.180  13.017 -0.4142  0.9319  0.3653
 5341TIP3    H237439   4.366   1.274  12.991 -0.0244  0.0269 -1.3230
 5342TIP3   OH237440   1.798   0.748   3.141 -0.3406 -0.0650 -0.5535
 5342TIP3    H137441   1.708   0.753   3.107 -0.3071 -1.3562 -0.8862
 5342TIP3    H237442   1.828   0.660   3.116 -0.0877 -0.8797  2.2417
 5343TIP3   OH237443   3.253   2.773  14.025  0.3073  0.2233  0.1138
 5343TIP3    H137444   3.203   2.714  14.081  0.0911  2.8673  3.0153
 5343TIP3    H237445   3.189   2.806  13.963 -0.3270 -0.2272  0.5147
 5344TIP3   OH237446   2.487   1.443  13.359  0.0466  0.3700  0.0489
 5344TIP3    H137447   2.498   1.405  13.446  1.7557 -2.0299 -1.1030
 5344TIP3    H237448   2.534   1.527  13.364 -1.9682  1.4986  2.0415
 5345TIP3   OH237449   3.778   2.683  16.695  0.0290 -0.3386  0.3010
 5345TIP3    H137450   3.780   2.771  16.659  0.6223 -0.0801  0.9424
 5345TIP3    H237451   3.790   2.695  16.790 -1.0382 -1.0255  0.5443
 5346TIP3   OH237452   0.389   3.386   5.742  0.0681 -0.2328  0.2199
 5346TIP3    H137453   0.302   3.396   5.703  0.8968 -0.5305 -1.8512
 5346TIP3    H237454   0.399   3.462   5.798 -0.4577  1.3928 -1.7562
 5347TIP3   OH237455   4.683   1.662   2.721 -0.4170 -0.0260 -0.3310
 5347TIP3    H137456   4.768   1.690   2.756  0.3812 -0.0276 -2.1609
 5347TIP3    H237457   4.626   1.738   2.734 -0.5773 -0.4652  2.1101
 5348TIP3   OH237458   0.391   0.160   4.190  0.2924  0.0733 -0.4170
 5348TIP3    H137459   0.306   0.186   4.154  0.0143 -0.6953 -0.3465
 5348TIP3    H237460   0.372   0.137   4.281  0.9194  1.6122  0.1312
 5349TIP3   OH237461   6.000   4.623  12.945 -0.2082 -0.3730  0.1925
 5349TIP3    H137462   6.017   4.578  13.028 -1.0067 -3.5816 -1.2214
 5349TIP3    H237463   6.084   4.663  12.922 -0.2528  1.7021  3.0123
 5350TIP3   OH237464   1.200   6.663   4.657 -0.2057  0.6730 -0.4451
 5350TIP3    H137465   1.166   6.696   4.573 -0.2664  0.8898 -0.3360
 5350TIP3    H237466   1.261   6.731   4.686  1.7710 -0.5228 -1.5294
 5351TIP3   OH237467   0.047   2.290  16.530 -0.4496 -0.3237 -0.1437
 5351TIP3    H137468   0.052   2.318  16.621 -1.4978 -1.7080  0.3772
 5351TIP3    H237469  -0.041   2.252  16.521  0.6324 -2.8967 -0.8817
 5352TIP3   OH237470   1.622   0.508   1.564 -0.1211  0.1119  0.2659
 5352TIP3    H137471   1.626   0.538   1.473  1.1316 -1.0007 -0.0794
 5352TIP3    H237472   1.561   0.568   1.606  0.6355  1.7797 -0.8972
 5353TIP3   OH237473   2.813   6.102  11.042 -0.0398 -0.0731  0.0006
 5353TIP3    H137474   2.814   6.128  10.950 -1.0087 -0.4509 -0.1350
 5353TIP3    H237475   2.832   6.008  11.040 -1.1079 -0.3017  0.0846
 5354TIP3   OH237476   3.763   2.863   2.480  0.6479 -0.3518 -0.1301
 5354TIP3    H137477   3.795   2.939   2.430  0.0058 -1.1026 -1.7682
 5354TIP3    H237478   3.668   2.871   2.478  0.5637  0.8866  3.1476
 5355TIP3   OH237479   2.564   5.681  10.985 -0.9786  0.2724 -0.5266
 5355TIP3    H137480   2.486   5.734  10.971 -1.7507 -0.3043  1.2776
 5355TIP3    H237481   2.531   5.591  10.994 -0.1868  0.0609  0.5768
 5356TIP3   OH237482   6.705   5.626  13.800 -0.1291  0.2619  0.0933
 5356TIP3    H137483   6.673   5.610  13.711  1.0311  0.4075 -0.3724
 5356TIP3    H237484   6.691   5.543  13.845  1.4552 -0.6153 -0.9333
 5357TIP3   OH237485   2.242   4.482  15.484  0.4326 -0.1040  0.4789
 5357TIP3    H137486   2.166   4.508  15.433 -0.2510 -0.5496  1.2451
 5357TIP3    H237487   2.308   4.549  15.465 -0.1069  0.2182 -0.2890
 5358TIP3   OH237488   3.846   5.572  11.394  0.6940 -0.4322 -0.2066
 5358TIP3    H137489   3.799   5.617  11.464 -0.5090 -1.0866 -0.5781
 5358TIP3    H237490   3.885   5.496  11.437 -1.6936 -1.9436 -0.5769
 5359TIP3   OH237491   5.869   2.760   5.534  0.2849  0.3212 -0.3323
 5359TIP3    H137492   5.807   2.687   5.532  3.2330 -2.5006  1.4435
 5359TIP3    H237493   5.885   2.780   5.442 -1.9558  0.0457 -0.8397
 5360TIP3   OH237494   0.225   4.847   2.306 -0.0208  0.1048 -0.2686
 5360TIP3    H137495   0.190   4.852   2.395 -0.1253  2.5080 -0.3981
 5360TIP3    H237496   0.300   4.788   2.313 -1.6781 -2.0182  0.8024
 5361TIP3   OH237497   0.073   1.312  11.899  0.4700  0.1306  0.0546
 5361TIP3    H137498   0.019   1.305  11.978 -0.2708  0.2420 -0.4262
 5361TIP3    H237499   0.141   1.247  11.910 -1.4597 -2.1506 -0.6214
 5362TIP3   OH237500   1.383   1.265   3.390 -0.6284 -0.2921 -0.3854
 5362TIP3    H137501   1.470   1.231   3.409 -0.1488  1.3880  0.5852
 5362TIP3    H237502   1.326   1.223   3.455 -0.1198  0.3899  0.5209
 5363TIP3   OH237503   2.590   2.366   2.070 -0.0997  0.2630 -0.2207
 5363TIP3    H137504   2.538   2.442   2.046  0.0893  0.3653 -0.3064
 5363TIP3    H237505   2.525   2.298   2.089 -0.3001  0.7365  0.8602
 5364TIP3   OH237506   1.942   4.156  11.325  0.3646 -0.0081  0.2352
 5364TIP3    H137507   1.912   4.221  11.261  0.0806  0.0770  0.4542
 5364TIP3    H237508   1.943   4.074  11.277  0.4320  0.1063  0.0403
 5365TIP3   OH237509   0.815   3.836  13.045 -0.4299 -0.6040 -0.2980
 5365TIP3    H137510   0.752   3.890  13.093  0.9108  0.3129  0.4911
 5365TIP3    H237511   0.849   3.894  12.977  0.2737 -0.7772 -0.0975
 5366TIP3   OH237512   3.752   4.995   5.169 -0.1394  0.1834  0.4780
 5366TIP3    H137513   3.794   4.911   5.153  0.9569  0.8859 -0.4815
 5366TIP3    H237514   3.659   4.979   5.153  0.3140 -0.3104 -2.2316
 5367TIP3   OH237515   0.827   4.500  14.294  0.4025  0.7689  0.2518
 5367TIP3    H137516   0.753   4.476  14.348 -0.2681  0.4074 -0.7946
 5367TIP3    H237517   0.837   4.595  14.306 -0.3007  0.8361  0.3135
 5368TIP3   OH237518   2.448   6.073  14.425 -0.4852 -0.5046 -0.3093
 5368TIP3    H137519   2.418   6.144  14.482 -1.2787 -0.0198 -1.2825
 5368TIP3    H237520   2.542   6.089  14.414 -0.5354  0.0289 -0.0162
 5369TIP3   OH237521   1.697   0.277  15.982  0.4150  0.0508  0.0349
 5369TIP3    H137522   1.731   0.218  15.915  0.3944  1.4842 -1.3084
 5369TIP3    H237523   1.775   0.314  16.023  0.4279 -0.9080  0.9102
 5370TIP3   OH237524   2.068   3.602   2.111  0.5912  0.4257  0.0427
 5370TIP3    H137525   2.040   3.662   2.180  0.5470  0.7366 -0.2370
 5370TIP3    H237526   2.118   3.534   2.155  0.1693  0.3669  0.4381
 5371TIP3   OH237527   5.571   6.100  15.861 -0.7799  0.0598 -0.5685
 5371TIP3    H137528   5.537   6.183  15.828  0.6943  0.5340 -0.9732
 5371TIP3    H237529   5.553   6.102  15.955 -0.7657  0.8227 -0.5778
 5372TIP3   OH237530   5.515   4.059   1.809 -0.2076  0.2495  0.8244
 5372TIP3    H137531   5.470   4.123   1.864  0.6589  0.4622  1.3004
 5372TIP3    H237532   5.445   4.020   1.756 -0.9063  0.7730  1.3386
 5373TIP3   OH237533   3.188   3.186  10.774 -0.2981 -0.0127 -0.1507
 5373TIP3    H137534   3.111   3.130  10.782 -0.2880 -0.0857 -0.5155
 5373TIP3    H237535   3.187   3.240  10.853  0.3465 -1.3237  0.7867
 5374TIP3   OH237536   5.773   4.292   1.446 -0.1866  0.3101  0.3829
 5374TIP3    H137537   5.695   4.301   1.501 -1.4834  0.3313 -1.3721
 5374TIP3    H237538   5.765   4.362   1.381 -1.8908 -3.0707 -3.4603
 5375TIP3   OH237539   2.898   3.027  12.543 -0.4947 -0.1595  0.4130
 5375TIP3    H137540   2.818   2.980  12.567 -2.0828  1.3834 -1.5257
 5375TIP3    H237541   2.869   3.117  12.528  0.9668 -0.1363 -3.2595
 5376TIP3   OH237542   2.542   2.160   0.351 -0.0007 -0.4353  0.1267
 5376TIP3    H137543   2.602   2.145   0.278  1.9461  1.1503  1.2962
 5376TIP3    H237544   2.484   2.230   0.319 -0.7690 -1.4435 -0.7398
 5377TIP3   OH237545   1.247   0.378   1.490  0.6667  0.0358 -0.2951
 5377TIP3    H137546   1.331   0.342   1.460 -0.5344 -2.6943 -0.6195
 5377TIP3    H237547   1.188   0.365   1.416 -0.3947  0.6474  0.4213
 5378TIP3   OH237548   0.442   0.655   2.709  0.0120  0.6115 -0.3691
 5378TIP3    H137549   0.407   0.716   2.773 -1.4462  0.9242 -1.4057
 5378TIP3    H237550   0.376   0.587   2.701  0.4691  0.2273 -1.0438
 5379TIP3   OH237551   0.804   3.531   1.187 -0.1245  0.6443 -0.1978
 5379TIP3    H137552   0.833   3.441   1.197 -1.7261  0.2005  0.8554
 5379TIP3    H237553   0.876   3.575   1.143  0.6762 -1.1512 -0.7671
 5380TIP3   OH237554   6.616   1.275   3.509  0.3945  0.1622  0.1734
 5380TIP3    H137555   6.666   1.297   3.588  0.2638  0.8762  0.0622
 5380TIP3    H237556   6.558   1.203   3.536  0.2648  0.4837  0.7619
 5381TIP3   OH237557   5.653   2.345   1.558 -0.4912  0.4041  0.3878
 5381TIP3    H137558   5.632   2.410   1.624  0.1580  0.6562  0.3530
 5381TIP3    H237559   5.656   2.262   1.605 -1.2965  0.3954  0.4371
 5382TIP3   OH237560   3.627   0.680  14.055  0.3263  0.0299 -0.3947
 5382TIP3    H137561   3.692   0.615  14.079 -1.1214 -1.6478 -0.8158
 5382TIP3    H237562   3.656   0.760  14.099  1.2623 -1.3050  1.5940
 5383TIP3   OH237563   1.870   2.489   1.547  0.3621  0.7694 -0.2472
 5383TIP3    H137564   1.862   2.396   1.526 -0.5128  0.5945  0.7326
 5383TIP3    H237565   1.825   2.534   1.475 -2.0807  0.2209  0.8345
 5384TIP3   OH237566   3.513   1.851  15.700  0.1250  0.0885  0.3344
 5384TIP3    H137567   3.483   1.779  15.645  2.3695  0.0292 -0.9273
 5384TIP3    H237568   3.555   1.809  15.775  1.6379  0.0073 -0.5136
 5385TIP3   OH237569   0.851   1.426  13.503  0.2335  0.0677 -0.4802
 5385TIP3    H137570   0.932   1.439  13.455  1.8778  0.4827  2.2259
 5385TIP3    H237571   0.831   1.511  13.542 -1.7050  0.0449 -1.2615
 5386TIP3   OH237572   6.419   3.344   4.387  0.6311  0.5629 -0.3660
 5386TIP3    H137573   6.504   3.371   4.422  0.5504  1.1700 -0.6440
 5386TIP3    H237574   6.370   3.425   4.376  0.3399  0.2977 -1.0783
 5387TIP3   OH237575   4.277   0.333  13.816 -0.1934 -0.2817 -0.2303
 5387TIP3    H137576   4.200   0.317  13.763 -0.6484 -1.2501  0.6824
 5387TIP3    H237577   4.247   0.324  13.906  0.7566  0.3836  0.1764
 5388TIP3   OH237578   0.432   1.443  12.166 -0.0403  0.1241  0.4320
 5388TIP3    H137579   0.338   1.431  12.150  0.0555 -1.8155  0.9932
 5388TIP3    H237580   0.475   1.385  12.103  0.6256 -1.0741  1.8993
 5389TIP3   OH237581   0.594   5.889  12.406 -0.5118 -0.1928  0.1779
 5389TIP3    H137582   0.664   5.934  12.453 -1.2467  0.1996  0.9243
 5389TIP3    H237583   0.635   5.858  12.325  0.2150  1.0946  0.0344
 5390TIP3   OH237584   5.581   5.586   2.168 -0.0492  0.1520 -0.0805
 5390TIP3    H137585   5.590   5.491   2.182 -0.1767  0.1335 -0.1163
 5390TIP3    H237586   5.606   5.599   2.076 -0.4974  0.0840 -0.2161
 5391TIP3   OH237587   5.502   2.792   5.519  0.0861 -0.0346 -0.0116
 5391TIP3    H137588   5.555   2.774   5.442  2.6208 -0.0386  1.6207
 5391TIP3    H237589   5.560   2.776   5.593 -1.7975  1.3066  1.8945
 5392TIP3   OH237590   1.585   5.772  13.464  0.1904 -0.1116 -0.1078
 5392TIP3    H137591   1.509   5.824  13.436  0.6962  1.3359  1.0515
 5392TIP3    H237592   1.612   5.725  13.385 -1.7360 -0.4591 -0.6024
 5393TIP3   OH237593   3.599   1.038  13.082 -0.0208 -0.2551  0.0192
 5393TIP3    H137594   3.572   0.956  13.124  0.6403  0.1335  1.2500
 5393TIP3    H237595   3.529   1.100  13.104 -0.9695 -0.6445 -1.6349
 5394TIP3   OH237596   5.804   3.005   2.814  0.4689  0.6703  0.0707
 5394TIP3    H137597   5.870   2.963   2.759  0.1788  1.0888 -0.6083
 5394TIP3    H237598   5.752   2.933   2.849  1.5792  0.2922  1.0277
 5395TIP3   OH237599   4.577   2.173  17.186  0.1523  0.0077 -0.3305
 5395TIP3    H137600   4.558   2.106  17.121 -0.8670 -0.9159  0.8655
 5395TIP3    H237601   4.547   2.136  17.269  1.6002  1.0573  0.7227
 5396TIP3   OH237602   6.540   2.396  15.030  0.3201 -0.2452  0.2222
 5396TIP3    H137603   6.583   2.374  14.948 -0.1285  1.3467 -0.4734
 5396TIP3    H237604   6.611   2.432  15.085  0.6996 -1.6826  0.7139
 5397TIP3   OH237605   3.240   4.239   5.644  0.0059 -0.3566 -0.1606
 5397TIP3    H137606   3.160   4.197   5.677  0.3906 -1.0380 -0.0599
 5397TIP3    H237607   3.234   4.230   5.548  0.2116 -0.9016 -0.1284
 5398TIP3   OH237608   5.894   1.257  13.245  0.3426  0.2657  0.2898
 5398TIP3    H137609   5.903   1.240  13.338 -0.9135 -0.0435  0.3654
 5398TIP3    H237610   5.799   1.260  13.229  0.5264  1.1543 -0.8147
 5399TIP3   OH237611   0.182   1.715  12.960  0.4861  0.2966 -0.0173
 5399TIP3    H137612   0.256   1.772  12.984  0.1925  1.2832 -1.3355
 5399TIP3    H237613   0.107   1.752  13.006  0.0001  1.9489 -2.0108
 5400TIP3   OH237614   2.333   3.516  11.111  0.0543 -0.1607 -0.1276
 5400TIP3    H137615   2.280   3.443  11.144  0.5946 -0.3817  0.2693
 5400TIP3    H237616   2.376   3.481  11.033 -0.7270  0.1630 -0.7204
 5401TIP3   OH237617   4.828   4.276  14.208 -0.1931 -0.1308 -0.4168
 5401TIP3    H137618   4.854   4.335  14.279  1.5157 -0.3835 -0.8077
 5401TIP3    H237619   4.811   4.333  14.134 -0.5647  0.0211 -0.2173
 5402TIP3   OH237620   2.324   2.877  14.596 -0.1521  0.4226 -0.4773
 5402TIP3    H137621   2.327   2.840  14.508 -0.8494 -1.1541  0.1127
 5402TIP3    H237622   2.401   2.842  14.640 -0.7858 -0.3249  0.0727
 5403TIP3   OH237623   3.353   4.535   0.245  0.1220 -0.6626  0.4940
 5403TIP3    H137624   3.326   4.547   0.154  0.4127 -0.4504  0.4375
 5403TIP3    H237625   3.275   4.500   0.288  0.5051 -2.5161 -0.2219
 5404TIP3   OH237626   1.561   1.233   1.077  0.3610 -0.0499  0.3828
 5404TIP3    H137627   1.535   1.259   0.988 -0.5982  1.1871  0.9925
 5404TIP3    H237628   1.553   1.138   1.077  0.1305 -0.0504 -0.7900
 5405TIP3   OH237629   2.812   2.400   5.562  0.3653  0.2419 -0.2583
 5405TIP3    H137630   2.874   2.431   5.495  0.5597  0.4386  0.0110
 5405TIP3    H237631   2.812   2.305   5.551  0.6465  0.2458 -0.3226
 5406TIP3   OH237632   2.362   3.636   5.324 -0.6102 -0.4324  0.0720
 5406TIP3    H137633   2.369   3.553   5.372 -1.2578 -1.8376 -2.1075
 5406TIP3    H237634   2.418   3.696   5.372 -0.9177 -1.8285  2.3231
 5407TIP3   OH237635   6.750   3.573  13.032 -0.3730  0.3680  1.0239
 5407TIP3    H137636   6.755   3.505  12.964 -0.2015  0.9311  0.4589
 5407TIP3    H237637   6.802   3.539  13.104 -0.2592 -0.0897  0.7340
 5408TIP3   OH237638   3.113   6.431   3.120 -0.3305  0.8265  0.2439
 5408TIP3    H137639   3.142   6.519   3.143 -0.7174  0.8113  0.8147
 5408TIP3    H237640   3.040   6.414   3.179 -0.5585  0.3030 -0.1843
 5409TIP3   OH237641   2.864   5.306   3.224 -0.7610 -0.6726 -0.3703
 5409TIP3    H137642   2.897   5.368   3.159 -2.0068  0.7311  0.2829
 5409TIP3    H237643   2.887   5.345   3.308 -1.5903 -1.0680  0.0476
 5410TIP3   OH237644   4.008   2.519   0.448 -0.7422  0.0935 -0.0217
 5410TIP3    H137645   3.925   2.532   0.403 -0.9750  2.0408  0.9015
 5410TIP3    H237646   3.988   2.459   0.519 -1.0212 -0.5915 -0.6628
 5411TIP3   OH237647   6.654   6.519   0.416 -0.0492  0.3468  0.0205
 5411TIP3    H137648   6.656   6.605   0.374 -1.0382  0.5816  0.4201
 5411TIP3    H237649   6.647   6.457   0.344 -1.3277  0.7267 -0.2159
 5412TIP3   OH237650   6.487   6.370   2.532 -0.1346  0.3382 -0.2577
 5412TIP3    H137651   6.430   6.365   2.455 -1.9883 -0.2134  1.0550
 5412TIP3    H237652   6.438   6.424   2.594 -0.1776 -1.7505  1.6489
 5413TIP3   OH237653   2.306   2.490  13.972  0.7319  0.6252  0.2093
 5413TIP3    H137654   2.263   2.454  13.895  2.1292 -0.2162 -0.2062
 5413TIP3    H237655   2.241   2.550  14.010 -1.0609 -1.1172  0.0383
 5414TIP3   OH237656   6.002   6.512  14.602  0.1290 -0.3626  0.0294
 5414TIP3    H137657   5.968   6.531  14.690 -1.0235 -0.8365 -0.3004
 5414TIP3    H237658   5.968   6.425  14.581  0.8971 -0.5094 -0.6507
 5415TIP3   OH237659   4.154   6.686   6.349  0.1360  0.3237  0.2872
 5415TIP3    H137660   4.081   6.632   6.320 -0.7207  1.6848 -0.2124
 5415TIP3    H237661   4.190   6.724   6.269  0.9134  0.2465  0.5945
 5416TIP3   OH237662   2.896   3.706  10.722  0.2314  0.6239  0.1474
 5416TIP3    H137663   2.908   3.721  10.628 -1.0663 -0.3292 -0.1930
 5416TIP3    H237664   2.813   3.749  10.742 -1.8306 -2.8980 -0.1425
 5417TIP3   OH237665   5.658   1.227  15.453  0.2779 -1.0117 -0.2982
 5417TIP3    H137666   5.608   1.305  15.432  1.2186 -0.6046 -1.1659
 5417TIP3    H237667   5.593   1.157  15.462 -0.5366 -0.2150  0.0903
 5418TIP3   OH237668   4.050   6.627  13.586 -0.8105 -0.0622  0.4027
 5418TIP3    H137669   4.036   6.673  13.669 -1.2621  1.1286 -0.3027
 5418TIP3    H237670   4.140   6.649  13.561 -0.2722 -1.3394  1.0961
 5419TIP3   OH237671   3.687   1.877   0.770  0.5830  0.6902  0.0738
 5419TIP3    H137672   3.767   1.919   0.803  1.5239  0.6826 -2.0659
 5419TIP3    H237673   3.689   1.892   0.675  0.6657 -3.6418 -0.7990
 5420TIP3   OH237674   4.089   0.718  12.962  0.5448  0.0916  0.3292
 5420TIP3    H137675   4.182   0.707  12.944  0.7440 -1.3955  1.9748
 5420TIP3    H237676   4.081   0.705  13.057 -1.2043  1.2912  0.4068
 5421TIP3   OH237677   5.931   2.913   4.780  0.3303 -0.7162 -0.1366
 5421TIP3    H137678   5.954   2.853   4.851 -0.2790 -1.2852 -0.4114
 5421TIP3    H237679   5.836   2.910   4.775  0.3033  0.0558 -0.3536
 5422TIP3   OH237680   4.558   0.643   1.053 -0.0535 -0.1859 -0.6348
 5422TIP3    H137681   4.506   0.708   1.006  0.2580  0.8439  0.3958
 5422TIP3    H237682   4.494   0.590   1.101 -0.3074 -0.6489 -1.4640
 5423TIP3   OH237683   3.981   3.113  15.515  0.6182  0.3075  0.4016
 5423TIP3    H137684   4.023   3.196  15.538  0.5067  0.5346 -0.2067
 5423TIP3    H237685   3.989   3.107  15.420 -1.2173  0.6436  0.1764
 5424TIP3   OH237686   1.091   3.946   1.432  0.2063  0.1916  0.2130
 5424TIP3    H137687   1.110   4.039   1.422  0.7833  0.0861  0.3148
 5424TIP3    H237688   1.047   3.921   1.351 -0.0758  0.5786  0.2433
 5425TIP3   OH237689   0.562   1.737  14.883 -0.5257  0.5543  0.2494
 5425TIP3    H137690   0.651   1.733  14.847 -0.4534  0.0535  0.4780
 5425TIP3    H237691   0.534   1.827  14.868 -0.3571  0.4495 -0.7326
 5426TIP3   OH237692   1.200   3.332  14.734  0.4500 -0.1870 -0.4118
 5426TIP3    H137693   1.181   3.381  14.814 -0.3869  0.8562 -1.2270
 5426TIP3    H237694   1.118   3.334  14.684  1.0946 -0.3945 -1.5199
 5427TIP3   OH237695   6.122   2.836   5.890 -0.3493  0.0117  0.2469
 5427TIP3    H137696   6.153   2.760   5.940 -2.7169 -0.7769  0.6722
 5427TIP3    H237697   6.167   2.911   5.929 -0.3557 -0.8432  1.9994
 5428TIP3   OH237698   0.198   3.724   1.004 -0.6242 -0.1505  0.1472
 5428TIP3    H137699   0.124   3.773   1.041 -1.5262 -0.9309 -0.5872
 5428TIP3    H237700   0.175   3.710   0.912  1.4286  1.4824 -0.7157
 5429TIP3   OH237701   5.233   4.768  13.984  0.1989  0.1987 -0.5282
 5429TIP3    H137702   5.211   4.756  13.892 -0.7059  2.0500 -0.6041
 5429TIP3    H237703   5.243   4.680  14.018 -0.1693 -0.5378 -2.2255
 5430TIP3   OH237704   3.703   4.273  15.721  0.4738 -0.2714 -0.5284
 5430TIP3    H137705   3.645   4.349  15.733 -0.3283 -0.6523 -1.8197
 5430TIP3    H237706   3.665   4.205  15.775  1.0960  0.1665  0.4966
 5431TIP3   OH237707   2.681   0.740  16.858 -0.5355  0.1136  0.7251
 5431TIP3    H137708   2.722   0.703  16.779 -0.6596  0.5186  0.4703
 5431TIP3    H237709   2.755   0.766  16.913 -0.4497  0.2764  0.5328
 5432TIP3   OH237710   6.602   2.088   2.751  0.2173 -0.3579  0.6550
 5432TIP3    H137711   6.696   2.094   2.733  0.0998 -1.3395 -0.4300
 5432TIP3    H237712   6.584   2.160   2.811  1.7311 -0.3822  1.1779
 5433TIP3   OH237713   2.075   5.026  14.689  0.5415 -0.8965 -0.6812
 5433TIP3    H137714   2.165   5.041  14.658  1.0049 -0.1564  0.9306
 5433TIP3    H237715   2.040   5.114  14.706  0.3297 -1.2515  0.8747
 5434TIP3   OH237716   0.777   3.514  13.536 -0.1815 -0.0933 -0.6720
 5434TIP3    H137717   0.786   3.419  13.532  3.2907  0.0729 -0.2209
 5434TIP3    H237718   0.768   3.534  13.629  1.3375  0.0565 -0.5240
 5435TIP3   OH237719   1.715   1.237  12.393 -0.6259 -0.0659  0.2280
 5435TIP3    H137720   1.760   1.173  12.338 -0.9470 -1.0513  1.0835
 5435TIP3    H237721   1.730   1.321  12.349  2.4672 -0.2379  0.7438
 5436TIP3   OH237722   1.913   6.281   4.474 -0.3300 -0.0498 -0.2289
 5436TIP3    H137723   1.928   6.375   4.462  0.3154  0.0700  1.2731
 5436TIP3    H237724   1.831   6.277   4.524  0.3414 -0.1906  0.9026
 5437TIP3   OH237725   2.477   5.577  13.787  0.2955  0.2230  0.2124
 5437TIP3    H137726   2.443   5.549  13.702  0.2578 -1.8688  0.8586
 5437TIP3    H237727   2.515   5.664  13.770 -0.5881  0.2913 -1.6916
 5438TIP3   OH237728   6.191   3.279  12.636  0.4294  0.0416 -0.0284
 5438TIP3    H137729   6.262   3.303  12.576  0.2125 -0.9958 -0.7388
 5438TIP3    H237730   6.203   3.336  12.711  1.7418  0.2102 -0.3347
 5439TIP3   OH237731   3.069   6.012   5.505 -0.4998  0.0069 -0.0579
 5439TIP3    H137732   3.059   6.066   5.427  1.0049 -1.8473 -1.6348
 5439TIP3    H237733   2.995   5.951   5.502 -0.0180 -0.5706 -0.5044
 5440TIP3   OH237734   0.796   5.329  16.586  0.6903 -0.0873 -0.3433
 5440TIP3    H137735   0.869   5.279  16.623  1.8038 -0.0054 -2.3094
 5440TIP3    H237736   0.768   5.277  16.510 -1.5362 -0.2734  0.5143
 5441TIP3   OH237737   5.253   2.961  13.893 -0.0075  0.3518 -0.1342
 5441TIP3    H137738   5.269   2.878  13.848 -0.4538 -0.3404  0.9245
 5441TIP3    H237739   5.325   3.018  13.866  1.9597 -1.3093  1.3223
 5442TIP3   OH237740   0.801   5.471  15.729 -0.0494  0.0511  0.0507
 5442TIP3    H137741   0.766   5.399  15.782 -1.0812  0.1506 -0.4544
 5442TIP3    H237742   0.896   5.462  15.736 -0.1448 -1.4384 -0.0878
 5443TIP3   OH237743   3.155   4.501  15.806 -0.2079 -0.0286  0.0337
 5443TIP3    H137744   3.207   4.489  15.886 -1.4492  0.7746  0.9917
 5443TIP3    H237745   3.164   4.594  15.786 -0.3803 -0.1095 -0.4224
 5444TIP3   OH237746   1.551   0.739  13.657  0.2628  0.0216  0.1155
 5444TIP3    H137747   1.618   0.708  13.719 -1.2149 -0.3679  1.5990
 5444TIP3    H237748   1.597   0.801  13.601  2.3796 -1.8123 -0.3379
 5445TIP3   OH237749   3.665   5.265   2.338 -0.1119 -0.3302 -0.0737
 5445TIP3    H137750   3.632   5.192   2.286  0.0305  0.0300 -0.6665
 5445TIP3    H237751   3.587   5.306   2.375 -0.2211 -0.4779 -0.1423
 5446TIP3   OH237752   0.348   4.314   3.105 -0.5121 -1.2156 -0.2015
 5446TIP3    H137753   0.263   4.350   3.078 -0.8287 -0.6144  1.4823
 5446TIP3    H237754   0.408   4.338   3.034 -1.5204 -0.7206 -0.9095
 5447TIP3   OH237755   1.630   6.054   5.303  0.1002 -0.1525  0.0099
 5447TIP3    H137756   1.617   6.094   5.389 -2.4125  2.2263 -1.2798
 5447TIP3    H237757   1.690   6.113   5.258 -0.8259  0.2547 -0.7432
 5448TIP3   OH237758   6.068   4.582   4.259  0.3160 -0.1847 -0.2520
 5448TIP3    H137759   6.114   4.600   4.341  2.0869  0.5450 -1.3506
 5448TIP3    H237760   6.113   4.634   4.193 -1.4757 -0.2378 -1.6161
 5449TIP3   OH237761   3.632   3.993  11.318 -0.2058  0.2313 -0.3031
 5449TIP3    H137762   3.660   3.928  11.253 -1.4126  0.0199 -0.6314
 5449TIP3    H237763   3.662   3.958  11.401  1.0356  0.3179 -0.6959
 5450TIP3   OH237764   4.461   1.725  12.663 -0.2549  0.4985 -0.3513
 5450TIP3    H137765   4.456   1.807  12.615  1.5627  0.9679  0.1703
 5450TIP3    H237766   4.544   1.686  12.634 -0.5069 -0.5591  0.3086
 5451TIP3   OH237767   4.074   0.539  11.207  0.3750 -0.1351  0.4298
 5451TIP3    H137768   4.004   0.604  11.217 -1.1492 -1.4207 -1.1859
 5451TIP3    H237769   4.055   0.473  11.275 -0.5556 -0.9095 -0.5389
 5452TIP3   OH237770   5.222   1.766   1.680  0.3205  0.3301 -0.3237
 5452TIP3    H137771   5.146   1.748   1.735  0.6378  0.5717  0.2062
 5452TIP3    H237772   5.190   1.757   1.590 -0.5787  1.3658 -0.1335
 5453TIP3   OH237773   5.724   3.154   1.978  0.2503  0.3627 -0.2888
 5453TIP3    H137774   5.723   3.170   2.072  1.1963  0.8674 -0.3563
 5453TIP3    H237775   5.633   3.131   1.957  0.6265 -3.2668  1.3265
 5454TIP3   OH237776   0.299   6.376  13.492  0.1780 -0.5973  0.3964
 5454TIP3    H137777   0.314   6.290  13.532  1.0980 -0.3553  0.5894
 5454TIP3    H237778   0.386   6.406  13.465 -0.0118  0.6174  1.0407
 5455TIP3   OH237779   5.060   3.836  11.031  0.0554  0.3699 -0.7348
 5455TIP3    H137780   5.123   3.846  11.102 -1.2859  2.6812  0.2612
 5455TIP3    H237781   4.989   3.783  11.068 -0.4332  1.1926 -0.4645
 5456TIP3   OH237782   1.324   4.193   4.664 -0.4267 -0.9701 -0.3818
 5456TIP3    H137783   1.354   4.230   4.747  0.7727 -2.0717 -0.2858
 5456TIP3    H237784   1.339   4.099   4.672 -0.5440 -1.1349 -1.7351
 5457TIP3   OH237785   0.412   2.350  12.721  0.2447 -0.2898 -0.0862
 5457TIP3    H137786   0.430   2.312  12.635 -0.1039  1.2471 -0.8745
 5457TIP3    H237787   0.325   2.318  12.744 -0.7215  1.2457 -1.4685
 5458TIP3   OH237788   0.982   4.283  12.887 -0.7587  0.0796  0.2517
 5458TIP3    H137789   1.045   4.212  12.898  0.5012  0.7851 -1.8667
 5458TIP3    H237790   0.919   4.249  12.822 -1.1021  0.3060  0.4609
 5459TIP3   OH237791   4.414   5.074  12.392 -0.2187  0.1812  0.2681
 5459TIP3    H137792   4.439   4.987  12.363  1.2442  0.6973 -0.1182
 5459TIP3    H237793   4.322   5.066  12.418 -0.2113 -1.3689 -0.1206
 5460TIP3   OH237794   5.853   4.086   4.625 -0.0149 -0.4776  0.1976
 5460TIP3    H137795   5.847   4.171   4.582 -0.7432 -1.7289 -2.4260
 5460TIP3    H237796   5.769   4.075   4.669 -0.4939 -0.4256 -0.6898
 5461TIP3   OH237797   4.001   1.152   5.539 -0.2739 -0.7419 -0.0375
 5461TIP3    H137798   3.911   1.124   5.522 -0.5036 -1.2674  1.7798
 5461TIP3    H237799   4.030   1.096   5.611  1.0802  0.2267  0.2098
 5462TIP3   OH237800   1.464   2.715   4.111  0.8775  0.0182 -0.7694
 5462TIP3    H137801   1.553   2.685   4.127  0.6309  0.4297  1.7282
 5462TIP3    H237802   1.410   2.636   4.122  0.8638 -0.1761 -2.0271
 5463TIP3   OH237803   0.880   0.548   4.398 -0.3411  0.6623  0.1511
 5463TIP3    H137804   0.946   0.611   4.370  0.5865 -0.0915  0.5695
 5463TIP3    H237805   0.796   0.586   4.371  0.3199  1.2208 -1.1963
 5464TIP3   OH237806   5.459   3.886   3.966 -0.1533 -0.5160 -0.0773
 5464TIP3    H137807   5.463   3.937   3.885 -0.6222  1.6963  1.2175
 5464TIP3    H237808   5.550   3.867   3.987  0.1867  1.4048  0.3395
 5465TIP3   OH237809   6.568   1.430  15.400  0.4838  0.0208 -0.5179
 5465TIP3    H137810   6.477   1.447  15.375 -0.0566 -0.3504  1.1213
 5465TIP3    H237811   6.568   1.432  15.495  2.2757  0.3489 -0.4883
 5466TIP3   OH237812   0.683   0.441  13.810 -0.0724 -0.7108 -0.9032
 5466TIP3    H137813   0.695   0.417  13.718 -0.0833 -0.0240 -1.0958
 5466TIP3    H237814   0.588   0.447  13.822 -0.0545  1.0189 -1.3640
 5467TIP3   OH237815   3.445   1.336   5.266 -0.0044 -0.8833 -0.0857
 5467TIP3    H137816   3.395   1.340   5.348 -0.9773 -0.3438 -0.6832
 5467TIP3    H237817   3.402   1.269   5.214 -0.8089  0.3075 -1.0263
 5468TIP3   OH237818   1.078   3.350   2.663  0.3883  0.0937 -0.4475
 5468TIP3    H137819   1.084   3.290   2.738 -2.4758  0.9974  0.6346
 5468TIP3    H237820   1.087   3.437   2.702 -0.3978  0.5552 -1.2695
 5469TIP3   OH237821   4.441   1.851  10.228 -0.4016  0.3762  0.4952
 5469TIP3    H137822   4.508   1.909  10.266  1.5763 -1.5123  0.0652
 5469TIP3    H237823   4.398   1.812  10.304  0.9370 -0.4959  0.8416
 5470TIP3   OH237824   5.436   3.926  11.433  0.0599  0.3570  0.2209
 5470TIP3    H137825   5.518   3.975  11.440  1.6540 -2.1668  0.8892
 5470TIP3    H237826   5.418   3.897  11.523 -1.6446  0.9348  0.0948
 5471TIP3   OH237827   6.271   4.783   4.412  0.0944  0.9986 -0.0994
 5471TIP3    H137828   6.362   4.759   4.395 -0.0895  0.5909 -0.5259
 5471TIP3    H237829   6.244   4.726   4.485 -0.8051 -1.2855 -2.0713
 5472TIP3   OH237830   4.269   4.171   2.443  0.3361  0.0203  0.4833
 5472TIP3    H137831   4.220   4.220   2.509  0.0892  0.5195 -0.0639
 5472TIP3    H237832   4.341   4.229   2.417 -0.8549  0.7859 -1.3081
 5473TIP3   OH237833   5.259   4.056  12.129  0.3483  0.5480  0.8079
 5473TIP3    H137834   5.341   4.105  12.126  1.2996 -1.0359  0.2533
 5473TIP3    H237835   5.196   4.113  12.084  2.2204 -0.1241 -3.0365
 5474TIP3   OH237836   0.986   3.802  14.332  0.3766 -0.5141  0.2471
 5474TIP3    H137837   1.012   3.736  14.396  5.0165  0.4656 -0.2482
 5474TIP3    H237838   0.943   3.753  14.262  0.7640 -2.4911  1.3349
 5475TIP3   OH237839   1.457   0.355   1.319  0.4401 -0.3532 -0.6114
 5475TIP3    H137840   1.395   0.392   1.256 -0.4221 -0.1300  0.3510
 5475TIP3    H237841   1.543   0.380   1.285 -0.0765  1.7786 -0.4926
 5476TIP3   OH237842   5.822   4.242   0.770 -0.5419  0.6225  0.2363
 5476TIP3    H137843   5.900   4.262   0.821 -1.2007 -0.3619  1.7090
 5476TIP3    H237844   5.815   4.147   0.772 -1.2351  0.6371 -0.7138
 5477TIP3   OH237845   3.690   4.697  15.737  0.4397  0.1124  0.6891
 5477TIP3    H137846   3.618   4.634  15.742  0.2207  0.0059 -2.1740
 5477TIP3    H237847   3.768   4.647  15.762  0.1902 -1.2179 -1.0229
 5478TIP3   OH237848   4.691   6.582  15.738  0.0239  0.5573  0.1143
 5478TIP3    H137849   4.660   6.498  15.704  0.5437  0.2940  0.2712
 5478TIP3    H237850   4.659   6.585  15.828  0.1939  0.4170  0.1820
 5479TIP3   OH237851   3.134   1.112   4.363  0.6077 -0.2033  0.4941
 5479TIP3    H137852   3.169   1.070   4.441  2.0605  2.3259  1.3000
 5479TIP3    H237853   3.065   1.169   4.396  0.3648 -0.0508 -0.2559
 5480TIP3   OH237854   4.164   2.539   5.849  0.6710 -0.1806  0.5358
 5480TIP3    H137855   4.182   2.540   5.943  0.3760 -1.7843  0.6376
 5480TIP3    H237856   4.088   2.482   5.839  1.2844 -0.8240 -0.7652
 5481TIP3   OH237857   5.794   5.024  17.025  0.0059  0.0297  0.4221
 5481TIP3    H137858   5.817   5.090  17.089  1.2152 -1.6166  1.7839
 5481TIP3    H237859   5.878   4.990  16.993 -0.4928 -1.9370  1.0143
 5482TIP3   OH237860   3.527   0.067   5.242 -0.8560  0.0873  0.3901
 5482TIP3    H137861   3.461   0.080   5.174 -1.5148 -1.3871  0.7122
 5482TIP3    H237862   3.524  -0.027   5.261  0.3361  0.2355  1.4292
 5483TIP3   OH237863   0.697   1.658  14.138  0.0041 -1.1219  0.2211
 5483TIP3    H137864   0.667   1.694  14.055  0.9834  0.3212  0.4747
 5483TIP3    H237865   0.792   1.660  14.133  0.1130  0.4037  1.9328
 5484TIP3   OH237866   2.582   2.049  10.937 -0.2564  0.7107 -0.5915
 5484TIP3    H137867   2.625   2.097  11.007 -0.6394 -1.6108  1.3336
 5484TIP3    H237868   2.499   2.021  10.975  0.0135 -1.5749 -1.5673
 5485TIP3   OH237869   1.507   0.211   4.856  0.5755  0.5095 -0.1312
 5485TIP3    H137870   1.562   0.217   4.778 -0.8570 -0.3394 -1.2612
 5485TIP3    H237871   1.453   0.134   4.842 -0.8676  1.2668  0.9351
 5486TIP3   OH237872   2.316   6.735   6.175  0.4712 -0.7315  0.4620
 5486TIP3    H137873   2.233   6.758   6.132  0.6547 -0.2283  0.3612
 5486TIP3    H237874   2.351   6.664   6.122  0.6029 -0.2440 -0.1254
 5487TIP3   OH237875   6.310   1.772  12.302  0.1311 -0.9716  0.2625
 5487TIP3    H137876   6.245   1.797  12.369  0.0950  0.5953 -0.3115
 5487TIP3    H237877   6.279   1.688  12.269 -2.2178  0.1435 -0.6598
 5488TIP3   OH237878   4.651   1.193   0.876 -0.3468  0.4756  0.1674
 5488TIP3    H137879   4.609   1.185   0.962 -0.5022  1.4443  0.1948
 5488TIP3    H237880   4.583   1.232   0.821 -0.3722 -0.4959 -0.4961
 5489TIP3   OH237881   0.064   2.532  14.829  0.0584 -0.0388  0.1278
 5489TIP3    H137882   0.125   2.460  14.846  2.1374  1.7388  0.8065
 5489TIP3    H237883   0.014   2.540  14.911 -1.2126 -1.5509 -0.4545
 5490TIP3   OH237884   4.900   2.197  14.740 -0.0300  0.3979  0.1022
 5490TIP3    H137885   4.981   2.249  14.745  0.6600 -0.6386 -0.0334
 5490TIP3    H237886   4.925   2.118  14.692 -1.1928  0.1670 -0.1538
 5491TIP3   OH237887   4.051   3.267  10.924  0.4802 -0.0188  0.2481
 5491TIP3    H137888   4.037   3.361  10.938 -1.4226  0.3885 -3.3459
 5491TIP3    H237889   3.975   3.226  10.965 -0.8365  0.4469 -1.6020
 5492TIP3   OH237890   5.657   5.679  16.060 -0.9017 -0.4232  0.2554
 5492TIP3    H137891   5.676   5.588  16.039 -0.0021 -0.5370  1.4578
 5492TIP3    H237892   5.693   5.729  15.986 -1.6751 -1.0370 -0.5601
 5493TIP3   OH237893   0.301   2.741  12.552 -0.1825  0.5166  0.2637
 5493TIP3    H137894   0.243   2.735  12.476 -0.3709  2.2211  0.2370
 5493TIP3    H237895   0.242   2.735  12.628 -0.5841  3.0255  0.2416
 5494TIP3   OH237896   3.288   5.413   1.442  0.1909  0.5893 -0.1979
 5494TIP3    H137897   3.267   5.338   1.497  0.3479 -0.6628 -1.7510
 5494TIP3    H237898   3.252   5.488   1.488  0.3297 -0.3844  1.5829
 5495TIP3   OH237899   2.159   5.263   2.727 -0.0435 -0.2523  0.2314
 5495TIP3    H137900   2.135   5.202   2.795 -0.9404 -0.6482 -0.4202
 5495TIP3    H237901   2.075   5.296   2.693  0.2144 -1.8381 -2.2583
 5496TIP3   OH237902   1.044   0.918  16.776 -0.3007 -0.3003 -0.6019
 5496TIP3    H137903   1.017   0.832  16.809 -1.8978  0.4978  0.3120
 5496TIP3    H237904   0.976   0.978  16.808  0.5998  1.2552 -1.4913
 5497TIP3   OH237905   3.686   4.684  16.305 -0.3128  0.8754 -0.4294
 5497TIP3    H137906   3.669   4.749  16.237  0.2482  0.6525 -0.7858
 5497TIP3    H237907   3.644   4.605  16.274  0.8372  0.4795 -1.0421
 5498TIP3   OH237908   5.036   2.051   3.232  0.0210 -0.0257  0.4265
 5498TIP3    H137909   5.111   2.099   3.266  0.8266  0.5031 -1.9592
 5498TIP3    H237910   5.040   1.966   3.276  2.7041 -0.4410 -0.4718
 5499TIP3   OH237911   5.421   4.338   4.490 -0.2744 -0.3723  0.1805
 5499TIP3    H137912   5.412   4.254   4.446  1.3464 -0.4966  0.0306
 5499TIP3    H237913   5.415   4.318   4.584 -0.8897 -0.5058  0.1130
 5500TIP3   OH237914   2.113   5.712   4.115  0.1474 -0.5719 -0.0243
 5500TIP3    H137915   2.020   5.736   4.118  0.1780 -0.5227  0.6969
 5500TIP3    H237916   2.145   5.729   4.204  0.9896 -0.0520 -0.4227
 5501TIP3   OH237917   2.169   0.803  13.871 -0.1190 -0.4653  0.1099
 5501TIP3    H137918   2.179   0.718  13.829  1.3476 -0.3790  0.2428
 5501TIP3    H237919   2.137   0.861  13.801 -1.2590 -1.1239  0.0530
 5502TIP3   OH237920   4.896   0.286  14.192 -0.1657  1.0661  0.0152
 5502TIP3    H137921   4.932   0.251  14.111 -0.8926 -1.2059  0.6026
 5502TIP3    H237922   4.802   0.295  14.175 -0.2223  1.2292  0.3914
 5503TIP3   OH237923   1.630   5.721  12.744  0.3555 -0.0751 -0.0715
 5503TIP3    H137924   1.657   5.807  12.713  0.1257  0.2236  0.5523
 5503TIP3    H237925   1.571   5.688  12.676 -0.6860  0.8579  0.3559
 5504TIP3   OH237926   6.452   6.276  17.124  0.2836 -0.2525 -0.0470
 5504TIP3    H137927   6.381   6.234  17.075 -0.1844 -0.3793  0.7257
 5504TIP3    H237928   6.419   6.283  17.213 -0.2695  3.1595 -0.4226
 5505TIP3   OH237929   0.003   0.754  16.096 -0.1273 -0.0413  0.5315
 5505TIP3    H137930  -0.078   0.704  16.088 -0.6111  0.8176 -0.1336
 5505TIP3    H237931  -0.024   0.837  16.136  0.1570  0.8296 -1.0123
 5506TIP3   OH237932   2.488   4.612   6.272 -0.0590  0.0420 -0.1962
 5506TIP3    H137933   2.527   4.597   6.358  0.7637  0.9242 -0.3956
 5506TIP3    H237934   2.401   4.648   6.291  0.4356  1.0261  0.2965
 5507TIP3   OH237935   1.214   5.411   0.020  0.8118 -0.8872 -0.1791
 5507TIP3    H137936   1.154   5.355   0.070  0.8641 -2.7141 -2.0278
 5507TIP3    H237937   1.165   5.434  -0.059  2.1748 -1.6404 -1.2896
 5508TIP3   OH237938   1.621   3.053   6.016  1.0371 -0.1032 -0.4434
 5508TIP3    H137939   1.606   3.144   6.041  2.2670 -0.0035  0.0241
 5508TIP3    H237940   1.608   3.003   6.096  3.9164  0.0995  0.2704
 5509TIP3   OH237941   5.990   2.436  12.414 -0.0630  0.0206  0.1783
 5509TIP3    H137942   6.057   2.410  12.477 -0.9407  0.5456  1.3694
 5509TIP3    H237943   5.960   2.354  12.375  1.6065 -0.1806 -0.7722
 5510TIP3   OH237944   0.384   4.647   2.208  0.1137  0.1013 -0.0948
 5510TIP3    H137945   0.331   4.671   2.132  0.7506  1.5463 -0.1207
 5510TIP3    H237946   0.473   4.677   2.186  0.4276  0.0191  0.9698
 5511TIP3   OH237947   1.730   2.546  15.122 -0.0557 -0.2387 -0.3332
 5511TIP3    H137948   1.768   2.538  15.034  1.0113 -1.2486  0.1890
 5511TIP3    H237949   1.692   2.459  15.139  2.8969 -1.2968  1.5583
 5512TIP3   OH237950   6.429   1.981  13.588 -0.2629  0.1005  0.4167
 5512TIP3    H137951   6.336   1.999  13.605 -0.2086  1.0362 -0.2024
 5512TIP3    H237952   6.428   1.905  13.530 -0.6834  0.5750 -0.2100
 5513TIP3   OH237953   6.154   6.607  13.167 -0.1465  0.1017 -0.1399
 5513TIP3    H137954   6.111   6.672  13.222 -1.1693  0.3234 -1.1789
 5513TIP3    H237955   6.205   6.554  13.229  0.9057  1.9968  0.7150
 5514TIP3   OH237956   5.414   3.538   5.684  0.2504  0.2632  0.2159
 5514TIP3    H137957   5.410   3.458   5.737 -0.7779  0.4209  0.3968
 5514TIP3    H237958   5.504   3.540   5.650 -0.2141 -2.0204 -1.4189
 5515TIP3   OH237959   6.183   5.842   4.809 -0.0583  0.0693  0.1856
 5515TIP3    H137960   6.258   5.896   4.787 -0.2387  0.1086 -0.3557
 5515TIP3    H237961   6.180   5.842   4.904  1.6551 -1.3458  0.2972
 5516TIP3   OH237962   6.055   2.698  12.283  0.0289 -0.6794 -0.3033
 5516TIP3    H137963   5.994   2.770  12.303  1.0695 -0.0297  0.6248
 5516TIP3    H237964   6.004   2.619  12.300 -0.9064 -0.1654 -0.6230
 5517TIP3   OH237965   1.902   1.074   5.221 -0.5360 -0.5828  0.4107
 5517TIP3    H137966   1.807   1.076   5.218 -0.5443  0.3949  0.8373
 5517TIP3    H237967   1.923   1.014   5.292 -0.8254 -1.1137  0.0475
 5518TIP3   OH237968   6.673   3.667   6.098  0.6248  0.3175 -0.1775
 5518TIP3    H137969   6.720   3.740   6.139  0.7732 -0.6260  1.3906
 5518TIP3    H237970   6.585   3.701   6.083  0.0426  0.1877  2.5518
 5519TIP3   OH237971   1.774   2.803   1.246  0.1392 -0.1975 -0.0438
 5519TIP3    H137972   1.813   2.720   1.274  1.5085  0.9837  1.8605
 5519TIP3    H237973   1.692   2.809   1.295  0.1624 -0.3077  0.0081
 5520TIP3   OH237974   4.661   1.103  14.222  0.3577 -0.3005  0.1006
 5520TIP3    H137975   4.670   1.011  14.197  2.3140 -0.2724  0.5311
 5520TIP3    H237976   4.699   1.152  14.149 -0.0025  0.1302  0.1978
 5521TIP3   OH237977   4.701   1.927   5.152 -0.1869  0.0003 -0.4159
 5521TIP3    H137978   4.794   1.909   5.141 -0.3012 -0.5714 -0.5227
 5521TIP3    H237979   4.667   1.931   5.063 -0.4632 -0.9431 -0.3632
 5522TIP3   OH237980   6.752   2.380   1.192 -0.1328 -0.5978  0.2335
 5522TIP3    H137981   6.736   2.378   1.287 -0.6813  0.1128  0.1597
 5522TIP3    H237982   6.822   2.316   1.179 -1.0230 -1.7594  0.9280
 5523TIP3   OH237983   1.611   3.798  12.579 -0.1721 -0.1724 -0.1448
 5523TIP3    H137984   1.578   3.886  12.556  0.8630  0.1161 -0.5784
 5523TIP3    H237985   1.534   3.752  12.610 -0.8186  0.7738 -0.2783
 5524TIP3   OH237986   6.324   6.456  14.642  0.8132  0.5775  0.3513
 5524TIP3    H137987   6.389   6.512  14.599 -0.4721  0.8643 -1.3301
 5524TIP3    H237988   6.249   6.513  14.656  0.9545  0.3160  2.5086
 5525TIP3   OH237989   1.544   4.017  15.865 -0.1652  0.4547  0.2411
 5525TIP3    H137990   1.546   4.006  15.770  0.3921 -0.6645  0.3590
 5525TIP3    H237991   1.465   3.970  15.893  0.7608 -1.0471  0.4923
 5526TIP3   OH237992   0.313   0.480  12.362  0.5925  0.2917 -0.1509
 5526TIP3    H137993   0.283   0.540  12.294 -0.0764 -0.5518 -0.6180
 5526TIP3    H237994   0.409   0.487  12.359  0.5729  0.3423 -1.1147
 5527TIP3   OH237995   2.840   3.552   3.171  0.1969  0.2790  0.3510
 5527TIP3    H137996   2.828   3.469   3.125  2.6996  1.2835 -2.4529
 5527TIP3    H237997   2.924   3.543   3.215  0.4915  1.2894  0.0168
 5528TIP3   OH237998   5.269   3.784  12.661 -1.1788  0.1328  0.5382
 5528TIP3    H137999   5.242   3.730  12.587 -1.3774 -1.7609  1.9111
 5528TIP3    H238000   5.340   3.735  12.703  0.1054  1.9847  0.6524
 5529TIP3   OH238001   3.746   0.891  14.197  0.2165  0.1392  0.5754
 5529TIP3    H138002   3.840   0.898  14.182  0.1975 -1.3495 -0.4793
 5529TIP3    H238003   3.733   0.922  14.287  1.4242  2.1366  0.1034
 5530TIP3   OH238004   4.201   0.195  11.699 -0.4368  0.1549  0.2161
 5530TIP3    H138005   4.188   0.101  11.694 -1.3020  0.2003  1.3230
 5530TIP3    H238006   4.294   0.206  11.718  0.3807 -0.3411 -2.8520
 5531TIP3   OH238007   0.817   0.931  12.198  0.1314  0.6016  0.7998
 5531TIP3    H138008   0.828   1.022  12.169  0.4373  0.1606 -0.5300
 5531TIP3    H238009   0.869   0.926  12.278 -0.7968  1.8838  1.5277
 5532TIP3   OH238010   2.023   0.531   0.659  0.0650 -0.6049 -0.2341
 5532TIP3    H138011   2.047   0.447   0.620 -0.5979 -0.6741 -0.5127
 5532TIP3    H238012   2.090   0.592   0.628  0.2267 -0.9134 -0.4935
 5533TIP3   OH238013   2.872   0.229   0.966  0.0954  0.6080 -0.3601
 5533TIP3    H138014   2.802   0.172   1.001  0.4882  0.0553 -0.4637
 5533TIP3    H238015   2.950   0.204   1.015  0.2528  1.1403 -0.3327
 5534TIP3   OH238016   2.218   6.715  15.023  0.4012  0.2927 -0.0772
 5534TIP3    H138017   2.267   6.683  14.947 -0.1450 -0.7562 -0.0014
 5534TIP3    H238018   2.244   6.656  15.094  0.6373  1.0468  0.4728
 5535TIP3   OH238019   1.658   5.685  11.372  0.3766  0.1996 -0.5220
 5535TIP3    H138020   1.652   5.656  11.463 -1.9235  0.9029 -0.3787
 5535TIP3    H238021   1.746   5.720  11.364  2.0233 -3.3232  0.3050
 5536TIP3   OH238022   6.265   5.042  16.209 -0.2618 -0.4252 -0.0055
 5536TIP3    H138023   6.323   5.077  16.276 -2.7528  0.8862  1.6292
 5536TIP3    H238024   6.276   5.101  16.134  1.0445 -0.6858 -0.0445
 5537TIP3   OH238025   3.326   5.336   5.781  0.1445 -0.5439  0.2538
 5537TIP3    H138026   3.237   5.305   5.798  0.3365 -0.8011  0.8267
 5537TIP3    H238027   3.369   5.261   5.739 -0.0636 -0.2283 -0.5317
 5538TIP3   OH238028   1.270   3.226   5.251  0.2503 -0.3257  0.0853
 5538TIP3    H138029   1.253   3.166   5.178  1.2533  0.0914 -0.5176
 5538TIP3    H238030   1.357   3.261   5.232  0.4032 -0.0007  1.3521
 5539TIP3   OH238031   3.347   0.347  11.089 -0.6180 -0.2913  0.4752
 5539TIP3    H138032   3.324   0.373  11.179  0.6444 -1.6783  1.2605
 5539TIP3    H238033   3.271   0.299  11.058 -0.5395 -1.0392  1.3717
 5540TIP3   OH238034   5.145   0.549   4.243  0.0530  0.8396 -1.0942
 5540TIP3    H138035   5.194   0.472   4.215  0.5014  1.3624 -1.8021
 5540TIP3    H238036   5.128   0.596   4.161 -0.3952  1.3842 -0.6916
 5541TIP3   OH238037   0.305   6.747  15.730  0.2949  0.4297 -0.3114
 5541TIP3    H138038   0.345   6.818  15.780  1.8400 -0.5173 -0.1249
 5541TIP3    H238039   0.233   6.717  15.784  1.4291 -0.0330  1.0023
 5542TIP3   OH238040   1.085   3.400  14.213 -0.5899  0.2807  0.2199
 5542TIP3    H138041   1.013   3.432  14.266 -0.2685  1.2253  0.1089
 5542TIP3    H238042   1.155   3.465  14.225 -0.0947 -0.1168 -0.4111
 5543TIP3   OH238043   4.820   6.168  17.153  0.0012 -0.2716 -0.3119
 5543TIP3    H138044   4.852   6.240  17.209 -1.0434  0.2829 -0.4183
 5543TIP3    H238045   4.734   6.146  17.189  0.0362 -1.0392 -0.6855
 5544TIP3   OH238046   4.971   3.244   0.389  0.0077 -0.0927 -0.0989
 5544TIP3    H138047   5.042   3.229   0.451 -1.3997  0.4406  1.7255
 5544TIP3    H238048   4.978   3.337   0.367  0.0950 -0.1267 -0.2161
 5545TIP3   OH238049   5.676   0.666   2.445  0.0549 -0.3385 -0.6631
 5545TIP3    H138050   5.761   0.636   2.477 -1.0001 -1.9861  0.7809
 5545TIP3    H238051   5.683   0.761   2.442  2.5045 -0.4758 -2.2987
 5546TIP3   OH238052   5.599   1.551  13.747  0.6470 -0.0620 -0.4048
 5546TIP3    H138053   5.687   1.533  13.715  1.6838 -0.5926  2.4420
 5546TIP3    H238054   5.604   1.537  13.842 -1.4906  3.5930  0.4826
 5547TIP3   OH238055   2.452   6.174   2.105 -1.0766  0.2396 -0.2786
 5547TIP3    H138056   2.528   6.216   2.066 -1.0016 -0.0069 -0.4021
 5547TIP3    H238057   2.382   6.188   2.041 -0.4645 -1.9641 -1.5387
 5548TIP3   OH238058   1.738   5.610  14.702  0.4016  0.0779  0.1834
 5548TIP3    H138059   1.783   5.657  14.772 -0.0983  1.2707 -0.2716
 5548TIP3    H238060   1.752   5.663  14.624 -2.3217  0.9288  0.1474
 5549TIP3   OH238061   4.699   2.607   2.682  0.2032 -0.3933 -0.5868
 5549TIP3    H138062   4.660   2.653   2.756  0.9826 -0.7254  0.0513
 5549TIP3    H238063   4.718   2.520   2.716  1.9156 -0.1039 -0.7076
 5550TIP3   OH238064   1.753   6.458   2.329  0.0265  0.1425 -1.2144
 5550TIP3    H138065   1.671   6.478   2.374  0.5509  0.1287 -0.2288
 5550TIP3    H238066   1.777   6.539   2.285  0.7517  0.9243  0.5484
 5551TIP3   OH238067   4.278   0.505  12.289  0.0656 -0.4058 -0.2834
 5551TIP3    H138068   4.237   0.529  12.372 -1.5847 -1.5652 -0.7235
 5551TIP3    H238069   4.341   0.437  12.312 -0.6369 -0.9713 -0.0155
 5552TIP3   OH238070   6.250   6.368  16.773 -0.3715  0.1694  0.2212
 5552TIP3    H138071   6.173   6.422  16.754 -0.2389 -0.1798 -1.5365
 5552TIP3    H238072   6.323   6.429  16.774 -0.4582  0.2745  0.1843
 5553TIP3   OH238073   6.377   2.472  15.385  0.1662  0.2030  0.1301
 5553TIP3    H138074   6.384   2.432  15.298  0.4734  0.8202 -0.1363
 5553TIP3    H238075   6.312   2.419  15.431 -0.4870  0.2507 -0.7044
 5554TIP3   OH238076   1.654   3.774  17.078 -0.5600 -0.5850 -0.6223
 5554TIP3    H138077   1.738   3.744  17.112  0.0489 -0.0825 -1.6481
 5554TIP3    H238078   1.595   3.700  17.093 -0.0839 -0.7495  0.5864
 5555TIP3   OH238079   1.209   0.184   5.821 -0.0135  0.4341  0.0786
 5555TIP3    H138080   1.251   0.101   5.800 -1.6685 -0.1500 -1.2204
 5555TIP3    H238081   1.278   0.249   5.814  0.3308 -0.1452 -4.2571
 5556TIP3   OH238082   5.000   0.694  14.555 -0.4139  0.4912 -0.0010
 5556TIP3    H138083   4.938   0.766  14.564 -0.9295  0.2618 -1.5507
 5556TIP3    H238084   5.084   0.737  14.536 -0.4347  0.7278  0.4239
 5557TIP3   OH238085   3.776   4.669   2.857  0.6733 -0.3771  0.3742
 5557TIP3    H138086   3.731   4.699   2.937  0.0564 -1.8359  0.6113
 5557TIP3    H238087   3.837   4.739   2.836  0.2341  0.4237  1.6473
 5558TIP3   OH238088   1.213   3.124  12.832  0.0894  0.7362 -0.0282
 5558TIP3    H138089   1.144   3.131  12.766 -1.0737  0.4877  1.1266
 5558TIP3    H238090   1.234   3.030  12.834 -0.1314  0.6913  0.2054
 5559TIP3   OH238091   4.214   1.747   1.146  0.4943 -0.6129  0.5651
 5559TIP3    H138092   4.248   1.835   1.134 -0.2269 -0.3865  0.0981
 5559TIP3    H238093   4.217   1.708   1.059  0.6750 -0.9975  0.7434
 5560TIP3   OH238094   4.504   4.285  14.926  0.2131 -0.5540 -0.1033
 5560TIP3    H138095   4.574   4.335  14.884 -0.7028 -1.0311 -2.3307
 5560TIP3    H238096   4.481   4.336  15.003  1.0532  1.1306 -0.9193
 5561TIP3   OH238097   0.930   2.898   5.104  0.3276  0.1160  0.1817
 5561TIP3    H138098   0.913   2.984   5.065  1.9402  0.6475  0.5861
 5561TIP3    H238099   0.959   2.918   5.193  0.1017 -0.8987  0.4885
 5562TIP3   OH238100   1.555   4.487  16.876 -0.3558  0.6796  0.3606
 5562TIP3    H138101   1.642   4.494  16.915 -0.2488  1.1497  0.0474
 5562TIP3    H238102   1.555   4.402  16.833 -0.1704  0.5355  0.6369
 5563TIP3   OH238103   1.385   2.201   0.100  0.4171  0.0646  0.7284
 5563TIP3    H138104   1.406   2.139   0.029  0.5464  1.3908 -0.4308
 5563TIP3    H238105   1.328   2.151   0.159  0.7148 -1.2363 -0.0436
 5564TIP3   OH238106   4.128   2.744   1.140  0.2927  0.3040 -0.2893
 5564TIP3    H138107   4.175   2.695   1.207 -1.0496 -2.7462 -1.4339
 5564TIP3    H238108   4.067   2.800   1.188  1.4706  0.4964  1.0385
 5565TIP3   OH238109   3.275   6.146  13.902 -0.1616 -0.0550  0.1577
 5565TIP3    H138110   3.281   6.052  13.917  0.2270  0.0453  0.6645
 5565TIP3    H238111   3.345   6.165  13.839 -1.3225 -0.3611 -1.2732
 5566TIP3   OH238112   6.037   4.897  11.801  0.5293  0.3934  0.1525
 5566TIP3    H138113   6.087   4.978  11.811 -1.1148  1.4395  0.2725
 5566TIP3    H238114   6.104   4.828  11.794  2.0501  2.0082 -2.7619
 5567TIP3   OH238115   3.486   0.588  14.555 -0.0169  0.3916  0.1907
 5567TIP3    H138116   3.491   0.533  14.633 -0.8504  0.6845  0.4512
 5567TIP3    H238117   3.414   0.648  14.572 -1.1597 -0.4639 -1.3808
 5568TIP3   OH238118   0.212   1.136   3.631 -0.6359  0.4819 -0.0377
 5568TIP3    H138119   0.291   1.091   3.602  0.5756  2.1978  0.4453
 5568TIP3    H238120   0.168   1.163   3.550 -0.2206  0.3603 -0.3053
 5569TIP3   OH238121   3.230   5.540  15.018  0.0023  0.1407 -0.4927
 5569TIP3    H138122   3.245   5.537  15.112  0.1159 -0.3128 -0.5241
 5569TIP3    H238123   3.208   5.632  15.000 -1.7908 -0.1086  0.2402
 5570TIP3   OH238124   1.312   3.859   5.505 -0.0470  0.3097  0.6254
 5570TIP3    H138125   1.286   3.901   5.587  0.2067  1.8712 -0.0603
 5570TIP3    H238126   1.350   3.930   5.453  0.1460 -0.7326 -0.6998
 5571TIP3   OH238127   3.710   5.292   2.908 -0.1439  0.5706 -0.5995
 5571TIP3    H138128   3.674   5.277   2.995 -0.6158  1.0361 -0.7087
 5571TIP3    H238129   3.772   5.364   2.920  1.1318 -0.5355 -0.3231
 5572TIP3   OH238130   0.362   5.013  16.375 -0.5410  0.1061 -0.2145
 5572TIP3    H138131   0.379   4.936  16.430  1.2763 -0.2196 -1.1522
 5572TIP3    H238132   0.327   5.079  16.436  2.2269  0.0708  1.5997
 5573TIP3   OH238133   1.834   3.687   5.722 -0.2979 -0.1950  0.0144
 5573TIP3    H138134   1.795   3.613   5.769  0.8999 -1.3486 -0.7736
 5573TIP3    H238135   1.920   3.656   5.695  0.2694  1.5290 -0.2613
 5574TIP3   OH238136   2.892   4.725   3.780  0.0747  0.1084  0.0965
 5574TIP3    H138137   2.952   4.789   3.818  0.9159 -1.3933  1.4445
 5574TIP3    H238138   2.820   4.719   3.843  0.4296 -0.8644  0.4309
 5575TIP3   OH238139   5.990   4.474   4.026  0.2621 -0.1864 -0.3071
 5575TIP3    H138140   6.031   4.510   4.104  0.7126  0.6104 -0.8987
 5575TIP3    H238141   6.005   4.380   4.032 -0.2581 -0.2138  0.8690
 5576TIP3   OH238142   4.941   5.954  10.626 -0.3359  0.1608  0.3282
 5576TIP3    H138143   4.910   6.018  10.561 -0.3730  0.9291  1.0817
 5576TIP3    H238144   4.950   6.005  10.707 -2.2109 -1.1923  1.4590
 5577TIP3   OH238145   0.291   2.333  14.854  0.2038 -0.9764 -0.5336
 5577TIP3    H138146   0.355   2.384  14.804  0.0293 -1.1014 -0.8901
 5577TIP3    H238147   0.344   2.283  14.916  0.3765 -0.3510 -0.1617
 5578TIP3   OH238148   0.088   3.991  14.277  0.4435 -0.1205 -0.0460
 5578TIP3    H138149   0.119   3.963  14.191  0.8918  0.6527 -0.1476
 5578TIP3    H238150   0.013   4.047  14.257 -2.0634 -3.1187  0.2442
 5579TIP3   OH238151   4.573   5.996  15.096 -0.0912 -0.0125  0.2977
 5579TIP3    H138152   4.529   5.952  15.169 -1.7338 -0.3626 -0.8358
 5579TIP3    H238153   4.502   6.024  15.039  1.0503  2.0096 -0.2245
 5580TIP3   OH238154   3.976   3.994   1.401 -0.6979  0.1677  0.0566
 5580TIP3    H138155   3.989   3.900   1.393 -2.0650 -0.0339  0.0025
 5580TIP3    H238156   3.904   4.014   1.341  0.5421  1.5134 -1.0797
 5581TIP3   OH238157   5.278   2.651   5.452  0.3783  0.5122 -0.4668
 5581TIP3    H138158   5.350   2.700   5.490  0.1326  0.9923 -0.6099
 5581TIP3    H238159   5.312   2.562   5.443  0.4545  0.3930  0.8182
 5582TIP3   OH238160   5.793   6.709  12.987 -0.4589  0.3574  0.1985
 5582TIP3    H138161   5.760   6.637  12.933 -0.2169 -1.0013  1.7859
 5582TIP3    H238162   5.763   6.788  12.942 -1.9454 -0.7392 -0.8375
 5583TIP3   OH238163   0.005   1.052  13.931  0.0239 -1.1400  0.3986
 5583TIP3    H138164   0.021   1.045  13.837 -2.0018  0.4798 -0.1444
 5583TIP3    H238165  -0.075   1.000  13.945  0.2446 -1.2728  1.2052
 5584TIP3   OH238166   0.241   3.008  13.130  0.3019  0.5507 -0.1626
 5584TIP3    H138167   0.223   2.944  13.199 -3.7691  2.4305  0.8074
 5584TIP3    H238168   0.220   2.962  13.049  0.6704 -0.2939  0.2084
 5585TIP3   OH238169   5.113   6.296  12.384 -0.0849 -0.1615  0.0995
 5585TIP3    H138170   5.172   6.352  12.435 -1.1651 -0.6026  1.9071
 5585TIP3    H238171   5.122   6.209  12.423 -0.1083 -0.7885 -1.2249
 5586TIP3   OH238172   0.474   3.912  14.019 -0.1236 -0.0162  0.0775
 5586TIP3    H138173   0.515   3.924  14.105 -1.7368  3.5131  0.5409
 5586TIP3    H238174   0.544   3.929  13.956  0.8952 -1.9101  0.6352
 5587TIP3   OH238175   3.211   0.201   3.096  0.5267  0.1233  0.0011
 5587TIP3    H138176   3.141   0.254   3.058  0.0689 -1.1674 -1.0201
 5587TIP3    H238177   3.225   0.239   3.183 -2.7018 -0.6388  0.9792
 5588TIP3   OH238178   6.259   5.485   5.561  0.0709  0.0378  0.2086
 5588TIP3    H138179   6.249   5.530   5.477 -0.9541  0.6925  0.6601
 5588TIP3    H238180   6.332   5.529   5.603 -0.1157  0.4458  0.1148
 5589TIP3   OH238181   4.553   1.290  13.594  0.7899 -0.2927 -0.7253
 5589TIP3    H138182   4.541   1.369  13.647 -1.2119  0.6935 -2.5003
 5589TIP3    H238183   4.471   1.242  13.603  1.7229 -1.8583 -0.2385
 5590TIP3   OH238184   4.065   4.931  15.629 -0.5559 -0.4166 -0.0993
 5590TIP3    H138185   4.080   4.876  15.706 -0.9482  0.1714  0.4021
 5590TIP3    H238186   3.970   4.937  15.622 -0.5134  0.4141  0.0021
 5591TIP3   OH238187   3.585   6.091  14.130  0.4775 -0.1321  0.0306
 5591TIP3    H138188   3.564   6.184  14.133 -0.1366 -0.2810  0.6994
 5591TIP3    H238189   3.515   6.049  14.180  0.7127 -0.9597 -0.3129
 5592TIP3   OH238190   1.685   5.858  11.062  0.2875 -0.0200 -0.3619
 5592TIP3    H138191   1.650   5.816  10.984 -2.0089 -1.7314  1.4475
 5592TIP3    H238192   1.683   5.952  11.042 -3.0898 -0.1794 -1.3786
 5593TIP3   OH238193   0.217   3.772   2.615  0.2713  0.4283  0.6749
 5593TIP3    H138194   0.139   3.721   2.636 -0.5107  1.2517 -0.1147
 5593TIP3    H238195   0.257   3.724   2.542  1.5444 -0.9915  2.2359
 5594TIP3   OH238196   3.597   4.163  13.747 -0.3572  0.1279  0.3048
 5594TIP3    H138197   3.636   4.124  13.825  1.0612 -0.2969 -0.5841
 5594TIP3    H238198   3.611   4.257  13.757 -2.3660  0.3378  1.6909
 5595TIP3   OH238199   1.391   1.880  14.527 -0.4597 -0.4025 -0.5135
 5595TIP3    H138200   1.324   1.916  14.585 -0.1253 -1.2352  0.4151
 5595TIP3    H238201   1.341   1.850  14.450 -0.8906  0.7957 -0.7284
 5596TIP3   OH238202   6.163   1.265  12.812  0.0045  0.2791 -0.6378
 5596TIP3    H138203   6.190   1.349  12.774 -1.8172  0.9258 -0.6123
 5596TIP3    H238204   6.077   1.248  12.775 -0.3627 -0.7603  0.6034
 5597TIP3   OH238205   3.964   3.420  12.599 -0.1607 -0.2604  0.0251
 5597TIP3    H138206   3.875   3.387  12.608  0.0569 -0.9007 -0.1269
 5597TIP3    H238207   3.954   3.515  12.590 -0.7935 -0.2730  0.5040
 5598TIP3   OH238208   1.640   4.707  14.536 -0.0655 -0.3867  0.2712
 5598TIP3    H138209   1.585   4.775  14.573  0.9737  0.8995 -0.4793
 5598TIP3    H238210   1.580   4.654  14.483 -0.9447 -0.3165  1.1624
 5599TIP3   OH238211   5.531   6.104  14.097 -0.0881  0.2146  0.1952
 5599TIP3    H138212   5.475   6.110  14.175 -0.2956  0.8928  0.0025
 5599TIP3    H238213   5.547   6.195  14.072 -1.4544  0.0341 -1.5635
 5600TIP3   OH238214   1.183   5.429  15.174 -0.4278 -0.1158 -0.3766
 5600TIP3    H138215   1.160   5.506  15.122 -0.0381 -0.1908 -0.6674
 5600TIP3    H238216   1.254   5.458  15.230 -1.6618  0.3078  1.0181
 5601TIP3   OH238217   3.890   2.966  13.097 -0.0764  0.5418  0.2695
 5601TIP3    H138218   3.925   2.878  13.108  2.2047  1.4509  0.8554
 5601TIP3    H238219   3.943   3.021  13.155 -1.4166  2.3130 -0.0778
 5602TIP3   OH238220   4.693   3.320  11.840  0.5419 -0.0228 -0.2120
 5602TIP3    H138221   4.747   3.246  11.814  1.9631  0.7010  0.5514
 5602TIP3    H238222   4.697   3.380  11.766  0.3487 -0.2037 -0.3689
 5603TIP3   OH238223   2.991   6.562  12.835 -0.2000 -0.0912  1.0843
 5603TIP3    H138224   3.081   6.588  12.854  0.5375 -0.6174 -1.2915
 5603TIP3    H238225   2.958   6.631  12.777 -0.9350 -0.4646  1.0535
 5604TIP3   OH238226   2.070   2.221  15.463  0.6727 -0.0514 -0.9739
 5604TIP3    H138227   2.134   2.189  15.399 -0.1965 -2.2626 -0.8215
 5604TIP3    H238228   1.986   2.184  15.434 -0.2075  1.0948 -0.0197
 5605TIP3   OH238229   3.973   1.928  14.961 -0.2300  0.8158  0.0441
 5605TIP3    H138230   3.915   1.914  15.036 -0.2738 -0.7607 -0.2425
 5605TIP3    H238231   4.028   2.002  14.986 -0.1557  0.2359  1.6795
 5606TIP3   OH238232   4.601   3.935   0.152  0.6012  0.0313  0.4475
 5606TIP3    H138233   4.572   3.887   0.229 -0.4239  0.7705  0.5438
 5606TIP3    H238234   4.697   3.932   0.156  0.6175 -2.8013 -0.0779
 5607TIP3   OH238235   5.583   2.428   2.864  0.2127 -0.0350 -0.8303
 5607TIP3    H138236   5.629   2.344   2.853 -1.4100 -1.1327  0.3788
 5607TIP3    H238237   5.506   2.407   2.916  0.1516  2.3640  0.1804
 5608TIP3   OH238238   1.097   0.255   0.815 -0.2701 -0.6870  0.1506
 5608TIP3    H138239   1.095   0.238   0.721 -0.2093 -0.0790  0.0345
 5608TIP3    H238240   1.157   0.329   0.824 -1.8340  0.6008  0.4512
 5609TIP3   OH238241   6.310   3.124  13.157 -0.2389  0.3565 -0.6848
 5609TIP3    H138242   6.231   3.133  13.210 -1.4288 -0.4140 -2.2552
 5609TIP3    H238243   6.326   3.212  13.122  0.0179  0.6590  0.1467
 5610TIP3   OH238244   4.828   3.109   2.431  0.0976  0.4719 -0.0602
 5610TIP3    H138245   4.883   3.054   2.375  0.6206 -0.4754  1.3255
 5610TIP3    H238246   4.889   3.151   2.491 -0.6307 -0.4066  1.3421
 5611TIP3   OH238247   3.056   1.035  16.038 -0.0973  0.2432  0.9104
 5611TIP3    H138248   3.111   1.036  15.960  0.8872  0.4429  1.5827
 5611TIP3    H238249   2.978   0.985  16.012  0.3621  0.0152 -0.0850
 5612TIP3   OH238250   6.438   2.937   0.763 -0.1596 -0.2658  0.1067
 5612TIP3    H138251   6.427   2.899   0.675  0.1131 -0.4780  0.1614
 5612TIP3    H238252   6.459   2.862   0.818 -1.1122 -0.2496  0.5118
 5613TIP3   OH238253   1.848   0.056   3.304  0.5002  0.1667 -0.4849
 5613TIP3    H138254   1.926   0.006   3.279 -0.8204 -1.1732 -2.1384
 5613TIP3    H238255   1.820   0.016   3.386  0.6488 -0.4207 -0.7114
 5614TIP3   OH238256   1.537   6.520   1.812 -0.1767 -0.0613  0.3860
 5614TIP3    H138257   1.502   6.566   1.736  3.0425  0.5078 -0.9221
 5614TIP3    H238258   1.534   6.585   1.883 -0.2738  0.4802 -0.1079
 5615TIP3   OH238259   5.317   6.432  12.509 -0.1352  0.6257 -0.0787
 5615TIP3    H138260   5.338   6.353  12.559 -0.6289  0.4522 -0.1386
 5615TIP3    H238261   5.400   6.459  12.471  0.0952  0.3084  0.1936
 5616TIP3   OH238262   4.687   1.067   2.645 -0.2140  0.2102 -0.1213
 5616TIP3    H138263   4.608   1.019   2.621 -0.3204 -0.6992  1.8579
 5616TIP3    H238264   4.664   1.113   2.725  1.1740  0.1789  0.3241
 5617TIP3   OH238265   1.213   0.118  10.961  0.8840  0.1130 -0.0749
 5617TIP3    H138266   1.134   0.170  10.941  1.2750  0.3889 -0.9516
 5617TIP3    H238267   1.275   0.142  10.892  1.4639 -0.6940  0.1592
 5618TIP3   OH238268   5.861   6.126   0.911  0.3178 -0.3685  0.2045
 5618TIP3    H138269   5.946   6.166   0.929  0.0892 -0.6384  2.0689
 5618TIP3    H238270   5.869   6.037   0.945 -0.8941 -0.2023  0.9935
 5619TIP3   OH238271   0.250   2.327  14.512  0.5914 -0.0806  0.0910
 5619TIP3    H138272   0.343   2.328  14.532  0.9471  0.4051 -1.4728
 5619TIP3    H238273   0.242   2.272  14.434 -0.6077 -1.1331  0.8933
 5620TIP3   OH238274   4.734   0.285  17.119 -0.5377 -0.0766  0.2197
 5620TIP3    H138275   4.654   0.234  17.105 -0.4788 -0.3682  0.8748
 5620TIP3    H238276   4.803   0.232  17.081 -0.5312 -0.3065  0.5397
 5621TIP3   OH238277   2.748   0.352  12.534  0.4330  0.1807  0.1279
 5621TIP3    H138278   2.823   0.390  12.489  1.5212  0.9436  2.4169
 5621TIP3    H238279   2.786   0.297  12.602 -0.9705  1.6491  2.2236
 5622TIP3   OH238280   5.967   4.510   3.589 -0.0706 -0.0982 -0.0010
 5622TIP3    H138281   5.984   4.583   3.531  0.5821  0.8706  1.3614
 5622TIP3    H238282   6.021   4.438   3.555  1.2336  0.8101  0.0943
 5623TIP3   OH238283   1.071   3.099  13.110  0.7576  0.3073  0.0052
 5623TIP3    H138284   1.133   3.126  13.043  0.8733  1.7167  0.6571
 5623TIP3    H238285   0.987   3.134  13.081  0.0864 -2.0191 -1.1396
 5624TIP3   OH238286   5.821   6.418   2.403 -0.5090 -0.8429  0.2684
 5624TIP3    H138287   5.762   6.361   2.453 -0.8319 -0.1024  0.7363
 5624TIP3    H238288   5.811   6.387   2.312 -0.3549 -1.8092  0.5637
 5625TIP3   OH238289   2.269   0.057   4.026  0.4048 -0.0925 -0.3045
 5625TIP3    H138290   2.232  -0.010   3.968 -0.8703 -0.7772  1.2327
 5625TIP3    H238291   2.198   0.119   4.039 -0.2176 -1.2156  2.3780
 5626TIP3   OH238292   2.622   0.471  16.433  0.1084  0.5103  0.2972
 5626TIP3    H138293   2.585   0.558  16.445  2.3075  1.3069  1.8816
 5626TIP3    H238294   2.694   0.483  16.372 -0.3361 -0.4683 -0.4593
 5627TIP3   OH238295   5.364   4.266  14.570  0.5849  0.1435 -0.9333
 5627TIP3    H138296   5.272   4.242  14.582  0.3645  0.8028 -1.2925
 5627TIP3    H238297   5.399   4.270  14.659  0.4738 -0.8773 -0.8283
 5628TIP3   OH238298   0.511   6.332   2.897  0.4974 -0.5010 -0.1005
 5628TIP3    H138299   0.442   6.323   2.962  1.1813 -2.1755  0.4718
 5628TIP3    H238300   0.546   6.420   2.910  1.0071 -0.9880  2.2478
 5629TIP3   OH238301   2.241   1.161  11.187  0.9599 -0.4245 -0.1747
 5629TIP3    H138302   2.213   1.114  11.108 -1.4454 -1.4661  1.1823
 5629TIP3    H238303   2.171   1.224  11.203  1.5123 -0.0815  1.0171
 5630TIP3   OH238304   3.015   3.505   5.115  0.0915 -0.0707 -0.2240
 5630TIP3    H138305   3.016   3.465   5.202  3.4060 -0.6385 -0.3712
 5630TIP3    H238306   2.966   3.444   5.061 -1.8043  0.1608  1.1384
 5631TIP3   OH238307   3.238   3.667   5.162 -0.2190 -0.3959 -0.3415
 5631TIP3    H138308   3.202   3.654   5.250  0.8299 -1.3955 -0.0353
 5631TIP3    H238309   3.228   3.583   5.119  0.0197 -0.1461 -0.8972
 5632TIP3   OH238310   2.905   5.284   4.693 -0.8299  0.4175  0.0759
 5632TIP3    H138311   2.927   5.277   4.600  0.6136 -0.2997  0.4402
 5632TIP3    H238312   2.875   5.196   4.717  0.9474 -0.0472  0.7667
 5633TIP3   OH238313   3.378   0.156   1.970  0.3334  0.7040 -0.2380
 5633TIP3    H138314   3.430   0.165   2.050 -0.6120 -0.3492  0.5450
 5633TIP3    H238315   3.292   0.126   2.002 -0.2507  0.8775 -1.6069
 5634TIP3   OH238316   2.696   2.224  13.728  0.2416  0.4603 -0.3666
 5634TIP3    H138317   2.620   2.173  13.699  0.4146  0.4470 -0.8043
 5634TIP3    H238318   2.668   2.265  13.809  0.1805 -0.5448  0.1336
 5635TIP3   OH238319   6.217   4.521  14.894  0.0293  0.1489 -0.0930
 5635TIP3    H138320   6.260   4.468  14.961 -1.7621 -1.1841  0.0798
 5635TIP3    H238321   6.209   4.607  14.934  1.3898  0.1171  0.3229
 5636TIP3   OH238322   1.507   3.425   0.352 -0.0870  0.0285  0.5692
 5636TIP3    H138323   1.496   3.517   0.375  0.3368 -0.0409  1.0648
 5636TIP3    H238324   1.546   3.427   0.264 -1.3355  0.2962 -0.0041
 5637TIP3   OH238325   1.774   5.661   4.850  0.2729 -0.3967 -0.8884
 5637TIP3    H138326   1.722   5.585   4.878  1.1390 -0.8422 -0.4230
 5637TIP3    H238327   1.841   5.669   4.917 -0.3751  1.4024 -0.4093
 5638TIP3   OH238328   6.268   0.251   3.989 -0.0132  0.1605 -0.5742
 5638TIP3    H138329   6.235   0.187   4.053  3.0101  0.1103  1.1239
 5638TIP3    H238330   6.290   0.328   4.042  0.4767  0.9848 -1.9320
 5639TIP3   OH238331   1.480   0.724  11.466  0.1086 -0.1729  0.9342
 5639TIP3    H138332   1.400   0.673  11.479  1.1283 -1.6563  1.6072
 5639TIP3    H238333   1.538   0.666  11.416 -0.8677  2.5589 -4.0447
 5640TIP3   OH238334   1.519   0.167  16.502 -0.2130  0.7895 -0.2151
 5640TIP3    H138335   1.547   0.245  16.550 -1.3170  1.0972 -0.0374
 5640TIP3    H238336   1.423   0.172  16.502 -0.2711  0.0057 -1.1597
 5641TIP3   OH238337   2.492   5.969  15.505 -1.2327  0.2652  0.4587
 5641TIP3    H138338   2.423   5.902  15.507 -0.4728 -0.5310  1.0479
 5641TIP3    H238339   2.531   5.961  15.418 -1.2799  0.0754  0.4548
 5642TIP3   OH238340   4.292   6.248  14.091 -0.1338 -0.3398 -0.0186
 5642TIP3    H138341   4.265   6.171  14.142  0.9671 -0.7793 -0.0635
 5642TIP3    H238342   4.310   6.315  14.156 -1.0861 -0.1080  0.0220
 5643TIP3   OH238343   6.555   4.083   2.543  0.7777  0.5323  0.3508
 5643TIP3    H138344   6.619   4.013   2.554  0.3044 -0.0744 -0.6282
 5643TIP3    H238345   6.474   4.038   2.519  0.3090  1.3801  0.2991
 5644TIP3   OH238346   1.001   2.726  14.641  0.3195  0.3297  0.0375
 5644TIP3    H138347   0.936   2.748  14.708 -1.3418 -0.2708 -1.3112
 5644TIP3    H238348   1.068   2.795  14.649 -0.5683  1.0827  1.3350
 5645TIP3   OH238349   4.171   3.826   1.654  0.3473  0.1389  0.0542
 5645TIP3    H138350   4.247   3.885   1.646 -0.9749  2.5132  3.1193
 5645TIP3    H238351   4.138   3.819   1.565  1.6711  2.5914 -0.7468
 5646TIP3   OH238352   4.506   4.424  15.154  0.5216 -0.4136 -0.2381
 5646TIP3    H138353   4.593   4.392  15.177  1.0042  0.8930 -0.1765
 5646TIP3    H238354   4.496   4.504  15.204 -0.4200 -0.1569 -0.8202
 5647TIP3   OH238355   0.254   3.164  13.624  0.5557 -0.3982 -0.2430
 5647TIP3    H138356   0.265   3.256  13.602 -2.3476  0.7898  2.5127
 5647TIP3    H238357   0.312   3.150  13.699  0.6185 -0.6631 -0.3395
 5648TIP3   OH238358   5.248   4.584  13.256 -0.5890  0.7364 -0.5127
 5648TIP3    H138359   5.220   4.500  13.220  0.9320 -0.9318  1.8770
 5648TIP3    H238360   5.170   4.618  13.300 -0.6459 -0.7059  0.5993
 5649TIP3   OH238361   1.390   0.970   1.526  0.2004 -0.4612  0.0535
 5649TIP3    H138362   1.374   1.003   1.438 -1.4261 -0.3186  0.3696
 5649TIP3    H238363   1.483   0.946   1.527  1.0795  2.5607 -0.6787
 5650TIP3   OH238364   0.549   4.087   1.378  0.1935  0.3789  0.3663
 5650TIP3    H138365   0.635   4.063   1.345 -0.2909 -1.8321  0.5518
 5650TIP3    H238366   0.523   4.013   1.433 -2.3365  0.3629 -0.7006
 5651TIP3   OH238367   2.521   1.263  16.900 -0.2159 -0.5871 -0.4204
 5651TIP3    H138368   2.498   1.182  16.855 -1.0213 -0.1863 -0.7469
 5651TIP3    H238369   2.526   1.237  16.992 -2.4025 -0.6527 -0.2564
 5652TIP3   OH238370   3.737   0.781  16.232  0.0984  0.3423 -0.9428
 5652TIP3    H138371   3.664   0.738  16.188  0.4868 -0.9061 -0.4235
 5652TIP3    H238372   3.718   0.874  16.225 -1.4902  0.0482 -0.8889
 5653TIP3   OH238373   3.337   3.790   1.270  0.2514  0.0225  0.1584
 5653TIP3    H138374   3.303   3.834   1.193 -0.9502 -0.6361  0.2976
 5653TIP3    H238375   3.260   3.770   1.323  1.1660  2.1525  2.4769
 5654TIP3   OH238376   6.590   4.037   4.630  0.4429  0.3226 -0.4192
 5654TIP3    H138377   6.652   4.095   4.585  1.9172 -0.9334 -0.0924
 5654TIP3    H238378   6.633   3.952   4.631 -2.1283 -1.1134 -1.8654
 5655TIP3   OH238379   2.869   3.771  14.701  0.3460 -0.0373  0.1178
 5655TIP3    H138380   2.809   3.698  14.714  1.9661 -2.2213 -3.1848
 5655TIP3    H238381   2.817   3.837  14.654 -0.6427  0.2236  1.5167
 5656TIP3   OH238382   5.590   1.693   2.609  0.1089 -0.7455 -0.4527
 5656TIP3    H138383   5.671   1.665   2.566 -0.0519 -0.7008 -0.7870
 5656TIP3    H238384   5.527   1.623   2.590  0.0558 -0.7561 -0.2375
 5657TIP3   OH238385   3.197   4.634  13.688  0.4471 -0.0823  0.2703
 5657TIP3    H138386   3.262   4.662  13.624  0.2373 -0.1439  0.0266
 5657TIP3    H238387   3.184   4.541  13.669 -1.5656  0.4691 -1.3524
 5658TIP3   OH238388   3.023   5.981  14.993  0.2310 -0.2780  0.8016
 5658TIP3    H138389   3.021   6.072  14.965 -0.6365 -1.0523 -1.9985
 5658TIP3    H238390   3.107   5.971  15.038  0.0546  2.0087  1.7811
 5659TIP3   OH238391   5.314   5.010  13.867  0.2268  0.4588  0.1763
 5659TIP3    H138392   5.277   4.935  13.914 -0.9155  0.9019  0.0206
 5659TIP3    H238393   5.406   4.988  13.854 -0.0455 -0.8227  0.3287
 5660TIP3   OH238394   3.005   4.318  11.355  0.1772  0.0820  0.1208
 5660TIP3    H138395   2.962   4.260  11.293  0.1380  0.4334 -0.1842
 5660TIP3    H238396   3.095   4.325  11.323  0.2134  0.0950  0.2245
 5661TIP3   OH238397   2.181   2.112  11.793 -0.3427  0.6724 -0.5647
 5661TIP3    H138398   2.136   2.123  11.877  0.0616  2.0142 -0.5010
 5661TIP3    H238399   2.256   2.057  11.813 -0.4768  0.6412 -0.1332
 5662TIP3   OH238400   1.466   4.266  10.817 -0.1387  0.4415 -0.0037
 5662TIP3    H138401   1.558   4.281  10.794 -0.3524  0.7930 -0.6329
 5662TIP3    H238402   1.429   4.222  10.741 -0.0781 -1.3258  0.9246
 5663TIP3   OH238403   2.827   2.834   3.124  0.0337 -0.2907  0.1264
 5663TIP3    H138404   2.789   2.901   3.180 -1.0088 -0.0765 -0.7912
 5663TIP3    H238405   2.861   2.882   3.048 -1.8535 -0.8510 -1.1501
 5664TIP3   OH238406   6.476   1.225  13.017  0.3985 -0.2405  0.6469
 5664TIP3    H138407   6.420   1.303  13.012  1.3328  0.4055 -0.0486
 5664TIP3    H238408   6.440   1.175  13.090 -1.7426 -0.3753 -0.4222
 5665TIP3   OH238409   3.864   6.461   3.925 -0.3479  0.1399  0.3004
 5665TIP3    H138410   3.813   6.501   3.996  1.5231  1.5807  0.9274
 5665TIP3    H238411   3.954   6.487   3.944  0.1946  0.8597 -2.7863
 5666TIP3   OH238412   6.574   0.301  14.939 -0.4859  0.3052 -0.5381
 5666TIP3    H138413   6.582   0.218  14.986  0.5996 -0.6440 -2.2691
 5666TIP3    H238414   6.644   0.356  14.975 -1.4268  0.6233  0.8542
 5667TIP3   OH238415   4.117   6.709  12.319 -0.1018  0.2311 -0.0932
 5667TIP3    H138416   4.111   6.800  12.350 -0.7848  0.2436 -0.2310
 5667TIP3    H238417   4.120   6.717  12.223 -3.2703  0.0458 -0.3185
 5668TIP3   OH238418   4.799   1.496  12.006 -0.0169 -0.0699 -0.4161
 5668TIP3    H138419   4.762   1.420  12.052  1.3667 -0.2569  0.4248
 5668TIP3    H238420   4.828   1.462  11.922 -1.2504 -0.0258 -0.8817
 5669TIP3   OH238421   2.700   2.133   2.368  0.0736 -0.0866  0.3749
 5669TIP3    H138422   2.630   2.178   2.321  0.0567 -0.8728 -0.3705
 5669TIP3    H238423   2.692   2.164   2.458  0.0985  1.4376 -0.1109
 5670TIP3   OH238424   5.644   1.750  16.786  0.1274  0.2066 -0.3491
 5670TIP3    H138425   5.643   1.763  16.691  0.3773 -0.9191 -0.5114
 5670TIP3    H238426   5.654   1.839  16.822 -0.4790  0.7020 -1.3480
 5671TIP3   OH238427   2.699   6.557   2.673 -0.6023 -0.0423  0.1765
 5671TIP3    H138428   2.743   6.565   2.757 -2.3186  0.2298  1.1096
 5671TIP3    H238429   2.653   6.473   2.677  1.9161 -1.6558 -1.8745
 5672TIP3   OH238430   0.868   2.015   4.590  0.7094  0.4655  0.1445
 5672TIP3    H138431   0.789   1.975   4.624  1.3699 -0.6804  0.3843
 5672TIP3    H238432   0.837   2.084   4.531 -0.4924 -0.7591 -0.7246
 5673TIP3   OH238433   3.994   5.351  14.590  0.0374 -0.3073  0.2068
 5673TIP3    H138434   3.920   5.367  14.531 -1.3139 -3.1010  0.9762
 5673TIP3    H238435   4.010   5.436  14.632 -1.9716  0.6536 -0.8183
 5674TIP3   OH238436   4.026   2.723   3.101  0.1675  0.1986  0.0962
 5674TIP3    H138437   3.943   2.702   3.059  0.9640  1.6610 -2.4090
 5674TIP3    H238438   4.092   2.699   3.036  1.5976  0.8635  1.2619
 5675TIP3   OH238439   4.219   6.144  10.410 -0.8729 -0.2138  0.0841
 5675TIP3    H138440   4.164   6.210  10.452 -1.4426 -1.4267  1.3299
 5675TIP3    H238441   4.247   6.087  10.482  0.5595 -0.6661 -0.7898
 5676TIP3   OH238442   4.373   3.951   1.488 -0.3788  0.2723  0.1851
 5676TIP3    H138443   4.392   3.992   1.403 -0.1766 -3.2306 -1.6469
 5676TIP3    H238444   4.458   3.944   1.531  0.1356 -1.1786 -0.9922
 5677TIP3   OH238445   0.383   3.735  15.677 -0.5625  0.2147 -0.4630
 5677TIP3    H138446   0.368   3.829  15.670  0.4284  0.4291 -0.0022
 5677TIP3    H238447   0.437   3.725  15.756 -0.8155 -0.7574 -0.3925
 5678TIP3   OH238448   6.023   3.415  15.763  0.0675 -0.0059  0.4301
 5678TIP3    H138449   6.027   3.342  15.825 -1.5452  0.4014  1.0566
 5678TIP3    H238450   5.956   3.390  15.700  1.8708 -0.5302 -1.3838
 5679TIP3   OH238451   6.344   3.245  16.243 -0.0368  0.2219  0.3136
 5679TIP3    H138452   6.368   3.156  16.217  0.5520  1.0261 -2.2746
 5679TIP3    H238453   6.426   3.295  16.235 -0.8397  1.4502 -0.7314
 5680TIP3   OH238454   1.703   5.679   4.492 -0.2634 -0.5586 -0.4190
 5680TIP3    H138455   1.736   5.612   4.432 -1.0939  0.0108 -1.5391
 5680TIP3    H238456   1.683   5.754   4.436 -2.2700 -0.4537  0.3630
 5681TIP3   OH238457   4.668   5.622  14.065 -0.6985 -0.2046  0.7202
 5681TIP3    H138458   4.613   5.578  14.001  1.1168 -1.0801 -0.2967
 5681TIP3    H238459   4.653   5.715  14.050  0.0045 -0.3659 -1.3327
 5682TIP3   OH238460   0.836   5.392  16.117 -0.0291 -0.5043 -0.1943
 5682TIP3    H138461   0.786   5.447  16.178  0.8587 -0.8624  0.8890
 5682TIP3    H238462   0.790   5.308  16.117  0.2872 -0.6850  0.4416
 5683TIP3   OH238463   0.456   2.875   3.796 -0.2625  0.0955 -0.5494
 5683TIP3    H138464   0.458   2.889   3.890  1.0830 -0.7120 -0.4226
 5683TIP3    H238465   0.373   2.912   3.767 -1.2798 -0.7716  1.1292
 5684TIP3   OH238466   0.882   4.935   3.208 -0.2249  0.0856  0.5000
 5684TIP3    H138467   0.972   4.935   3.241  0.0738  1.1186 -0.2703
 5684TIP3    H238468   0.843   5.013   3.246 -1.3496 -1.2111  2.1750
 5685TIP3   OH238469   1.562   4.465  12.482 -0.0624 -0.0647 -0.4740
 5685TIP3    H138470   1.605   4.410  12.548  0.0241  0.0384 -0.4432
 5685TIP3    H238471   1.557   4.551  12.523 -0.2965 -0.0769 -0.4804
 5686TIP3   OH238472   0.133   1.214  17.156  0.0726 -0.3248 -0.2073
 5686TIP3    H138473   0.043   1.220  17.122  0.2592 -0.5901 -0.7539
 5686TIP3    H238474   0.187   1.195  17.079  0.5969 -0.2002  0.1224
 5687TIP3   OH238475   6.363   0.775  11.544 -0.1591 -0.2325 -0.2456
 5687TIP3    H138476   6.333   0.688  11.571  1.9145 -1.2635 -1.0480
 5687TIP3    H238477   6.419   0.758  11.468  0.4893  1.7937 -0.2643
 5688TIP3   OH238478   4.309   6.763  13.636 -0.1705 -0.6453 -0.2252
 5688TIP3    H138479   4.386   6.779  13.690 -0.2224 -1.4240  0.1018
 5688TIP3    H238480   4.301   6.667  13.634 -0.0200 -0.6487 -1.8340
 5689TIP3   OH238481   3.243   0.803  15.985  0.1080 -0.6384  0.4244
 5689TIP3    H138482   3.187   0.818  16.061  0.3338  0.6018  0.3828
 5689TIP3    H238483   3.332   0.819  16.018  0.0361  3.5577 -0.7676
 5690TIP3   OH238484   3.132   2.498   3.752 -0.3097  0.3004  0.6529
 5690TIP3    H138485   3.125   2.471   3.661  2.7769  0.0545  0.3922
 5690TIP3    H238486   3.041   2.502   3.783 -1.5180  1.1654 -2.5997
 5691TIP3   OH238487   4.688   4.585  13.641  0.0564 -0.0395  0.2622
 5691TIP3    H138488   4.700   4.504  13.692  0.0116  0.0223  0.3712
 5691TIP3    H238489   4.598   4.611  13.658 -0.0418 -0.1661 -0.0648
 5692TIP3   OH238490   6.635   3.264   5.941  0.1504  0.1424 -0.3444
 5692TIP3    H138491   6.626   3.244   6.035 -0.1579  2.0174  0.0532
 5692TIP3    H238492   6.655   3.179   5.901  1.7980 -0.4636  1.6083
 5693TIP3   OH238493   2.505   1.063  12.721  0.3209 -0.2150 -0.1416
 5693TIP3    H138494   2.530   1.155  12.718 -1.0914  0.3865  2.6731
 5693TIP3    H238495   2.547   1.030  12.801 -2.8438 -0.7058  1.4688
 5694TIP3   OH238496   4.096   4.174   0.599 -0.0870 -0.0471 -0.4698
 5694TIP3    H138497   4.158   4.221   0.543  1.2257 -0.2982  0.7109
 5694TIP3    H238498   4.034   4.134   0.538 -0.4327  2.0352 -1.5822
 5695TIP3   OH238499   3.534   6.562  15.393  0.2340 -0.2020  0.4877
 5695TIP3    H138500   3.460   6.519  15.350 -0.9766  0.0202  2.2599
 5695TIP3    H238501   3.514   6.656  15.386  1.0678 -0.0558 -0.2083
 5696TIP3   OH238502   2.633   2.157  12.959 -0.1916 -0.2590 -0.1724
 5696TIP3    H138503   2.571   2.217  13.001  0.2582 -0.4493  0.7890
 5696TIP3    H238504   2.711   2.210  12.944  0.2250 -0.5914  0.7251
 5697TIP3   OH238505   4.496   1.104  11.802  0.5151  0.3291 -0.1794
 5697TIP3    H138506   4.429   1.109  11.871  0.5587  0.6405 -0.1573
 5697TIP3    H238507   4.472   1.173  11.740  1.0132  0.6740  0.0054
 5698TIP3   OH238508   5.205   4.202  11.529 -0.1725 -0.2000  0.3931
 5698TIP3    H138509   5.269   4.142  11.568  0.3143 -0.3942 -0.6597
 5698TIP3    H238510   5.195   4.273  11.593  1.1227 -0.1510  0.5551
 5699TIP3   OH238511   6.153   6.695  15.673 -0.3616 -0.6057 -0.2762
 5699TIP3    H138512   6.157   6.599  15.680 -2.4660 -0.6639  0.6558
 5699TIP3    H238513   6.164   6.726  15.762 -3.8035 -0.2500  0.1729
 5700TIP3   OH238514   2.921   5.865  12.676  0.2056 -0.5253 -0.5655
 5700TIP3    H138515   2.993   5.847  12.615  0.1872 -1.2928 -0.3740
 5700TIP3    H238516   2.842   5.852  12.624  0.1319  3.1719 -1.6128
 5701TIP3   OH238517   1.327   2.994   0.686 -0.4984  0.1916 -0.7834
 5701TIP3    H138518   1.367   2.937   0.620 -0.6499 -0.5992 -0.2065
 5701TIP3    H238519   1.288   2.934   0.749 -3.4511  0.9178 -1.7718
 5702TIP3   OH238520   0.571   5.445  13.989 -0.2240  0.1628  0.4703
 5702TIP3    H138521   0.530   5.369  14.031 -0.6301  0.6354  0.9434
 5702TIP3    H238522   0.537   5.521  14.037  0.7135  0.6098  0.4483
 5703TIP3   OH238523   3.107   1.767  13.660  0.2448 -0.4001  0.3731
 5703TIP3    H138524   3.118   1.849  13.613 -1.3166 -0.1620  0.3559
 5703TIP3    H238525   3.121   1.789  13.752 -0.1657 -0.1039  0.3671
 5704TIP3   OH238526   5.076   0.562   2.754  0.0392  0.1701 -0.0964
 5704TIP3    H138527   5.083   0.495   2.822 -0.0571  0.4777  0.2192
 5704TIP3    H238528   5.067   0.513   2.672  1.1219 -0.2101 -0.0049
 5705TIP3   OH238529   3.990   5.707   2.229 -0.4817  0.0421  0.0239
 5705TIP3    H138530   3.985   5.720   2.323  0.4884 -1.5816  0.3337
 5705TIP3    H238531   4.079   5.734   2.205  0.6288 -2.9492  0.2600
 5706TIP3   OH238532   4.379   1.607   1.298  0.5456 -0.0872  0.5908
 5706TIP3    H138533   4.374   1.618   1.393  3.0852  3.9454  0.5286
 5706TIP3    H238534   4.300   1.650   1.265  1.1461  1.2896  0.8782
 5707TIP3   OH238535   3.998   4.698  14.557  0.1733  0.3449 -0.0206
 5707TIP3    H138536   3.987   4.647  14.477 -0.7823 -1.3117  1.1055
 5707TIP3    H238537   4.093   4.713  14.563  0.3333 -0.1833 -1.0670
 5708TIP3   OH238538   3.887   5.201  10.868 -0.4916 -0.6661 -0.2090
 5708TIP3    H138539   3.940   5.151  10.805  1.6186  1.1194  0.0062
 5708TIP3    H238540   3.825   5.250  10.813 -1.4475 -2.1623 -0.5307
 5709TIP3   OH238541   3.726   5.064  15.994  0.4696  0.0798 -0.1868
 5709TIP3    H138542   3.765   5.070  16.081  1.9709 -3.7229 -0.3915
 5709TIP3    H238543   3.632   5.067  16.009  0.6067 -2.3805  1.9608
 5710TIP3   OH238544   1.800   4.570  14.882 -0.0460 -0.0587 -0.5257
 5710TIP3    H138545   1.783   4.489  14.834 -0.8562  0.2398 -0.7642
 5710TIP3    H238546   1.849   4.624  14.820  0.6383 -0.4195 -0.3091
 5711TIP3   OH238547   6.738   0.375   3.178  0.4488 -0.0335  0.3217
 5711TIP3    H138548   6.748   0.326   3.260  0.6373 -0.4294  0.0603
 5711TIP3    H238549   6.743   0.467   3.205 -0.0465 -0.1498  0.8332
 5712TIP3   OH238550   4.266   3.149  14.082  0.1252 -0.4358  0.1152
 5712TIP3    H138551   4.246   3.113  13.996  0.5335  1.2499 -0.7456
 5712TIP3    H238552   4.262   3.075  14.141  0.9061 -1.8733 -1.5253
 5713TIP3   OH238553   1.653   4.455   5.613 -0.5116 -0.7181 -0.3425
 5713TIP3    H138554   1.710   4.488   5.683 -0.5350  0.4129 -0.8345
 5713TIP3    H238555   1.711   4.442   5.538 -0.5473 -1.6060 -0.2286
 5714TIP3   OH238556   2.783   5.147  14.814  0.3170 -0.1950 -0.2976
 5714TIP3    H138557   2.819   5.236  14.810 -0.1067 -0.0159 -0.2333
 5714TIP3    H238558   2.723   5.143  14.739  0.0576 -0.3033 -0.0826
 5715TIP3   OH238559   2.226   2.371   4.699  0.3280  0.4529 -0.0418
 5715TIP3    H138560   2.278   2.293   4.716 -0.2183  0.2318  0.7060
 5715TIP3    H238561   2.261   2.437   4.759  2.1597  1.4582 -2.0950
 5716TIP3   OH238562   2.096   6.642  14.585  0.1960 -0.1108 -0.2923
 5716TIP3    H138563   2.091   6.589  14.505 -1.3839 -0.5409  0.0466
 5716TIP3    H238564   2.056   6.726  14.561 -0.8616 -0.4550  0.1676
 5717TIP3   OH238565   6.219   3.328   3.836  0.1255 -0.0846 -0.5246
 5717TIP3    H138566   6.184   3.345   3.749 -0.1855 -0.4261 -0.4665
 5717TIP3    H238567   6.180   3.245   3.863  0.2872 -0.0275 -0.0951
 5718TIP3   OH238568   2.108   6.731   3.405 -0.0136  0.1589  0.0062
 5718TIP3    H138569   2.133   6.818   3.433  1.9108 -0.4986  0.5095
 5718TIP3    H238570   2.098   6.738   3.310 -1.6917  1.2845  0.2177
 5719TIP3   OH238571   0.635   5.956   2.526 -0.3261 -0.1613  0.4211
 5719TIP3    H138572   0.544   5.926   2.525 -0.0908 -1.0764  2.2515
 5719TIP3    H238573   0.636   6.027   2.591  0.4822 -0.9953  1.3435
 5720TIP3   OH238574   2.895   1.033   1.773  0.1875  0.2592  0.4498
 5720TIP3    H138575   2.803   1.060   1.763  1.0682  2.8319 -2.1483
 5720TIP3    H238576   2.928   1.089   1.844  0.0187  0.1300  0.6312
 5721TIP3   OH238577   4.798   1.313   5.673 -0.1316  0.3359 -0.2207
 5721TIP3    H138578   4.825   1.365   5.749 -0.2464 -0.2374  0.2308
 5721TIP3    H238579   4.873   1.255   5.656 -0.6106 -0.4757  0.3231
 5722TIP3   OH238580   3.470   5.181  11.568  0.1360 -0.0718  0.4743
 5722TIP3    H138581   3.484   5.091  11.539  0.3566 -0.5649  2.0297
 5722TIP3    H238582   3.390   5.177  11.620 -0.1037  0.7375  0.1856
 5723TIP3   OH238583   5.036   2.293   1.401  0.6939  0.5031  0.8655
 5723TIP3    H138584   4.953   2.271   1.443  0.8732 -2.2517  0.0081
 5723TIP3    H238585   5.011   2.344   1.324 -0.0310  1.3170  1.6224
 5724TIP3   OH238586   3.542   3.333   6.150  0.1101  0.1077  0.2909
 5724TIP3    H138587   3.586   3.276   6.086 -0.2348  1.3656 -1.1308
 5724TIP3    H238588   3.464   3.284   6.176 -0.9682  0.4601 -2.0252
 5725TIP3   OH238589   3.939   3.302  13.918 -0.2109 -0.6608 -0.2657
 5725TIP3    H138590   3.980   3.388  13.915 -0.6797 -0.3979  0.6692
 5725TIP3    H238591   3.849   3.317  13.889 -0.8263 -0.4897  1.6064
 5726TIP3   OH238592   1.456   3.638   0.027 -0.1446  0.4456 -0.5687
 5726TIP3    H138593   1.498   3.697   0.089 -1.0202 -0.6959  1.2100
 5726TIP3    H238594   1.362   3.656   0.037 -0.4440 -1.2715  0.1300
 5727TIP3   OH238595   5.074   2.664  14.393  0.9439  0.6510 -0.4673
 5727TIP3    H138596   5.067   2.572  14.419  0.6707  0.7347 -0.2452
 5727TIP3    H238597   5.095   2.710  14.474 -1.0794  1.0741 -0.1480
 5728TIP3   OH238598   1.982   5.162   3.957 -0.7523  0.2749  0.1665
 5728TIP3    H138599   1.989   5.085   4.014  2.2100  1.7941  2.0999
 5728TIP3    H238600   2.053   5.152   3.894  1.3064  2.3962  1.9429
 5729TIP3   OH238601   4.317   3.230   3.914  0.2890  0.6687 -0.0334
 5729TIP3    H138602   4.364   3.158   3.956 -2.2406 -1.0736 -0.0096
 5729TIP3    H238603   4.301   3.200   3.825 -0.9135  1.1018  0.0176
 5730TIP3   OH238604   0.259   0.209   2.989 -0.3913  0.1521 -0.2502
 5730TIP3    H138605   0.337   0.160   2.962 -0.6427 -0.5984  0.3394
 5730TIP3    H238606   0.205   0.214   2.909  0.2856  0.7609 -0.6849
 5731TIP3   OH238607   2.362   2.523   5.529  0.1214  0.1862  0.3263
 5731TIP3    H138608   2.393   2.568   5.450  0.7464 -1.3069 -0.3216
 5731TIP3    H238609   2.329   2.593   5.585 -1.6608  1.1988 -1.8340
 5732TIP3   OH238610   5.487   5.609   4.158 -0.1662 -0.0854  0.2068
 5732TIP3    H138611   5.417   5.555   4.121  1.0823 -1.6846  0.1031
 5732TIP3    H238612   5.491   5.685   4.100  0.5840 -1.7003 -1.9655
 5733TIP3   OH238613   2.878   0.563  15.023 -0.3263  0.4001  0.6722
 5733TIP3    H138614   2.913   0.507  15.092 -0.2503 -1.4113 -0.7646
 5733TIP3    H238615   2.784   0.568  15.041 -0.4793 -0.9459  0.3408
 5734TIP3   OH238616   0.819   1.131   4.121 -0.4703 -0.5800 -0.1804
 5734TIP3    H138617   0.779   1.185   4.189  0.5803  0.0433 -0.0345
 5734TIP3    H238618   0.903   1.174   4.103  0.0875 -1.7870 -0.5433
 5735TIP3   OH238619   3.412   6.603   5.736 -0.0634 -0.0374  0.0491
 5735TIP3    H138620   3.411   6.649   5.820  0.0727  0.6516 -0.3147
 5735TIP3    H238621   3.442   6.515   5.757 -0.8727 -0.1365  0.8436
 5736TIP3   OH238622   6.216   0.505   2.654 -0.4361 -0.1084 -0.3002
 5736TIP3    H138623   6.198   0.430   2.597 -1.9792  1.2430 -1.7095
 5736TIP3    H238624   6.153   0.496   2.726  0.2080 -0.7941  0.1880
 5737TIP3   OH238625   2.614   0.660  15.770  0.0671  0.5117 -0.4359
 5737TIP3    H138626   2.700   0.667  15.729  0.0689  0.9856 -0.3496
 5737TIP3    H238627   2.617   0.576  15.815  0.7677  0.8704  0.2110
 5738TIP3   OH238628   5.477   3.134  11.464  0.2511  0.4513 -0.5325
 5738TIP3    H138629   5.539   3.166  11.399  2.1896  0.3514  1.1346
 5738TIP3    H238630   5.513   3.049  11.491 -1.8790 -0.6937 -1.0962
 5739TIP3   OH238631   1.481   4.835   4.235 -0.8130 -0.0802 -0.2650
 5739TIP3    H138632   1.509   4.919   4.199  0.5115 -0.9020 -1.2572
 5739TIP3    H238633   1.425   4.858   4.309  1.3854  1.6873  0.9900
 5740TIP3   OH238634   5.255   0.521  11.254 -0.0370  0.2377 -0.1218
 5740TIP3    H138635   5.202   0.593  11.219 -0.9750 -0.9966 -1.3101
 5740TIP3    H238636   5.216   0.503  11.340 -1.9168 -0.9635 -1.1663
 5741TIP3   OH238637   4.413   5.685  11.523  0.0570  0.3841 -0.0592
 5741TIP3    H138638   4.451   5.699  11.610 -1.2686 -1.0191  0.7900
 5741TIP3    H238639   4.487   5.658  11.469  0.6491 -0.2115  1.0124
 5742TIP3   OH238640   4.514   4.014   4.809 -0.0584 -0.0600  0.0749
 5742TIP3    H138641   4.586   4.071   4.785  0.9787 -1.2615  0.2201
 5742TIP3    H238642   4.445   4.035   4.747  0.6905  0.5822 -0.5588
 5743TIP3   OH238643   6.587   5.986   0.667 -0.2646  0.0364 -0.1320
 5743TIP3    H138644   6.555   5.909   0.713  0.3342 -0.8935 -1.2345
 5743TIP3    H238645   6.520   6.053   0.682 -0.0725 -0.2035  2.0938
 5744TIP3   OH238646   1.616   2.678   5.261  0.4615  0.3321 -0.1409
 5744TIP3    H138647   1.556   2.647   5.193  1.7406 -0.5492 -0.9133
 5744TIP3    H238648   1.624   2.772   5.244  1.1665  0.0380 -1.5593
 5745TIP3   OH238649   1.913   4.860  14.090 -0.4214  0.3317 -0.4018
 5745TIP3    H138650   1.874   4.934  14.137 -1.8990 -1.8510  2.0636
 5745TIP3    H238651   2.001   4.853  14.125 -0.7248  0.1481  0.3434
 5746TIP3   OH238652   1.158   1.809   6.181  0.1232 -0.4900  0.1215
 5746TIP3    H138653   1.143   1.714   6.185 -2.2162 -0.3036 -1.7487
 5746TIP3    H238654   1.178   1.826   6.089  3.5330  0.5799  0.9151
 5747TIP3   OH238655   1.196   5.939   3.371  0.3866  0.5310  0.3033
 5747TIP3    H138656   1.102   5.922   3.371  0.4711  0.0448  0.1584
 5747TIP3    H238657   1.212   5.988   3.452  0.0707  0.2835  0.5160
 5748TIP3   OH238658   4.324   0.851  16.589  0.2606  0.1990  0.0990
 5748TIP3    H138659   4.323   0.941  16.623 -3.4449  1.0107 -1.5958
 5748TIP3    H238660   4.402   0.847  16.535  0.7939  2.2566  0.6027
 5749TIP3   OH238661   2.003   1.411   0.946  0.3300  0.2770  0.5024
 5749TIP3    H138662   1.980   1.436   0.856 -0.1207 -1.8338 -0.0213
 5749TIP3    H238663   1.926   1.433   0.998  0.3117  0.8282  0.2466
 5750TIP3   OH238664   2.060   5.220   1.206  0.0357 -1.3489 -0.0919
 5750TIP3    H138665   2.152   5.241   1.189 -0.0586 -0.6201  0.2354
 5750TIP3    H238666   2.013   5.301   1.187 -0.4141 -1.4026  0.7347
 5751TIP3   OH238667   1.835   5.280   1.627  0.7154 -0.3429 -0.1112
 5751TIP3    H138668   1.856   5.331   1.549  1.6542 -1.5485 -0.6955
 5751TIP3    H238669   1.747   5.308   1.652  1.1072  1.3544 -0.5372
 5752TIP3   OH238670   3.123   3.796  10.825 -0.3255 -0.5632  0.0433
 5752TIP3    H138671   3.048   3.748  10.791 -1.7977  1.2582  0.6042
 5752TIP3    H238672   3.093   3.833  10.909  0.7955  1.1118 -0.2415
 5753TIP3   OH238673   3.652   2.012  16.760 -0.4534  0.2335 -0.3497
 5753TIP3    H138674   3.747   2.003  16.760 -0.6085 -2.0104 -0.0388
 5753TIP3    H238675   3.632   2.068  16.685  1.1670  1.7955  0.3434
 5754TIP3   OH238676   2.534   5.577   0.170 -0.3286  0.1009  0.0991
 5754TIP3    H138677   2.557   5.600   0.080  1.6976  0.4874  0.6693
 5754TIP3    H238678   2.546   5.482   0.174  1.0341  0.2652  0.3186
 5755TIP3   OH238679   2.896   6.492   0.800  0.9401  0.1093  0.3751
 5755TIP3    H138680   2.884   6.445   0.718  1.1473  0.3257  0.2189
 5755TIP3    H238681   2.917   6.581   0.774 -1.2707  0.7873  0.6608
 5756TIP3   OH238682   6.259   5.609   3.947 -0.4910  0.2150  0.3824
 5756TIP3    H138683   6.343   5.564   3.955 -0.0367  0.7195 -1.1635
 5756TIP3    H238684   6.212   5.560   3.879 -0.6090  1.1274 -0.2213
 5757TIP3   OH238685   6.062   6.764  12.032  0.4994 -0.0193  0.2255
 5757TIP3    H138686   6.024   6.677  12.015  0.9214 -0.2541  0.4675
 5757TIP3    H238687   6.048   6.779  12.125 -0.7713  0.7654 -0.0619
 5758TIP3   OH238688   2.135   6.405  10.930 -0.0623 -0.4745 -0.1147
 5758TIP3    H138689   2.081   6.340  10.975  0.8740 -0.7141  0.6787
 5758TIP3    H238690   2.174   6.357  10.857 -0.1730 -0.5465 -0.1271
 5759TIP3   OH238691   2.403   4.272  12.070 -0.0872 -0.4639 -0.0499
 5759TIP3    H138692   2.483   4.309  12.107  0.2017  1.4992 -2.4418
 5759TIP3    H238693   2.380   4.330  11.998 -2.6815 -2.0084 -0.5975
 5760TIP3   OH238694   1.954   6.505  12.719 -0.4930  0.0274 -0.0752
 5760TIP3    H138695   1.905   6.426  12.696 -0.2627 -0.1807  0.1426
 5760TIP3    H238696   1.888   6.563  12.756 -0.5745 -0.2628  0.2453
 5761TIP3   OH238697   3.697   4.609   0.901  0.1844 -0.0540 -0.4131
 5761TIP3    H138698   3.776   4.559   0.881  0.9260  0.3957  1.2058
 5761TIP3    H238699   3.624   4.550   0.878  1.0197 -1.7236  0.9760
 5762TIP3   OH238700   4.479   1.808   2.578 -0.7755  0.1600 -0.1768
 5762TIP3    H138701   4.550   1.765   2.530  0.9729 -1.4833  3.4769
 5762TIP3    H238702   4.400   1.785   2.529  0.7349 -2.0201 -1.8123
 5763TIP3   OH238703   6.418   6.365   3.866 -0.0512 -0.1720 -0.7674
 5763TIP3    H138704   6.443   6.292   3.809 -1.8334 -0.4142 -1.3085
 5763TIP3    H238705   6.466   6.441   3.830  2.6667 -1.1903  0.4544
 5764TIP3   OH238706   2.022   4.510  12.343  0.2681  0.4376 -0.0121
 5764TIP3    H138707   2.036   4.427  12.388  2.2822  1.5791  1.5869
 5764TIP3    H238708   2.025   4.488  12.250  1.2084 -1.2013  0.3832
 5765TIP3   OH238709   1.636   2.528  15.810 -0.1357  0.1837 -0.5314
 5765TIP3    H138710   1.727   2.558  15.804  0.1760 -0.9269 -1.9835
 5765TIP3    H238711   1.598   2.549  15.725 -1.1951  0.4369 -0.0120
 5766TIP3   OH238712   6.487   6.001   1.224  0.1113 -0.2545 -0.4429
 5766TIP3    H138713   6.581   6.019   1.224 -0.1084  1.1245 -1.6878
 5766TIP3    H238714   6.458   6.029   1.137 -1.1416 -2.4662 -0.8082
 5767TIP3   OH238715   2.118   5.171  12.722  0.0926  0.0777  0.0690
 5767TIP3    H138716   2.049   5.198  12.661 -0.0101  2.8070  1.2213
 5767TIP3    H238717   2.071   5.137  12.798 -0.0818  1.8185  0.8011
 5768TIP3   OH238718   4.850   4.533   4.365  0.0129  0.7451 -0.1200
 5768TIP3    H138719   4.766   4.488   4.377  0.1097  0.2646 -1.1160
 5768TIP3    H238720   4.882   4.549   4.454 -0.1270 -0.9920  0.2812
 5769TIP3   OH238721   4.069   5.341  12.537 -0.3627  0.2068 -0.1427
 5769TIP3    H138722   4.076   5.245  12.539  0.0792  0.2388  1.4886
 5769TIP3    H238723   4.152   5.370  12.498  0.2628 -0.0367  0.9691
 5770TIP3   OH238724   0.848   1.559  14.441  0.0717 -0.1600 -0.0996
 5770TIP3    H138725   0.867   1.643  14.399 -0.5670 -1.3899 -3.1355
 5770TIP3    H238726   0.754   1.563  14.460  0.1081 -0.0527  0.0547
 5771TIP3   OH238727   2.126   4.642  13.676  0.0921 -0.0632  0.1428
 5771TIP3    H138728   2.119   4.677  13.765 -0.8453 -0.2766  0.1601
 5771TIP3    H238729   2.078   4.705  13.622  1.6618  0.7199 -0.4188
 5772TIP3   OH238730   6.776   1.600   2.694 -0.3387 -0.4567  0.2663
 5772TIP3    H138731   6.688   1.609   2.729  0.0408  1.3152  0.8813
 5772TIP3    H238732   6.778   1.655   2.617  0.1128 -0.8256  0.0043
 5773TIP3   OH238733   5.390   0.632  14.308 -0.9352 -0.6195  0.2476
 5773TIP3    H138734   5.367   0.705  14.251  0.3910 -1.1602 -1.0465
 5773TIP3    H238735   5.317   0.624  14.368 -1.5542  1.1353 -0.2281
 5774TIP3   OH238736   0.434   5.509   3.336 -0.6736  0.0786  0.2529
 5774TIP3    H138737   0.389   5.432   3.372  3.1405 -2.5914 -0.0508
 5774TIP3    H238738   0.514   5.516   3.388 -0.3387  3.1969 -0.5210
 5775TIP3   OH238739   4.420   0.648   4.223 -0.2146  0.1071 -0.1542
 5775TIP3    H138740   4.496   0.637   4.280  0.9499  0.1118 -1.6185
 5775TIP3    H238741   4.385   0.735   4.245 -0.0282 -0.0496  0.7910
 5776TIP3   OH238742   5.720   0.491  15.601 -0.3975 -0.3525 -0.2304
 5776TIP3    H138743   5.665   0.569  15.597 -1.7225 -1.1800  0.7647
 5776TIP3    H238744   5.692   0.447  15.681  1.1593 -1.2474 -0.1436
 5777TIP3   OH238745   6.611   3.888   5.740 -0.2661 -0.2191  0.3363
 5777TIP3    H138746   6.690   3.928   5.704  1.2298 -2.2955  1.1445
 5777TIP3    H238747   6.628   3.794   5.736 -3.0194 -0.7918 -0.1339
 5778TIP3   OH238748   3.823   1.820  15.671 -0.4114 -0.0424  0.0318
 5778TIP3    H138749   3.762   1.769  15.617  1.1726 -1.8249 -0.1571
 5778TIP3    H238750   3.859   1.757  15.733  0.8027  1.1019  0.5218
 5779TIP3   OH238751   1.262   0.875  11.363 -0.3305  0.5267 -0.0695
 5779TIP3    H138752   1.243   0.920  11.281  0.7360 -0.4246 -0.8682
 5779TIP3    H238753   1.353   0.848  11.356 -0.7584 -1.2329  0.6099
 5780TIP3   OH238754   2.792   1.160   6.235 -0.1631 -0.2660  0.0928
 5780TIP3    H138755   2.795   1.150   6.140  1.1159  0.6615  0.0148
 5780TIP3    H238756   2.826   1.077   6.268 -1.1330 -0.8077 -0.2266
 5781TIP3   OH238757   6.397   4.545   0.538  0.0544 -0.2999  0.9089
 5781TIP3    H138758   6.476   4.569   0.586  1.0531 -1.8272  0.1089
 5781TIP3    H238759   6.360   4.628   0.509  1.0094  0.4823  1.8521
 5782TIP3   OH238760   2.331   1.358  10.854 -0.4613  0.6232 -0.3057
 5782TIP3    H138761   2.395   1.348  10.925 -0.2323  2.4810 -0.2006
 5782TIP3    H238762   2.248   1.328  10.891 -0.0184 -0.0754  0.1519
 5783TIP3   OH238763   3.770   4.842   3.076 -0.0602 -0.6982 -0.1966
 5783TIP3    H138764   3.738   4.894   3.001  1.7498 -1.4069 -1.5423
 5783TIP3    H238765   3.814   4.906   3.132  0.7245 -0.4816 -1.0217
 5784TIP3   OH238766   1.713   3.033   5.755 -0.0571  0.1950  0.0695
 5784TIP3    H138767   1.796   3.078   5.772  0.7554 -1.5920  1.0405
 5784TIP3    H238768   1.673   3.024   5.842 -0.8789  0.2677 -0.2926
 5785TIP3   OH238769   4.012   1.634   0.015 -0.1027  0.4180 -0.1813
 5785TIP3    H138770   3.950   1.580   0.064  0.6950 -1.2081 -0.8849
 5785TIP3    H238771   4.012   1.596  -0.073  0.8732  1.2480 -0.5537
 5786TIP3   OH238772   3.506   5.087  14.287 -0.0384  0.4114  0.2116
 5786TIP3    H138773   3.586   5.037  14.276 -1.2529 -1.1224 -2.9851
 5786TIP3    H238774   3.458   5.042  14.356 -0.9937 -3.0342 -2.3869
 5787TIP3   OH238775   2.335   1.014   5.792  0.4936 -0.1239  0.0218
 5787TIP3    H138776   2.378   0.929   5.795  4.0656  1.5088 -0.1530
 5787TIP3    H238777   2.306   1.029   5.882  2.6572 -0.2594  0.7969
 5788TIP3   OH238778   1.536   6.138  14.484 -0.2500  0.0968  0.2579
 5788TIP3    H138779   1.520   6.112  14.394  2.0914 -0.2764 -0.1166
 5788TIP3    H238780   1.623   6.179  14.482  0.8141 -1.7782  2.6251
 5789TIP3   OH238781   4.411   1.752  10.511 -0.3793 -0.4334 -0.0619
 5789TIP3    H138782   4.371   1.819  10.567  0.1282 -0.6377  0.5502
 5789TIP3    H238783   4.402   1.671  10.561  1.2935 -0.3974  0.3471
 5790TIP3   OH238784   5.279   2.534  10.936  0.9650  0.6763  0.7535
 5790TIP3    H138785   5.289   2.473  10.863  4.3141 -0.9232  2.3300
 5790TIP3    H238786   5.203   2.501  10.984  1.9733 -1.6314  0.9002
 5791TIP3   OH238787   1.410   5.763  10.447  0.2315 -0.3372  0.1988
 5791TIP3    H138788   1.396   5.825  10.375 -0.6641  0.2293  0.8433
 5791TIP3    H238789   1.460   5.692  10.407 -1.5057 -0.7588 -1.3803
 5792TIP3   OH238790   2.089   4.826   2.763  0.0872 -0.7108  0.3717
 5792TIP3    H138791   2.171   4.798   2.721 -0.4619 -0.2529 -1.0602
 5792TIP3    H238792   2.029   4.752   2.749 -0.1093 -0.5444  0.3375
 5793TIP3   OH238793   2.574   2.374   6.580 -0.3198  0.0823 -0.0532
 5793TIP3    H138794   2.530   2.318   6.517  2.5173 -0.2123 -1.9522
 5793TIP3    H238795   2.531   2.459   6.571 -1.9077 -0.7066 -0.1879
 5794TIP3   OH238796   3.375   0.970  12.261  0.3382  0.1234 -0.2932
 5794TIP3    H138797   3.468   0.948  12.263  0.7399  1.4827  3.4686
 5794TIP3    H238798   3.334   0.896  12.216  3.0058 -1.5276 -0.2373
 5795TIP3   OH238799   4.503   4.327  15.544  0.7792  0.0363 -0.2605
 5795TIP3    H138800   4.540   4.270  15.477  0.5388  0.2457 -0.5766
 5795TIP3    H238801   4.437   4.378  15.497  1.7238  1.3338 -0.2223
 5796TIP3   OH238802   6.540   4.127   0.599 -0.1575  0.2541 -0.1799
 5796TIP3    H138803   6.490   4.186   0.543 -0.1279 -0.3112 -0.8227
 5796TIP3    H238804   6.624   4.115   0.553  0.2021  0.4505  0.4108
 5797TIP3   OH238805   4.511   2.791  11.639 -0.9136  0.1094 -0.2940
 5797TIP3    H138806   4.450   2.789  11.712  0.5942  0.1673  1.0112
 5797TIP3    H238807   4.572   2.719  11.655 -1.4529 -0.8925 -2.3540
 5798TIP3   OH238808   1.858   5.499  17.140  0.0280 -0.3974 -0.8000
 5798TIP3    H138809   1.815   5.414  17.137 -1.7665  0.4082  0.5672
 5798TIP3    H238810   1.817   5.550  17.070  1.3825 -0.7374 -1.8862
 5799TIP3   OH238811   2.512   5.897  14.736 -0.3422  0.9547  0.5039
 5799TIP3    H138812   2.447   5.849  14.685 -0.3339  2.5326 -1.0901
 5799TIP3    H238813   2.473   5.984  14.747  0.9620  1.5393  0.6017
 5800TIP3   OH238814   3.429   6.130   0.497  0.2585 -0.0483  0.1672
 5800TIP3    H138815   3.489   6.112   0.569  0.0156 -0.2310  0.3280
 5800TIP3    H238816   3.475   6.101   0.418  0.8171  0.8113  0.1634
 5801TIP3   OH238817   0.723   3.239   2.717  0.5444  0.0423  0.1009
 5801TIP3    H138818   0.713   3.286   2.635  1.4932  2.6533  1.3795
 5801TIP3    H238819   0.800   3.184   2.704  0.3919  0.0445 -0.8834
 5802TIP3   OH238820   2.398   5.910  16.226 -0.5827 -0.5196 -0.2312
 5802TIP3    H138821   2.448   5.978  16.179  0.4467 -0.7023  0.5739
 5802TIP3    H238822   2.447   5.829  16.209 -2.5389 -1.3747 -2.3171
 5803TIP3   OH238823   5.228   4.247   1.531  0.4549 -0.4038  0.2363
 5803TIP3    H138824   5.200   4.250   1.439 -0.2565 -0.0739  0.4615
 5803TIP3    H238825   5.293   4.317   1.538 -0.0392  0.0701  0.1582
 5804TIP3   OH238826   3.638   3.107   3.657  0.3151 -0.4961  0.0050
 5804TIP3    H138827   3.614   3.073   3.743  0.2271 -1.8719 -0.5375
 5804TIP3    H238828   3.557   3.144   3.621  0.8177  2.2308  1.3952
 5805TIP3   OH238829   0.762   4.364   4.725  0.2726  0.1352 -0.2439
 5805TIP3    H138830   0.704   4.384   4.652 -0.0363 -0.7202 -0.2367
 5805TIP3    H238831   0.850   4.377   4.690  0.2372 -2.3371 -1.4517
 5806TIP3   OH238832   3.431   0.009  12.401 -0.8962  0.4940  0.2716
 5806TIP3    H138833   3.488   0.055  12.339 -0.7805  0.0064  0.0111
 5806TIP3    H238834   3.479   0.011  12.484 -0.7683  0.6059  0.1949
 5807TIP3   OH238835   1.160   3.318  11.505 -0.3137 -0.3813 -0.3156
 5807TIP3    H138836   1.093   3.313  11.437  0.1747 -1.2136 -0.7555
 5807TIP3    H238837   1.112   3.310  11.587 -0.9885  1.3502 -0.5194
 5808TIP3   OH238838   4.690   4.843   2.283  0.5233 -0.7015 -0.0581
 5808TIP3    H138839   4.754   4.773   2.271  0.4674 -0.8775  0.6313
 5808TIP3    H238840   4.612   4.811   2.237  1.2009 -0.0726 -1.7012
 5809TIP3   OH238841   4.974   3.507   4.813 -0.1001 -0.7868  0.1586
 5809TIP3    H138842   4.886   3.484   4.842 -0.1398  1.0724  1.7321
 5809TIP3    H238843   5.007   3.566   4.881  1.0941  1.1938 -1.9713
 5810TIP3   OH238844   4.032   5.957  14.829 -0.3647  0.2323  0.2864
 5810TIP3    H138845   4.081   6.014  14.770  0.2529  0.3226  0.8718
 5810TIP3    H238846   3.958   5.927  14.778  0.3218  0.0682 -0.6370
 5811TIP3   OH238847   1.722   3.612   3.347  0.0424 -0.0186 -0.0535
 5811TIP3    H138848   1.705   3.674   3.277 -0.8228 -0.0791  0.0842
 5811TIP3    H238849   1.689   3.656   3.426 -0.5738 -0.6447  0.0448
 5812TIP3   OH238850   3.316   6.650   3.651  0.2739  0.0679  0.4996
 5812TIP3    H138851   3.376   6.607   3.590  0.6900 -0.0443  0.9735
 5812TIP3    H238852   3.371   6.669   3.728 -0.5335 -1.0373  1.3916
 5813TIP3   OH238853   0.972   2.615  12.526 -0.5541  0.4004  0.3584
 5813TIP3    H138854   0.925   2.630  12.609  1.4292  1.8396  1.3103
 5813TIP3    H238855   1.064   2.628  12.548 -0.0446  2.1250 -2.3322
 5814TIP3   OH238856   3.658   5.864  16.969 -0.5097  0.1272 -0.4037
 5814TIP3    H138857   3.699   5.923  16.907 -1.2952  0.2521 -0.8245
 5814TIP3    H238858   3.730   5.820  17.014  0.0846 -0.4678 -1.8911
 5815TIP3   OH238859   0.952   3.014  11.911 -0.0132 -0.0783  0.5090
 5815TIP3    H138860   0.867   3.052  11.889  0.3654  1.3675  1.4112
 5815TIP3    H238861   0.957   2.935  11.858 -0.7264  1.2507 -1.6984
 5816TIP3   OH238862   1.034   2.919   5.388  0.1300 -0.1424  0.5777
 5816TIP3    H138863   1.080   2.955   5.464 -0.5020 -1.2928  1.5287
 5816TIP3    H238864   1.080   2.838   5.367  1.6209  1.1834 -1.6333
 5817TIP3   OH238865   0.949   5.045  15.612  0.1122 -0.1384 -0.2839
 5817TIP3    H138866   1.039   5.068  15.587 -0.0632 -0.4815 -1.2448
 5817TIP3    H238867   0.932   5.100  15.689  1.1114 -0.0035 -0.1379
 5818TIP3   OH238868   5.890   2.958   0.465  0.2761  0.3803  0.1005
 5818TIP3    H138869   5.796   2.974   0.458  0.0254 -0.4039  1.2349
 5818TIP3    H238870   5.912   2.983   0.555  0.2490 -3.2839  1.3217
 5819TIP3   OH238871   5.970   5.649  17.041  0.2260  0.6573 -0.2323
 5819TIP3    H138872   5.941   5.559  17.057  0.8796  0.7284  1.7021
 5819TIP3    H238873   6.042   5.641  16.978  0.5102 -0.2261  0.1930
 5820TIP3   OH238874   0.732   2.010   0.169  0.4676  0.1816  0.0595
 5820TIP3    H138875   0.661   2.008   0.234  0.5809 -0.8721  0.1536
 5820TIP3    H238876   0.704   1.949   0.101 -0.4894  2.5222 -1.8022
 5821TIP3   OH238877   2.319   1.767   5.305  0.4166 -0.0962 -0.3056
 5821TIP3    H138878   2.368   1.685   5.308 -0.1528 -0.4270  0.3906
 5821TIP3    H238879   2.290   1.781   5.395 -0.0701  0.5210 -0.5458
 5822TIP3   OH238880   1.225   3.002  12.586  0.2154 -0.1579  0.3505
 5822TIP3    H138881   1.204   2.931  12.647 -1.4040 -2.2550 -2.3981
 5822TIP3    H238882   1.303   2.971  12.540 -0.3104 -0.0202 -0.6503
 5823TIP3   OH238883   6.507   1.747  15.252  0.3906  0.0574  0.4308
 5823TIP3    H138884   6.509   1.825  15.197 -1.4368 -0.8874 -1.0588
 5823TIP3    H238885   6.599   1.723  15.262  0.8778  1.3874 -0.5706
 5824TIP3   OH238886   1.490   1.872   4.411 -0.0835  0.0733 -0.1697
 5824TIP3    H138887   1.496   1.805   4.478  0.7413  0.7912  0.4910
 5824TIP3    H238888   1.575   1.869   4.366 -0.3021  0.2062 -0.6015
 5825TIP3   OH238889   5.114   3.923  14.073  0.1157 -0.8110 -0.1919
 5825TIP3    H138890   5.144   3.832  14.076  0.1715 -0.7995 -0.4230
 5825TIP3    H238891   5.181   3.971  14.122  0.6204 -0.7470 -0.9371
 5826TIP3   OH238892   0.042   4.665   5.993  0.4122  0.0919 -0.2672
 5826TIP3    H138893   0.108   4.733   5.977 -0.8322  1.1863 -0.9329
 5826TIP3    H238894  -0.021   4.676   5.922  0.3437 -2.0108 -0.6024
 5827TIP3   OH238895   3.429   2.170   4.117  0.1950 -0.3728  0.4025
 5827TIP3    H138896   3.421   2.088   4.068 -0.3757 -0.7272  1.0543
 5827TIP3    H238897   3.344   2.181   4.159  0.8285 -0.3761  1.7423
 5828TIP3   OH238898   0.520   4.538  16.642  0.7738 -0.5254  0.2748
 5828TIP3    H138899   0.482   4.455  16.613  1.5121 -0.7133 -0.1713
 5828TIP3    H238900   0.599   4.513  16.689 -1.0345 -0.3387  3.7123
 5829TIP3   OH238901   2.305   2.061   1.766  0.0750 -0.3349  0.5023
 5829TIP3    H138902   2.323   2.033   1.676  0.9061 -0.4848  0.7117
 5829TIP3    H238903   2.352   1.999   1.821  0.3008  0.2865  1.0226
 5830TIP3   OH238904   0.971   0.115   3.027 -0.0882 -0.5202  0.0188
 5830TIP3    H138905   0.883   0.080   3.017  0.1191 -0.9848 -0.2036
 5830TIP3    H238906   0.992   0.101   3.120  0.6240 -2.5233 -0.4023
 5831TIP3   OH238907   6.621   2.389  15.459  0.2678  0.1569  0.5019
 5831TIP3    H138908   6.547   2.426  15.412  0.5463  0.0977  0.0093
 5831TIP3    H238909   6.625   2.439  15.541  1.7371  2.5363 -0.8937
 5832TIP3   OH238910   4.315   2.337   3.562 -0.1104  0.3591 -0.1812
 5832TIP3    H138911   4.389   2.365   3.615 -1.2809 -0.1489  1.8522
 5832TIP3    H238912   4.330   2.243   3.548  0.3782  0.5651 -1.0923
 5833TIP3   OH238913   4.517   6.587   0.314  0.1379 -0.5839 -0.1243
 5833TIP3    H138914   4.567   6.515   0.276  0.1158 -1.0198  0.6483
 5833TIP3    H238915   4.581   6.657   0.328  0.4172 -0.9230  0.3067
 5834TIP3   OH238916   2.615   0.547   0.308 -0.1559  0.5566 -0.4497
 5834TIP3    H138917   2.628   0.454   0.291 -0.0778  0.7488 -1.5682
 5834TIP3    H238918   2.611   0.587   0.221  2.7759  2.0054 -0.0422
 5835TIP3   OH238919   5.770   3.148  16.219 -0.5828 -0.5404 -0.5076
 5835TIP3    H138920   5.777   3.235  16.257 -1.2592 -0.3663 -0.7550
 5835TIP3    H238921   5.760   3.089  16.294 -0.0112 -0.4244 -0.3330
 5836TIP3   OH238922   3.725   6.649  16.710  0.0417  0.0854 -0.0095
 5836TIP3    H138923   3.806   6.669  16.663  0.5212  0.1352  0.8183
 5836TIP3    H238924   3.728   6.554  16.722  0.5836  0.2239  1.0754
 5837TIP3   OH238925   2.394   0.176  15.623  0.0336 -0.2873  0.2344
 5837TIP3    H138926   2.344   0.183  15.542 -1.8267  1.3528  1.4258
 5837TIP3    H238927   2.484   0.193  15.597 -0.7947  2.5708 -1.2478
 5838TIP3   OH238928   1.636   4.861   3.941  0.0292  0.0427 -0.7417
 5838TIP3    H138929   1.719   4.895   3.908  1.4913 -1.4764  1.1340
 5838TIP3    H238930   1.611   4.920   4.011  1.2399 -1.1710  0.7977
 5839TIP3   OH238931   2.739   6.057   3.106  0.1888  0.1927  0.2310
 5839TIP3    H138932   2.660   6.052   3.158  1.4261 -1.6556  2.0675
 5839TIP3    H238933   2.714   6.022   3.020 -1.4285  1.6302  0.0488
 5840TIP3   OH238934   6.614   3.557   3.517  0.0234  0.0807 -0.7391
 5840TIP3    H138935   6.547   3.621   3.539  1.5889  1.4628  0.1756
 5840TIP3    H238936   6.637   3.516   3.600  1.0762  0.4070 -0.8484
 5841TIP3   OH238937   3.947   1.811   1.232  0.3676  0.0424 -0.3700
 5841TIP3    H138938   4.020   1.772   1.183  0.9134  0.0322  0.4436
 5841TIP3    H238939   3.980   1.895   1.263 -0.0323  0.1241 -0.1566
 5842TIP3   OH238940   5.785   5.712   4.844  0.1863  0.5371 -0.4774
 5842TIP3    H138941   5.863   5.660   4.867  0.4711  0.1585 -2.1263
 5842TIP3    H238942   5.817   5.775   4.779 -0.1820  2.7742  1.4080
 5843TIP3   OH238943   3.055   2.104  15.975  0.1552  0.5057  0.3130
 5843TIP3    H138944   3.094   2.036  15.920  0.0649  0.1396  0.6892
 5843TIP3    H238945   3.102   2.184  15.952  0.7900  0.1651  0.4010
 5844TIP3   OH238946   5.021   4.505  15.770 -0.3095 -0.7346 -0.6776
 5844TIP3    H138947   5.012   4.546  15.856 -0.2993 -4.4372  1.2942
 5844TIP3    H238948   5.081   4.433  15.784 -0.5783 -1.6960 -3.7545
 5845TIP3   OH238949   4.239   0.135   4.134 -0.0468  0.9108  0.7232
 5845TIP3    H138950   4.144   0.126   4.131  0.0188  0.3081 -0.3801
 5845TIP3    H238951   4.255   0.216   4.182 -1.0875  0.6962  1.4688
 5846TIP3   OH238952   1.675   2.885  14.120 -0.1756  0.2895 -0.0884
 5846TIP3    H138953   1.590   2.844  14.110  0.5864 -1.3058 -0.3174
 5846TIP3    H238954   1.717   2.875  14.035  0.9940 -0.7584  0.5814
 5847TIP3   OH238955   5.776   5.915   3.522  0.0236 -0.8096 -0.5209
 5847TIP3    H138956   5.735   6.001   3.523 -1.8147 -1.5108 -2.7125
 5847TIP3    H238957   5.770   5.884   3.612 -1.9346  0.2439 -0.2239
 5848TIP3   OH238958   3.419   4.621  16.257  0.1703 -0.2713 -0.1552
 5848TIP3    H138959   3.410   4.545  16.199 -2.9064 -1.3672  1.5367
 5848TIP3    H238960   3.448   4.691  16.199 -0.7133 -1.7907 -2.6208
 5849TIP3   OH238961   5.487   4.595   2.772  0.2253  0.4370 -0.4497
 5849TIP3    H138962   5.433   4.599   2.851  1.6295  1.8580  0.4959
 5849TIP3    H238963   5.575   4.579   2.804  0.8676  1.3462 -1.6889
 5850TIP3   OH238964   1.227   4.444  14.080  0.0475 -0.1160 -0.1520
 5850TIP3    H138965   1.298   4.501  14.048  1.1429 -1.2665  0.1392
 5850TIP3    H238966   1.272   4.367  14.115 -1.3584 -0.8413  0.1353
 5851TIP3   OH238967   6.408   4.678  12.310 -0.0366 -0.1105  0.0060
 5851TIP3    H138968   6.453   4.736  12.372 -0.6037 -0.2088  0.5184
 5851TIP3    H238969   6.339   4.637  12.361 -1.6387  1.0896 -1.0898
 5852TIP3   OH238970   2.299   0.815   1.839 -0.3592 -0.7266  0.2047
 5852TIP3    H138971   2.376   0.771   1.875  0.8085 -0.7048 -2.0806
 5852TIP3    H238972   2.226   0.786   1.895  1.3497 -0.0015  3.0557
 5853TIP3   OH238973   6.201   1.250   5.367 -0.3388 -0.1205 -0.3690
 5853TIP3    H138974   6.133   1.189   5.339  0.5971 -1.5972  0.4309
 5853TIP3    H238975   6.281   1.197   5.370  0.6954  1.3607 -0.4840
 5854TIP3   OH238976   1.738   2.427  11.971  0.3349 -0.0165  0.4007
 5854TIP3    H138977   1.724   2.456  11.881  0.7738 -0.6046  0.1452
 5854TIP3    H238978   1.827   2.394  11.972 -0.0580 -1.0879  0.7694
 5855TIP3   OH238979   2.010   0.594  15.190  0.4410 -0.2152 -0.2209
 5855TIP3    H138980   2.042   0.532  15.255 -0.2749  0.6674  1.0075
 5855TIP3    H238981   1.925   0.621  15.222  0.8553  1.6123 -0.5562
 5856TIP3   OH238982   1.005   4.935   0.071 -0.2309  0.0463  0.1760
 5856TIP3    H138983   0.917   4.953   0.103 -0.7093 -2.4792  0.4461
 5856TIP3    H238984   0.991   4.903  -0.019  0.3996 -0.3695  0.2218
 5857TIP3   OH238985   3.235   1.786  12.108 -0.2428  0.9353 -0.2690
 5857TIP3    H138986   3.310   1.732  12.135 -0.2446  0.2997 -1.4560
 5857TIP3    H238987   3.258   1.875  12.134  0.5834  0.6347  0.0555
 5858TIP3   OH238988   1.267   5.021   3.587  0.1174  0.1209  0.0888
 5858TIP3    H138989   1.285   4.928   3.574 -0.5790 -0.0843  0.5588
 5858TIP3    H238990   1.176   5.032   3.560  0.2236  0.6904 -0.0584
 5859TIP3   OH238991   5.603   2.537  11.985  0.0366  0.2458  0.2705
 5859TIP3    H138992   5.670   2.602  12.010  0.1058  0.0171  0.6993
 5859TIP3    H238993   5.604   2.474  12.058 -1.2085  0.6677  0.6673
 5860TIP3   OH238994   0.057   6.209  15.503  0.6110 -0.4414  0.7736
 5860TIP3    H138995   0.005   6.134  15.531 -0.4107  0.3876  1.1531
 5860TIP3    H238996   0.027   6.227  15.414 -0.8411  0.9155  1.4837
 5861TIP3   OH238997   1.580   0.150  12.452  0.3283  0.1299  0.1412
 5861TIP3    H138998   1.657   0.098  12.474 -0.1927 -0.5775  0.3042
 5861TIP3    H238999   1.537   0.102  12.382  0.5547  1.0310 -0.6388
 5862TIP3   OH239000   5.860   4.356   5.207  0.1533  0.7043  0.5008
 5862TIP3    H139001   5.863   4.271   5.251 -1.0358  0.2387 -0.2524
 5862TIP3    H239002   5.865   4.420   5.278  0.2133 -0.0045  1.1476
 5863TIP3   OH239003   4.151   1.807  12.667 -0.1841 -0.5274 -0.1371
 5863TIP3    H139004   4.111   1.791  12.582 -1.4003 -1.5130  0.5796
 5863TIP3    H239005   4.112   1.741  12.725  0.0404  0.5868  1.3590
 5864TIP3   OH239006   3.634   5.435   0.964  0.3842 -0.7591  0.1281
 5864TIP3    H139007   3.686   5.379   1.021 -1.2404 -2.3534  0.1512
 5864TIP3    H239008   3.643   5.522   1.001  2.5495 -1.0661  0.4270
 5865TIP3   OH239009   5.978   6.161  14.033  0.0618 -0.4446  0.2072
 5865TIP3    H139010   5.978   6.160  14.129  0.6301  0.5128  0.2362
 5865TIP3    H239011   6.001   6.072  14.008 -0.6116 -0.8360  0.9536
 5866TIP3   OH239012   3.032   5.236   2.874  0.9134  0.2820 -0.5680
 5866TIP3    H139013   3.108   5.247   2.930 -1.6164  2.2272  2.8640
 5866TIP3    H239014   3.007   5.144   2.884  1.2633  0.2937  0.4477
 5867TIP3   OH239015   5.317   6.301  16.730  0.0432  0.3405 -0.0293
 5867TIP3    H139016   5.237   6.315  16.780  0.5303 -0.7127  1.0851
 5867TIP3    H239017   5.367   6.238  16.781  0.4692 -0.9684 -1.9461
 5868TIP3   OH239018   0.613   5.062  11.167  0.0697 -0.1315 -0.2802
 5868TIP3    H139019   0.568   5.146  11.156  1.2797  0.5215 -0.4187
 5868TIP3    H239020   0.616   5.025  11.079  0.0939 -0.0186 -0.3280
 5869TIP3   OH239021   2.191   5.440   2.349 -0.8117 -0.4645  0.5674
 5869TIP3    H139022   2.250   5.393   2.292 -2.4412  0.7497 -2.3242
 5869TIP3    H239023   2.205   5.533   2.328 -2.7781 -0.0852  0.7123
 5870TIP3   OH239024   2.835   4.112  16.998  0.4157 -0.8970  0.2741
 5870TIP3    H139025   2.758   4.056  16.990 -1.7091  1.3450  2.8716
 5870TIP3    H239026   2.884   4.075  17.071  0.5125 -0.9704  0.1712
 5871TIP3   OH239027   1.770   0.503   2.487  0.0567  0.0835 -0.0944
 5871TIP3    H139028   1.770   0.408   2.481  0.7279  0.0806 -0.0751
 5871TIP3    H239029   1.679   0.526   2.509 -0.0063 -0.5759  0.3498
 5872TIP3   OH239030   4.510   0.966   1.378 -0.6619  0.6551  0.0465
 5872TIP3    H139031   4.584   0.905   1.374 -0.2922  1.0957  0.1303
 5872TIP3    H239032   4.515   1.004   1.466  1.3442  3.5612 -1.1600
 5873TIP3   OH239033   4.964   1.909  14.904  0.4527  0.1315 -0.0246
 5873TIP3    H139034   5.003   1.951  14.828 -0.6263  2.6164  0.7026
 5873TIP3    H239035   4.911   1.838  14.867  0.4642  0.8776 -1.5470
 5874TIP3   OH239036   4.367   0.705   5.310 -0.2689  0.3564 -0.7481
 5874TIP3    H139037   4.375   0.671   5.221  0.5508  0.5087 -0.7404
 5874TIP3    H239038   4.292   0.659   5.347 -0.8971  0.6149 -1.6644
 5875TIP3   OH239039   5.178   0.679  13.702  0.0126 -0.6687 -0.1940
 5875TIP3    H139040   5.272   0.686  13.720 -0.2429 -0.5893  1.2354
 5875TIP3    H239041   5.167   0.591  13.666  0.7067 -0.4751 -0.9006
 5876TIP3   OH239042   5.170   4.484  14.012  0.2685  0.4116  0.6381
 5876TIP3    H139043   5.251   4.464  13.966  0.6716  1.7176  0.7262
 5876TIP3    H239044   5.102   4.440  13.961  1.0281 -0.7710  0.6151
 5877TIP3   OH239045   3.367   3.779  17.170 -0.1712  0.0494  0.0866
 5877TIP3    H139046   3.443   3.733  17.204 -1.2780 -0.0253  2.6934
 5877TIP3    H239047   3.366   3.862  17.217 -0.0669  1.3734 -2.1216
 5878TIP3   OH239048   3.501   3.096   2.936  0.2088 -0.7521 -0.6109
 5878TIP3    H139049   3.582   3.062   2.899 -0.0002 -1.2423 -0.6311
 5878TIP3    H239050   3.445   3.112   2.860  0.5333  0.2500 -0.6454
 5879TIP3   OH239051   1.182   1.495  16.370 -0.5143 -0.6114  0.1178
 5879TIP3    H139052   1.170   1.413  16.419 -0.7143  0.3413  1.7382
 5879TIP3    H239053   1.183   1.468  16.278 -0.6732 -2.4179  0.6058
 5880TIP3   OH239054   0.871   2.566  14.164 -0.3616 -0.1261  0.4541
 5880TIP3    H139055   0.901   2.636  14.222  0.8408 -0.5485  0.3679
 5880TIP3    H239056   0.884   2.601  14.076 -2.2741  0.5508  0.4009
 5881TIP3   OH239057   5.909   1.404  13.976  0.3866 -0.1841 -0.0317
 5881TIP3    H139058   5.913   1.470  14.045  1.4142  0.2373 -0.4749
 5881TIP3    H239059   5.962   1.332  14.008  0.1826 -0.3358 -0.0303
 5882TIP3   OH239060   3.104   5.414  16.925  0.3163  0.1980 -0.2037
 5882TIP3    H139061   3.155   5.373  16.855 -0.2072  0.7167 -0.9055
 5882TIP3    H239062   3.165   5.419  16.999  0.4702 -1.5782 -0.1743
 5883TIP3   OH239063   4.865   5.371  16.535 -0.4454  0.0545 -0.1910
 5883TIP3    H139064   4.950   5.358  16.493 -0.2221  0.9059 -0.0187
 5883TIP3    H239065   4.801   5.353  16.466 -0.0757  2.4011 -1.2474
 5884TIP3   OH239066   3.824   6.520  13.929 -0.0010  0.6645  0.5325
 5884TIP3    H139067   3.754   6.486  13.873 -0.2089  1.7913  0.0791
 5884TIP3    H239068   3.779   6.553  14.007  0.0352  1.1193  0.3693
 5885TIP3   OH239069   3.963   4.588   0.743  0.4847  0.4066 -0.3150
 5885TIP3    H139070   4.051   4.565   0.714  0.5976 -1.6426  1.3637
 5885TIP3    H239071   3.904   4.543   0.682  0.6068  1.1231 -0.9646
 5886TIP3   OH239072   4.523   5.315  14.561  0.1468 -0.0429 -0.1377
 5886TIP3    H139073   4.531   5.284  14.651 -1.0756 -0.3956 -0.1301
 5886TIP3    H239074   4.433   5.292  14.536  0.4636  0.0738 -1.4358
 5887TIP3   OH239075   3.125   4.355   2.298  0.1253  0.5096  0.0954
 5887TIP3    H139076   3.075   4.273   2.307 -0.4236  0.9539  1.2113
 5887TIP3    H239077   3.216   4.329   2.312  0.0032  0.0084 -0.0190
 5888TIP3   OH239078   5.789   0.477   0.914 -0.0187  0.3018 -0.7646
 5888TIP3    H139079   5.705   0.456   0.873 -0.6734  1.7093 -0.1877
 5888TIP3    H239080   5.817   0.394   0.953 -0.5622 -0.4670 -1.9374
 5889TIP3   OH239081   1.737   0.935   6.234 -0.5017  0.1663 -0.4142
 5889TIP3    H139082   1.762   0.986   6.312  2.4466 -1.4001 -0.1853
 5889TIP3    H239083   1.792   0.970   6.164 -0.2023 -1.0525 -0.8167
 5890TIP3   OH239084   5.436   4.840  15.880  0.1189 -0.2453  0.3135
 5890TIP3    H139085   5.404   4.923  15.916  0.2525  0.4462 -1.1073
 5890TIP3    H239086   5.530   4.852  15.871  0.2911 -0.9402  1.0336
 5891TIP3   OH239087   4.268   3.585  16.495 -0.2290 -0.1860  0.4989
 5891TIP3    H139088   4.315   3.502  16.489 -2.1786 -1.3681  0.9238
 5891TIP3    H239089   4.204   3.583  16.425 -0.4993  0.8558  0.6861
 5892TIP3   OH239090   3.885   3.076   2.331  0.1761  0.1364 -0.0437
 5892TIP3    H139091   3.887   3.116   2.245  2.2222  0.4616  0.1044
 5892TIP3    H239092   3.970   3.096   2.370  1.2453 -3.8842  0.2194
 5893TIP3   OH239093   1.249   3.706   1.455  0.4138 -0.2504  0.7960
 5893TIP3    H139094   1.193   3.784   1.456  0.0847 -0.4799  0.4767
 5893TIP3    H239095   1.285   3.702   1.544  2.4725  1.7173  0.1458
 5894TIP3   OH239096   1.209   1.331   1.879 -0.2128  0.1451  0.1836
 5894TIP3    H139097   1.177   1.241   1.870 -2.0106  0.9004 -1.9922
 5894TIP3    H239098   1.268   1.328   1.955 -0.5528 -2.7399  0.4627
 5895TIP3   OH239099   6.340   0.219   3.351  0.2474  0.1162  0.2042
 5895TIP3    H139100   6.312   0.284   3.286 -0.5822  0.1059  0.5373
 5895TIP3    H239101   6.283   0.235   3.426  0.8229 -0.2398  0.7205
 5896TIP3   OH239102   0.147   6.361   1.870  0.2453  0.4080 -0.1357
 5896TIP3    H139103   0.194   6.353   1.787 -1.7642  0.8173 -1.3787
 5896TIP3    H239104   0.206   6.323   1.934  1.4669 -0.8339 -1.8896
 5897TIP3   OH239105   0.584   1.361  15.457  0.1239 -0.6032  0.1743
 5897TIP3    H139106   0.506   1.332  15.410  0.0303 -0.4754  0.2498
 5897TIP3    H239107   0.611   1.441  15.411  0.0106 -0.4575  0.3570
 5898TIP3   OH239108   1.368   0.223   3.324 -0.0798  0.1765  0.5494
 5898TIP3    H139109   1.293   0.258   3.374  2.1339  1.6774  3.0780
 5898TIP3    H239110   1.361   0.128   3.334 -2.8965  0.0429 -1.3653
 5899TIP3   OH239111   3.512   5.525  15.140 -0.4384  0.2376 -0.0624
 5899TIP3    H139112   3.504   5.570  15.055 -1.9789  0.2792  0.0758
 5899TIP3    H239113   3.548   5.591  15.199  2.2187 -0.2494 -0.9973
 5900TIP3   OH239114   5.347   5.681  14.675  0.0418  0.3271  0.9742
 5900TIP3    H139115   5.385   5.709  14.758  0.3573  3.9574 -0.2228
 5900TIP3    H239116   5.420   5.681  14.614 -0.6240  0.1264  0.1518
 5901TIP3   OH239117   1.304   0.145  12.071 -0.2058 -0.0146 -0.5829
 5901TIP3    H139118   1.397   0.162  12.082  0.0068 -1.1068 -0.5663
 5901TIP3    H239119   1.268   0.146  12.160 -0.0743 -0.2662 -0.5246
 5902TIP3   OH239120   0.583   1.579  14.488 -0.0517 -0.2215 -0.0808
 5902TIP3    H139121   0.572   1.672  14.470  0.2668 -0.2222 -0.2770
 5902TIP3    H239122   0.503   1.539  14.452  1.1983 -0.4181 -2.9406
 5903TIP3   OH239123   4.229   4.397   6.329  0.0444 -0.1879 -0.0409
 5903TIP3    H139124   4.299   4.442   6.282  0.6759 -0.5816  0.5059
 5903TIP3    H239125   4.171   4.467   6.359  0.4606  0.1817 -0.0876
 5904TIP3   OH239126   6.188   4.649   6.184 -0.0755  0.0455  0.0180
 5904TIP3    H139127   6.113   4.629   6.241  0.9489  2.2706  2.3396
 5904TIP3    H239128   6.201   4.569   6.133 -2.1951 -1.4502  1.6282
 5905TIP3   OH239129   3.001   2.571   2.269 -0.1685  0.7153 -0.2418
 5905TIP3    H139130   2.954   2.586   2.351 -0.6601 -0.8369 -0.2135
 5905TIP3    H239131   2.943   2.515   2.218  1.1030 -0.2200 -0.7223
 5906TIP3   OH239132   1.269   3.099  16.054  0.2481 -0.1733 -0.5419
 5906TIP3    H139133   1.260   3.165  16.122  3.0169 -0.5955  0.3268
 5906TIP3    H239134   1.266   3.015  16.101 -4.0519 -0.9493 -1.6923
 5907TIP3   OH239135   6.321   5.137   6.092 -0.0056  0.1474 -0.4334
 5907TIP3    H139136   6.300   5.044   6.101 -0.5892  0.2155 -1.0795
 5907TIP3    H239137   6.403   5.147   6.141 -0.1179 -0.6340 -0.0691
 5908TIP3   OH239138   1.020   2.643  10.526 -0.5508 -0.3338 -0.0914
 5908TIP3    H139139   1.030   2.559  10.482  1.7749  0.3264 -0.9209
 5908TIP3    H239140   1.102   2.656  10.573 -0.8433  1.4702 -0.0021
 5909TIP3   OH239141   1.072   0.797   1.311  0.0486 -0.2359  0.0844
 5909TIP3    H139142   1.153   0.753   1.337 -0.3786 -1.7890 -1.1236
 5909TIP3    H239143   1.092   0.836   1.226 -0.1296  0.4330  0.3370
 5910TIP3   OH239144   3.915   3.684  12.535  0.0484  0.2606 -0.4319
 5910TIP3    H139145   3.962   3.758  12.497  0.4723  0.0511 -0.3202
 5910TIP3    H239146   3.822   3.705  12.521  0.2036 -0.3507 -2.6247
 5911TIP3   OH239147   4.302   1.060   2.839 -0.6734 -0.1816 -0.1869
 5911TIP3    H139148   4.207   1.055   2.842 -0.6423 -0.3634  0.8704
 5911TIP3    H239149   4.322   1.079   2.747 -1.6890 -0.7950 -0.5529
 5912TIP3   OH239150   4.342   0.111   5.403 -0.0783  0.2870  0.1524
 5912TIP3    H139151   4.335   0.197   5.444 -0.9688 -0.1848  1.0402
 5912TIP3    H239152   4.304   0.051   5.467  0.7424 -0.8048 -0.3515
 5913TIP3   OH239153   6.566   0.824  12.054  0.7396 -0.0118  0.6574
 5913TIP3    H139154   6.595   0.904  12.011  0.2693  0.1352  0.6090
 5913TIP3    H239155   6.603   0.753  12.001  0.5131  0.1708  0.2517
 5914TIP3   OH239156   0.028   6.207  12.208  0.3253 -0.3417 -0.0028
 5914TIP3    H139157   0.054   6.128  12.255  2.7653  0.3964  0.0683
 5914TIP3    H239158   0.111   6.245  12.179 -0.8167  1.8550 -0.5912
 5915TIP3   OH239159   1.575   4.633   6.431  0.0270  0.4866  0.1190
 5915TIP3    H139160   1.623   4.567   6.481 -1.8877 -1.2825 -0.2687
 5915TIP3    H239161   1.578   4.602   6.341 -0.2390  1.3452 -0.1920
 5916TIP3   OH239162   6.416   1.588   4.017 -0.6033 -0.0278 -0.0538
 5916TIP3    H139163   6.347   1.654   4.024 -0.3718  0.4749 -1.9635
 5916TIP3    H239164   6.370   1.506   4.001 -0.8645 -0.2502  1.7030
 5917TIP3   OH239165   5.744   2.708  16.579 -0.1864 -0.3719  0.6515
 5917TIP3    H139166   5.659   2.743  16.606 -0.7560 -1.6849  0.6312
 5917TIP3    H239167   5.723   2.628  16.531  1.0401 -0.3661  0.0625
 5918TIP3   OH239168   2.462   2.831  16.658 -0.2571 -0.5129 -0.1218
 5918TIP3    H139169   2.553   2.804  16.660  0.1885  0.9036  1.3917
 5918TIP3    H239170   2.413   2.751  16.678  0.7093 -1.0665  0.1141
 5919TIP3   OH239171   0.396   6.719  14.901 -0.1061 -0.3728 -0.0506
 5919TIP3    H139172   0.351   6.784  14.955  1.6618 -0.0900  1.1724
 5919TIP3    H239173   0.451   6.770  14.842  0.4154 -0.7420  0.1094
 5920TIP3   OH239174   2.595   5.891   4.329 -0.0864 -0.2987 -0.6322
 5920TIP3    H139175   2.528   5.840   4.374 -0.9271  1.1647 -0.1343
 5920TIP3    H239176   2.615   5.841   4.250 -1.1029 -1.2231 -0.3233
 5921TIP3   OH239177   1.344   1.194  13.272 -0.4907  0.6173  0.3328
 5921TIP3    H139178   1.368   1.183  13.364  2.3323 -0.5829 -0.4281
 5921TIP3    H239179   1.265   1.141  13.261  1.0011 -2.0335  1.4279
 5922TIP3   OH239180   4.299   5.168   1.173 -0.4420  0.1606 -0.1647
 5922TIP3    H139181   4.280   5.230   1.103 -3.5097 -1.8222 -1.3106
 5922TIP3    H239182   4.359   5.105   1.134  0.0653  0.5906 -0.0809
 5923TIP3   OH239183   5.047   1.363  12.870  0.1681  0.5662  0.6817
 5923TIP3    H139184   5.041   1.287  12.927 -1.9134  0.7875  0.8247
 5923TIP3    H239185   5.056   1.437  12.930  0.1234  0.6156  0.6277
 5924TIP3   OH239186   3.806   2.706  12.863  0.5755 -0.2996 -0.2631
 5924TIP3    H139187   3.890   2.694  12.906  0.3956  0.1720  0.2202
 5924TIP3    H239188   3.820   2.779  12.803  0.3852  0.0704  0.1433
 5925TIP3   OH239189   4.769   5.467  11.218  0.2725  0.5765  0.1210
 5925TIP3    H139190   4.824   5.407  11.167  0.7691  0.2335  1.0315
 5925TIP3    H239191   4.703   5.498  11.156  0.4913 -0.2979 -0.5671
 5926TIP3   OH239192   3.002   2.371   4.610 -0.0566  0.2997  0.3095
 5926TIP3    H139193   2.971   2.412   4.529 -0.3054  0.0187  0.2619
 5926TIP3    H239194   3.080   2.422   4.634  0.6811 -0.2993 -0.7118
 5927TIP3   OH239195   4.401   0.943  14.112  0.4353 -0.4334  0.1163
 5927TIP3    H139196   4.405   0.974  14.203 -0.5668  0.9095 -0.2603
 5927TIP3    H239197   4.491   0.920  14.090  0.9240  0.5405  1.0158
 5928TIP3   OH239198   6.485   4.628  14.318  0.0835 -0.0415  0.1385
 5928TIP3    H139199   6.535   4.573  14.379  0.5481 -0.2862 -0.4474
 5928TIP3    H239200   6.550   4.689  14.282 -0.2680  0.3686  0.1856
 5929TIP3   OH239201   3.002   5.024  14.182  0.2286 -0.9545 -0.0078
 5929TIP3    H139202   3.095   5.007  14.197  0.1710 -1.8005 -0.5618
 5929TIP3    H239203   2.986   4.992  14.093 -0.2757  0.4884 -0.4605
 5930TIP3   OH239204   1.507   5.402  13.323  0.4099  0.6230 -0.6169
 5930TIP3    H139205   1.538   5.328  13.271 -3.3887 -1.5479 -0.0889
 5930TIP3    H239206   1.445   5.447  13.266 -1.5615 -0.0091  0.9509
 5931TIP3   OH239207   0.606   1.806  16.582  0.5746 -0.2815  0.0548
 5931TIP3    H139208   0.693   1.824  16.618  0.4645 -0.7440  0.5539
 5931TIP3    H239209   0.548   1.866  16.630  0.6746  0.3517 -0.5975
 5932TIP3   OH239210   5.844   3.634   2.891  0.9792  0.0067 -0.2051
 5932TIP3    H139211   5.924   3.597   2.927 -0.1776 -1.9731  0.5131
 5932TIP3    H239212   5.841   3.724   2.924  1.9714 -0.4772  1.2889
 5933TIP3   OH239213   0.183   6.722   1.600  0.8320 -0.2976 -0.2541
 5933TIP3    H139214   0.149   6.679   1.522 -1.9361  1.9561 -0.4904
 5933TIP3    H239215   0.107   6.729   1.658  2.2748  0.0995  1.6977
 5934TIP3   OH239216   5.740   2.344  15.645  0.4346 -0.3241 -0.3297
 5934TIP3    H139217   5.665   2.301  15.605  0.1282  0.4473 -0.6012
 5934TIP3    H239218   5.806   2.347  15.575 -0.6178  2.3715 -1.3615
 5935TIP3   OH239219   5.557   1.904  13.735 -0.1644  0.1546 -0.1993
 5935TIP3    H139220   5.517   1.981  13.695 -2.0807 -0.9444 -0.5702
 5935TIP3    H239221   5.632   1.937  13.784 -0.4462  2.1203 -1.0333
 5936TIP3   OH239222   2.073   3.920  10.821  0.2437  0.5896  0.0368
 5936TIP3    H139223   2.045   3.912  10.730 -0.3259 -0.9951  0.3095
 5936TIP3    H239224   2.152   3.866  10.826 -0.3109 -0.1839  0.6934
 5937TIP3   OH239225   4.587   0.195  15.311  0.1951  0.1735  0.0029
 5937TIP3    H139226   4.600   0.243  15.393 -1.3051 -1.7264  1.4495
 5937TIP3    H239227   4.497   0.163  15.317  1.0317 -2.5929 -0.9508
 5938TIP3   OH239228   3.200   4.574   2.456  0.1157 -0.3991  0.0371
 5938TIP3    H139229   3.154   4.518   2.394  2.2431  0.0359 -2.0852
 5938TIP3    H239230   3.292   4.571   2.428  0.6957  2.2707  1.2795
 5939TIP3   OH239231   0.675   1.819  17.142 -0.0330  0.4662  0.0285
 5939TIP3    H139232   0.657   1.888  17.078 -2.6446 -0.1726 -0.0264
 5939TIP3    H239233   0.600   1.760  17.136 -0.0685  0.0145  3.2375
 5940TIP3   OH239234   2.216   3.584  13.907 -0.3251  0.2074 -0.2325
 5940TIP3    H139235   2.299   3.577  13.954 -0.0410 -0.3597 -0.8085
 5940TIP3    H239236   2.237   3.563  13.817 -1.2921 -1.0498 -0.1932
 5941TIP3   OH239237   0.640   0.124   3.306 -0.1554 -0.3714  0.0740
 5941TIP3    H139238   0.603   0.102   3.392 -0.8801 -0.9154 -0.3663
 5941TIP3    H239239   0.595   0.205   3.282  1.0530  0.5470  0.8035
 5942TIP3   OH239240   2.989   1.681   2.404  0.0531 -0.4911 -0.9429
 5942TIP3    H139241   3.050   1.637   2.464 -0.0386 -0.4430 -0.8151
 5942TIP3    H239242   3.030   1.766   2.387 -0.6438  0.0984  0.2256
 5943TIP3   OH239243   1.380   5.464  10.750 -0.8545  0.0588  0.1949
 5943TIP3    H139244   1.420   5.547  10.724 -0.2805 -0.4055 -0.4240
 5943TIP3    H239245   1.377   5.469  10.845  3.0294 -0.8986  0.5438
 5944TIP3   OH239246   1.378   1.240  11.018 -0.9122  0.4751  0.5846
 5944TIP3    H139247   1.310   1.257  10.953 -0.4988  1.0775  0.2984
 5944TIP3    H239248   1.348   1.287  11.096 -1.5635 -0.5052  0.9416
 5945TIP3   OH239249   5.980   0.705  11.098 -0.4015  0.1268 -0.0701
 5945TIP3    H139250   5.966   0.648  11.022  1.5078  0.2971 -0.6077
 5945TIP3    H239251   6.011   0.787  11.059 -0.7386  0.7001  0.8469
 5946TIP3   OH239252   6.237   1.784  16.470  0.3759 -0.3853  0.5081
 5946TIP3    H139253   6.203   1.858  16.520  1.0320 -0.6671  1.3811
 5946TIP3    H239254   6.161   1.752  16.421  0.0144  0.6677  0.3373
 5947TIP3   OH239255   1.786   2.806  15.565 -0.0375  0.1403 -0.0965
 5947TIP3    H139256   1.740   2.819  15.482 -0.4607 -0.1149  0.0959
 5947TIP3    H239257   1.813   2.715  15.563  0.3804  0.2657 -0.1666
 5948TIP3   OH239258   0.247   2.213   4.587 -0.6339 -0.5886  0.3055
 5948TIP3    H139259   0.313   2.223   4.519  0.1613  2.4030  1.3277
 5948TIP3    H239260   0.293   2.172   4.660 -0.3203  0.0553  0.4743
 5949TIP3   OH239261   0.962   5.799  12.005 -0.0221 -0.7197  0.4641
 5949TIP3    H139262   0.894   5.866  12.002 -0.5911 -1.3011 -1.8508
 5949TIP3    H239263   0.915   5.718  12.023  0.2186 -0.9481  0.0763
 5950TIP3   OH239264   5.149   3.642   3.644  0.6501 -0.6538 -0.6977
 5950TIP3    H139265   5.210   3.568   3.653  0.9397 -0.4757 -1.1503
 5950TIP3    H239266   5.188   3.712   3.695 -1.1534 -1.6953  2.3593
 5951TIP3   OH239267   2.226   0.751  16.684  0.0331  0.2985  0.0129
 5951TIP3    H139268   2.179   0.826  16.720 -0.3749 -0.2945  0.7496
 5951TIP3    H239269   2.270   0.712  16.759  0.0008 -0.3740 -0.3089
 5952TIP3   OH239270   4.603   6.698   0.876  0.0504  0.2228 -0.1259
 5952TIP3    H139271   4.518   6.683   0.917  0.2292 -0.7467 -0.0964
 5952TIP3    H239272   4.583   6.742   0.793 -0.6026 -1.4032 -0.8577
 5953TIP3   OH239273   1.361   2.587  16.834 -0.3120 -1.0362 -0.5345
 5953TIP3    H139274   1.367   2.612  16.927 -1.3906 -0.4349 -0.6119
 5953TIP3    H239275   1.344   2.670  16.789 -0.0987 -1.3741 -1.2376
 5954TIP3   OH239276   4.937   4.431   1.945 -0.1515  0.2228  0.1078
 5954TIP3    H139277   4.989   4.411   1.867  0.5872  0.3810  0.5408
 5954TIP3    H239278   4.967   4.366   2.010  0.3773  1.0639  0.7261
 5955TIP3   OH239279   3.100   5.477  11.858 -0.0891 -0.9559 -0.3956
 5955TIP3    H139280   3.083   5.387  11.828 -1.2835 -0.5393 -1.0643
 5955TIP3    H239281   3.016   5.505  11.895  0.0864  0.0895 -0.7656
 5956TIP3   OH239282   2.742   5.963   2.331 -0.7147  0.1662  0.3460
 5956TIP3    H139283   2.699   6.016   2.265 -0.5458 -2.6165 -2.1956
 5956TIP3    H239284   2.684   5.888   2.344  0.3869 -0.5196  1.6011
 5957TIP3   OH239285   1.445   4.254   5.141 -0.5150  0.6613  0.7131
 5957TIP3    H139286   1.390   4.191   5.189 -0.7026  0.0514 -0.2639
 5957TIP3    H239287   1.500   4.294   5.209  1.3148 -2.2438  1.1530
 5958TIP3   OH239288   4.634   0.359  14.148 -0.3336 -0.2849  0.2215
 5958TIP3    H139289   4.578   0.290  14.183  0.8773 -0.8814  1.0363
 5958TIP3    H239290   4.613   0.361  14.054  0.3054 -2.4459 -0.0264
 5959TIP3   OH239291   0.716   2.545  13.839  0.0656 -0.1125  0.2196
 5959TIP3    H139292   0.731   2.528  13.746 -1.8426 -3.0332  0.3170
 5959TIP3    H239293   0.621   2.536  13.849  0.3038 -0.4775  2.5608
 5960TIP3   OH239294   6.757   5.668   0.044  0.0353  0.3345  0.1456
 5960TIP3    H139295   6.810   5.594   0.014  0.6163  0.7800  0.0630
 5960TIP3    H239296   6.678   5.627   0.081 -0.5838 -0.2422 -1.6931
 5961TIP3   OH239297   2.435   2.981   2.098  0.4275  0.3473 -0.0512
 5961TIP3    H139298   2.363   2.951   2.154  0.4811 -0.3154 -0.3258
 5961TIP3    H239299   2.502   2.913   2.108  1.1130  1.0688  0.3826
 5962TIP3   OH239300   4.973   4.670   3.809 -0.0923  0.1592 -0.4548
 5962TIP3    H139301   5.066   4.662   3.830  0.2105  1.4765 -1.1830
 5962TIP3    H239302   4.931   4.686   3.893  0.7266  2.4234 -0.4218
 5963TIP3   OH239303   1.814   5.684  12.383 -0.0712  0.6859  0.5962
 5963TIP3    H139304   1.773   5.599  12.366 -0.1916  1.0998 -1.4722
 5963TIP3    H239305   1.872   5.669  12.458  0.9268 -1.5877 -0.5470
 5964TIP3   OH239306   1.446   2.822   4.373  0.0043 -0.8102  0.2141
 5964TIP3    H139307   1.409   2.840   4.287  0.6084 -0.1102  0.0942
 5964TIP3    H239308   1.431   2.728   4.386 -0.0400 -0.9321 -0.6705
 5965TIP3   OH239309   4.235   5.571   1.442  0.1375  0.1868 -0.0792
 5965TIP3    H139310   4.158   5.515   1.433  0.9152 -0.8245 -0.6069
 5965TIP3    H239311   4.263   5.588   1.352  0.8117  0.1452  0.1160
 5966TIP3   OH239312   2.040   2.462   3.213 -0.4845  0.8529 -0.4740
 5966TIP3    H139313   2.046   2.367   3.215  1.1495  0.9252 -0.4064
 5966TIP3    H239314   2.037   2.483   3.119 -0.1516  0.7490 -0.5118
 5967TIP3   OH239315   3.341   1.303  14.603 -0.0199  0.1746 -0.2684
 5967TIP3    H139316   3.305   1.335  14.520 -1.6570 -0.8759 -0.0072
 5967TIP3    H239317   3.267   1.303  14.663  0.0535 -3.2560 -0.0325
 5968TIP3   OH239318   1.775   0.707  16.591 -0.8828  0.8761  0.5651
 5968TIP3    H139319   1.837   0.656  16.538 -1.2666  0.8002  0.1915
 5968TIP3    H239320   1.748   0.779  16.534 -0.2641  1.5752  1.1261
 5969TIP3   OH239321   6.425   2.566   2.475 -0.4942  0.2909 -0.5130
 5969TIP3    H139322   6.415   2.596   2.565  0.5216  1.8993 -0.8812
 5969TIP3    H239323   6.343   2.592   2.432 -0.9054 -0.3194 -0.1072
 5970TIP3   OH239324   6.308   1.029  16.628 -0.0360  0.0961 -0.2458
 5970TIP3    H139325   6.222   1.044  16.589 -1.1865  1.0355  2.4168
 5970TIP3    H239326   6.292   0.961  16.694  0.9919  1.0407  1.0190
 5971TIP3   OH239327   1.930   6.058   2.374  0.2111 -0.2592  0.2161
 5971TIP3    H139328   1.892   5.971   2.383 -0.0692 -0.2506 -0.7910
 5971TIP3    H239329   2.022   6.043   2.353 -0.1615 -0.3507 -1.4427
 5972TIP3   OH239330   4.168   3.638   5.034  0.1083 -0.1089 -0.1271
 5972TIP3    H139331   4.125   3.709   4.987 -1.2086 -1.5159 -1.1403
 5972TIP3    H239332   4.103   3.568   5.037  1.7821 -1.7469 -0.2641
 5973TIP3   OH239333   5.385   1.038  16.105  0.6165 -0.3188  0.4885
 5973TIP3    H139334   5.465   1.000  16.070  1.0035  0.8219  0.0976
 5973TIP3    H239335   5.339   1.074  16.029  1.1865  1.6570  1.0140
 5974TIP3   OH239336   2.973   3.031  12.848  0.7828 -0.0599  0.6474
 5974TIP3    H139337   3.026   3.078  12.783 -0.4306  0.4174 -0.0367
 5974TIP3    H239338   2.936   3.101  12.903 -1.2290 -0.1197 -0.5231
 5975TIP3   OH239339   4.689   3.359  14.033 -0.0955  0.1282  0.1032
 5975TIP3    H139340   4.663   3.267  14.039 -1.2046  0.3174 -1.2491
 5975TIP3    H239341   4.746   3.373  14.109  0.6692 -1.8402 -0.0572
 5976TIP3   OH239342   0.227   0.520  14.167 -0.6514  0.0617  0.1089
 5976TIP3    H139343   0.306   0.517  14.221 -2.1843 -1.8202  2.4544
 5976TIP3    H239344   0.219   0.432  14.130 -0.4545  0.8937 -2.0600
 5977TIP3   OH239345   4.142   6.705  11.720 -0.9391 -0.5499 -0.6805
 5977TIP3    H139346   4.106   6.728  11.805 -0.9783  2.7024 -1.4508
 5977TIP3    H239347   4.215   6.646  11.740 -0.3356  0.8736  1.6974
 5978TIP3   OH239348   4.207   4.727  11.538  0.3444  1.1713  0.4319
 5978TIP3    H139349   4.112   4.732  11.527  0.2076  0.7745  1.3543
 5978TIP3    H239350   4.223   4.759  11.627  0.8077 -1.1255  1.2352
 5979TIP3   OH239351   4.792   3.167  12.903  0.4337  0.4302  0.2495
 5979TIP3    H139352   4.803   3.112  12.981 -0.2995 -0.9879 -0.6082
 5979TIP3    H239353   4.881   3.178  12.870  0.5116 -1.4324 -0.3111
 5980TIP3   OH239354   1.695   0.590  17.062 -0.0475 -0.4419  0.1147
 5980TIP3    H139355   1.608   0.618  17.091  0.6963  0.6490  1.3928
 5980TIP3    H239356   1.712   0.641  16.983  0.4305  1.3038  1.2720
 5981TIP3   OH239357   5.360   3.803  16.191 -0.1824 -0.3652 -0.4133
 5981TIP3    H139358   5.296   3.735  16.175 -0.6471  0.2561 -1.2923
 5981TIP3    H239359   5.353   3.861  16.115  0.5936  0.3488  0.0392
 5982TIP3   OH239360   3.446   4.481   2.132 -0.3450 -0.1118 -0.0846
 5982TIP3    H139361   3.458   4.573   2.109 -0.1801 -0.1282 -0.0618
 5982TIP3    H239362   3.375   4.451   2.075 -1.0945  0.2955  0.6010
 5983TIP3   OH239363   6.782   1.211  12.196  0.2913  0.0370  0.2736
 5983TIP3    H139364   6.834   1.134  12.173  0.3372 -0.9134  3.1094
 5983TIP3    H239365   6.847   1.279  12.214  0.5175 -0.4821  1.5816
 5984TIP3   OH239366   0.783   0.202  13.603 -0.1563  0.2531  0.2073
 5984TIP3    H139367   0.784   0.282  13.549 -0.1913  0.2940  0.2667
 5984TIP3    H239368   0.696   0.165  13.590 -0.1282  0.2070  0.1529
 5985TIP3   OH239369   6.315   2.596   0.958  0.1567 -0.8619  0.6816
 5985TIP3    H139370   6.237   2.587   0.904  0.8522 -2.0585 -0.1633
 5985TIP3    H239371   6.331   2.508   0.992  2.0093 -1.0219 -0.4529
 5986TIP3   OH239372   1.961   3.301   1.438  0.2164 -0.0027  0.2100
 5986TIP3    H139373   2.053   3.294   1.465 -0.3291 -0.2063  2.2175
 5986TIP3    H239374   1.937   3.211   1.416  0.8990  0.2888 -1.9575
 5987TIP3   OH239375   4.917   0.919   5.884 -0.4400 -0.6151 -0.3228
 5987TIP3    H139376   4.982   0.903   5.953 -0.5805 -1.5546 -0.3993
 5987TIP3    H239377   4.941   1.004   5.848 -0.7290  0.1951  1.2942
 5988TIP3   OH239378   6.004   4.704  12.503 -0.4246 -0.2129 -0.4340
 5988TIP3    H139379   5.951   4.782  12.486 -0.1104 -0.1220 -1.0496
 5988TIP3    H239380   5.956   4.655  12.569 -2.3262 -1.1540 -2.3728
 5989TIP3   OH239381   3.374   0.903  11.191  0.0330  0.1664 -0.4964
 5989TIP3    H139382   3.293   0.943  11.160  0.2774  1.2524  0.2165
 5989TIP3    H239383   3.443   0.958  11.154  0.5171 -1.4873 -2.1443
 5990TIP3   OH239384   6.311   3.687  15.113 -0.1782  0.0889 -0.4389
 5990TIP3    H139385   6.305   3.770  15.159  0.4268 -0.4521  0.6721
 5990TIP3    H239386   6.383   3.641  15.157 -3.0242 -2.6790  1.7515
 5991TIP3   OH239387   2.648   4.340  15.304 -0.4986 -0.0242 -0.0550
 5991TIP3    H139388   2.719   4.353  15.240  0.9534  0.5014  1.5813
 5991TIP3    H239389   2.595   4.270  15.266 -0.7885  1.5101 -2.7149
 5992TIP3   OH239390   0.206   3.570   6.165 -0.1541  0.5002  0.0788
 5992TIP3    H139391   0.153   3.553   6.086 -0.0883 -0.4378  0.2284
 5992TIP3    H239392   0.235   3.661   6.155 -0.1005  0.3784 -1.0107
 5993TIP3   OH239393   6.449   0.954  10.926 -0.1213 -0.5216 -0.1609
 5993TIP3    H139394   6.443   0.885  10.860 -1.2726 -0.0086 -0.6153
 5993TIP3    H239395   6.530   1.001  10.904 -0.3920 -0.4759 -1.0924
 5994TIP3   OH239396   4.102   4.291   3.742 -0.1483 -0.3633 -0.2415
 5994TIP3    H139397   4.052   4.372   3.732 -1.2980 -1.0397 -0.1443
 5994TIP3    H239398   4.125   4.266   3.653 -1.3818 -0.8900 -0.4235
 5995TIP3   OH239399   2.820   0.016   3.650 -0.1668  0.1340 -0.0066
 5995TIP3    H139400   2.805  -0.071   3.613  0.2853 -0.9600  2.1883
 5995TIP3    H239401   2.845  -0.001   3.741 -0.8626  2.6092  0.7252
 5996TIP3   OH239402   6.025   6.012   3.628 -0.0927  0.3208 -0.0366
 5996TIP3    H139403   6.041   5.959   3.550  2.5860 -0.5097  0.9712
 5996TIP3    H239404   5.930   6.005   3.642 -0.2592 -1.7059 -1.6802
 5997TIP3   OH239405   4.357   4.937   2.697  0.0249 -0.3070  0.0592
 5997TIP3    H139406   4.300   4.866   2.668 -0.2204 -0.1928  0.2624
 5997TIP3    H239407   4.315   5.016   2.666  0.6315 -0.2832 -0.7285
 5998TIP3   OH239408   4.765   4.281  15.883  0.0093  0.1938 -0.1063
 5998TIP3    H139409   4.833   4.213  15.879  1.5407  1.7090 -2.2755
 5998TIP3    H239410   4.809   4.360  15.852 -2.4965  1.4969 -0.5707
 5999TIP3   OH239411   0.466   2.350   5.089 -0.2450  0.3232 -0.3507
 5999TIP3    H139412   0.480   2.340   5.183  0.1580 -1.9946 -0.5986
 5999TIP3    H239413   0.372   2.366   5.080 -0.3043  0.4476  0.4271
 6000TIP3   OH239414   3.352   1.655   2.720 -0.7797 -0.3732  0.3307
 6000TIP3    H139415   3.272   1.661   2.668 -0.7832  0.0688  0.3807
 6000TIP3    H239416   3.365   1.562   2.734 -0.6395 -0.5205 -0.6836
 6001TIP3   OH239417   1.969   6.439   2.484 -0.1545 -0.3081 -0.4563
 6001TIP3    H139418   1.953   6.359   2.534 -0.3139  0.6130  1.0379
 6001TIP3    H239419   1.891   6.451   2.430 -0.4106 -0.8207 -0.1985
 6002TIP3   OH239420   0.590   5.556   2.704  0.0356  0.4563 -0.7317
 6002TIP3    H139421   0.649   5.629   2.725  1.7206 -0.4594 -2.0315
 6002TIP3    H239422   0.624   5.520   2.622 -0.0456 -2.4635  0.3819
 6003TIP3   OH239423   2.633   1.907  12.106  0.3226 -0.0326  0.3413
 6003TIP3    H139424   2.619   1.963  12.030 -1.8079 -0.4368  0.3884
 6003TIP3    H239425   2.727   1.886  12.103  0.9078  2.4096 -0.4100
 6004TIP3   OH239426   0.365   0.063   4.450  0.0121  0.1027 -0.2646
 6004TIP3    H139427   0.421   0.129   4.493  0.3240  0.6920 -1.5235
 6004TIP3    H239428   0.425  -0.008   4.428 -0.2569 -0.4710  0.7549
 6005TIP3   OH239429   2.684   6.375  12.384 -0.4485  0.4535 -0.5212
 6005TIP3    H139430   2.709   6.283  12.377 -0.7715  0.4043 -1.0832
 6005TIP3    H239431   2.639   6.394  12.302 -2.7464  0.3736  0.6222
 6006TIP3   OH239432   1.650   1.624  14.532 -0.5921  0.1090  0.1417
 6006TIP3    H139433   1.711   1.638  14.605 -0.9614  0.7510  0.3323
 6006TIP3    H239434   1.625   1.532  14.540 -1.1631  0.3397  1.2582
 6007TIP3   OH239435   4.032   1.210  10.448 -0.3642  0.3797  0.2366
 6007TIP3    H139436   3.962   1.189  10.509  0.3348 -1.7188  0.3815
 6007TIP3    H239437   4.112   1.207  10.501 -0.0989  3.3887  0.2272
 6008TIP3   OH239438   3.367   6.187  14.997 -0.2434  0.3221  0.3292
 6008TIP3    H139439   3.398   6.232  14.918  0.9139 -0.8630  0.0450
 6008TIP3    H239440   3.379   6.094  14.976 -0.0680 -0.0157  1.8401
 6009TIP3   OH239441   2.776   1.307  15.688  0.2537 -0.1903 -0.4043
 6009TIP3    H139442   2.724   1.256  15.626 -0.9135 -0.8539  1.0467
 6009TIP3    H239443   2.809   1.381  15.637  0.7740 -1.5946 -2.2085
 6010TIP3   OH239444   5.374   1.062  12.829 -0.2088  0.2434 -0.1379
 6010TIP3    H139445   5.352   1.046  12.920  0.0067  0.7518  0.0084
 6010TIP3    H239446   5.469   1.049  12.824 -0.1940  0.3843 -0.2505
 6011TIP3   OH239447   1.394   2.065  11.836  0.2985  0.1280  0.2624
 6011TIP3    H139448   1.400   2.130  11.767 -0.5653 -0.6624 -0.5924
 6011TIP3    H239449   1.428   2.109  11.914 -0.9165  1.8376 -0.1081
 6012TIP3   OH239450   4.239   2.594   5.600  0.4397 -0.4309  0.2719
 6012TIP3    H139451   4.211   2.560   5.685  0.2565 -1.9783 -0.3726
 6012TIP3    H239452   4.247   2.689   5.613 -1.8419 -0.3293  1.4025
 6013TIP3   OH239453   4.688   6.365  13.058 -0.3094  0.1027  0.5298
 6013TIP3    H139454   4.643   6.281  13.069 -1.3568  0.4237 -1.0012
 6013TIP3    H239455   4.752   6.367  13.129  0.7833 -2.6384 -0.2702
 6014TIP3   OH239456   4.932   6.142  16.094  0.3099  0.0943 -0.3879
 6014TIP3    H139457   4.984   6.097  16.160 -2.1379 -1.2743  0.7194
 6014TIP3    H239458   4.890   6.214  16.141  0.7680  0.8801 -1.1464
 6015TIP3   OH239459   1.940   0.140  15.517 -0.6836 -0.6294 -0.3637
 6015TIP3    H139460   1.924   0.197  15.592 -0.5558 -0.3877 -0.5169
 6015TIP3    H239461   1.941   0.200  15.442  0.6278 -0.6631 -0.4004
 6016TIP3   OH239462   0.835   0.393  12.698  0.5102  0.2490 -0.1921
 6016TIP3    H139463   0.922   0.362  12.670  0.3806 -0.6313  0.3375
 6016TIP3    H239464   0.789   0.411  12.616  1.3273  1.1543 -0.4794
 6017TIP3   OH239465   2.828   0.703  11.687  0.6178 -0.7877 -0.4107
 6017TIP3    H139466   2.887   0.722  11.760  0.4620 -1.0434 -0.2150
 6017TIP3    H239467   2.832   0.608  11.677 -1.0358 -1.0233  0.7107
 6018TIP3   OH239468   1.460   6.624  10.523  0.6609  0.2070  0.5191
 6018TIP3    H139469   1.381   6.586  10.486  0.7787  0.3249  0.1388
 6018TIP3    H239470   1.483   6.567  10.596  1.2299 -0.8795 -0.4692
 6019TIP3   OH239471   1.488   2.904  16.123  0.1441 -0.0767 -0.0895
 6019TIP3    H139472   1.509   2.996  16.107 -1.1382  0.0615 -1.1423
 6019TIP3    H239473   1.543   2.880  16.198  0.3208  1.6109  0.3743
 6020TIP3   OH239474   1.934   5.748  11.406  0.0480  0.2238 -1.0425
 6020TIP3    H139475   1.944   5.724  11.314 -0.4559  0.6041 -1.2011
 6020TIP3    H239476   1.955   5.842  11.409  0.1629  0.1928 -0.7502
 6021TIP3   OH239477   6.228   4.637  13.530 -0.2492  0.0817 -0.0072
 6021TIP3    H139478   6.252   4.679  13.613 -0.5767  1.0086 -0.3669
 6021TIP3    H239479   6.173   4.702  13.486 -1.8524 -1.2461 -0.0148
 6022TIP3   OH239480   2.113   6.051   3.055  0.5663 -0.1355 -0.2439
 6022TIP3    H139481   2.186   6.041   3.115  1.6064 -0.8210 -1.5773
 6022TIP3    H239482   2.035   6.031   3.107  1.1613  1.9027  1.5563
 6023TIP3   OH239483   2.823   6.417   0.537  0.4005 -0.0441 -0.5077
 6023TIP3    H139484   2.835   6.330   0.498 -0.6915 -0.2434 -0.4330
 6023TIP3    H239485   2.728   6.432   0.532  0.5945  1.2134 -0.6682
 6024TIP3   OH239486   4.528   2.831   2.296 -0.6037 -0.2164  0.2870
 6024TIP3    H139487   4.444   2.876   2.298 -0.5344 -0.1014  1.0168
 6024TIP3    H239488   4.516   2.755   2.354 -0.7791 -1.2691 -1.0722
 6025TIP3   OH239489   1.281   4.986  12.835 -0.2035  0.1300  0.2611
 6025TIP3    H139490   1.255   4.896  12.817  0.4259  0.2626 -1.4886
 6025TIP3    H239491   1.203   5.038  12.815  0.5766  0.3120 -2.7989
 6026TIP3   OH239492   3.752   4.600  12.959  0.4825  0.0364  0.8275
 6026TIP3    H139493   3.767   4.691  12.983 -0.1489  0.7185 -1.1077
 6026TIP3    H239494   3.677   4.573  13.012 -0.8520  1.4570 -0.2301
 6027TIP3   OH239495   6.737   4.970  12.270  0.0553  0.4856  0.3203
 6027TIP3    H139496   6.708   5.054  12.235 -1.0546 -0.2202 -0.5012
 6027TIP3    H239497   6.821   4.990  12.312  0.9673  1.5921 -1.8529
 6028TIP3   OH239498   6.633   3.017   4.268  0.4063  0.9484 -0.7343
 6028TIP3    H139499   6.603   2.940   4.315  0.5228 -0.3809 -2.7089
 6028TIP3    H239500   6.657   3.080   4.336  1.3283 -1.1392  0.9435
 6029TIP3   OH239501   4.354   3.697  14.320 -0.2342 -0.3583 -0.0398
 6029TIP3    H139502   4.265   3.706  14.354  0.5453  0.6179  1.8867
 6029TIP3    H239503   4.393   3.783  14.331 -0.3700  0.7304 -5.2419
 6030TIP3   OH239504   2.386   0.841  13.594 -0.2386  0.2236  0.0198
 6030TIP3    H139505   2.393   0.807  13.505  0.4900  0.8875 -0.1935
 6030TIP3    H239506   2.293   0.842  13.612 -0.5935  1.9493 -1.5122
 6031TIP3   OH239507   1.852   2.806   1.836  0.3309  0.4021 -0.2862
 6031TIP3    H139508   1.791   2.768   1.899  0.0540  0.9842 -0.2065
 6031TIP3    H239509   1.938   2.798   1.878  0.1685  0.6363  0.0898
 6032TIP3   OH239510   5.826   3.286  11.049 -0.1663 -0.3011  0.9528
 6032TIP3    H139511   5.887   3.350  11.087  0.8301 -0.4924 -0.2275
 6032TIP3    H239512   5.878   3.207  11.040 -0.6990 -0.5786  0.2378
 6033TIP3   OH239513   4.029   5.430  13.061 -0.3828  0.8999 -0.1924
 6033TIP3    H139514   4.020   5.491  13.134  1.2140  0.5346  0.3520
 6033TIP3    H239515   3.978   5.353  13.088  0.8320  0.4500  0.9452
 6034TIP3   OH239516   3.285   6.407  10.891 -0.0245  0.2545 -0.6399
 6034TIP3    H139517   3.358   6.427  10.832  0.4681  0.0441 -0.1174
 6034TIP3    H239518   3.248   6.326  10.855  0.1367  0.2446 -0.7892
 6035TIP3   OH239519   0.533   3.091   0.186 -0.1431 -0.6167 -0.4024
 6035TIP3    H139520   0.513   3.031   0.114 -0.6229 -1.5797  0.5035
 6035TIP3    H239521   0.573   3.036   0.253  0.3489  0.2723  0.0544
 6036TIP3   OH239522   4.526   0.534  15.326 -0.2961 -0.3364 -0.7306
 6036TIP3    H139523   4.436   0.501  15.325  0.2637 -1.9245 -1.7747
 6036TIP3    H239524   4.515   0.630  15.324 -1.9584 -0.4920 -1.2137
 6037TIP3   OH239525   4.398   4.418  16.868 -0.3397 -0.2574  0.0424
 6037TIP3    H139526   4.398   4.455  16.956 -0.6257  0.4221 -0.2350
 6037TIP3    H239527   4.347   4.480  16.816  2.2122  0.9077 -1.2426
 6038TIP3   OH239528   1.768   1.092   5.721 -0.2714  0.2959 -0.0290
 6038TIP3    H139529   1.684   1.045   5.722  0.1630 -0.5082 -0.0928
 6038TIP3    H239530   1.755   1.162   5.658 -0.2606 -1.0713 -1.6253
 6039TIP3   OH239531   3.923   6.122   5.822 -0.0562  0.2799  0.1299
 6039TIP3    H139532   4.007   6.106   5.866 -0.8296  1.7420  2.2446
 6039TIP3    H239533   3.858   6.082   5.879 -0.8739 -0.8774 -1.5157
 6040TIP3   OH239534   5.464   3.623   0.573 -0.1159  0.0493 -0.2156
 6040TIP3    H139535   5.484   3.531   0.555  0.6958 -0.2665  1.9135
 6040TIP3    H239536   5.528   3.672   0.521 -1.0584 -0.4963 -1.9826
 6041TIP3   OH239537   3.933   4.669   5.398  0.2470  0.1941  0.4394
 6041TIP3    H139538   3.925   4.667   5.302  1.8864  0.6865  0.2615
 6041TIP3    H239539   4.028   4.671   5.414  0.2188 -3.6587  2.1879
 6042TIP3   OH239540   1.175   1.598  14.378  0.3376 -0.3112 -0.3704
 6042TIP3    H139541   1.147   1.564  14.462  0.9049  1.3753  0.5496
 6042TIP3    H239542   1.114   1.669  14.359  0.6591 -0.2011 -1.0242
 6043TIP3   OH239543   6.234   5.234  13.277 -0.5648 -0.4177  0.0340
 6043TIP3    H139544   6.148   5.275  13.267 -1.5723 -1.2918  3.5692
 6043TIP3    H239545   6.295   5.307  13.285 -1.3585  0.2635 -0.0094
 6044TIP3   OH239546   0.053   1.266   1.289 -0.4694 -0.7584  0.3495
 6044TIP3    H139547   0.105   1.290   1.366  0.0317  0.7135 -0.4069
 6044TIP3    H239548   0.106   1.200   1.244 -0.9648 -1.9474  1.4711
 6045TIP3   OH239549   2.241   3.835   3.671  0.3432 -0.4786 -0.1908
 6045TIP3    H139550   2.212   3.860   3.583 -0.2322  0.7791  0.3395
 6045TIP3    H239551   2.186   3.884   3.730  1.2370 -0.7237  0.8867
 6046TIP3   OH239552   5.452   0.646  11.097  0.4151 -0.1039 -0.2178
 6046TIP3    H139553   5.384   0.598  11.144  1.9850 -0.6145  1.6681
 6046TIP3    H239554   5.415   0.662  11.010 -2.6171  0.8334  1.1276
 6047TIP3   OH239555   5.515   2.191   2.204 -0.7077  0.2790 -0.3212
 6047TIP3    H139556   5.530   2.145   2.121  0.0899  0.8119 -0.4796
 6047TIP3    H239557   5.543   2.281   2.187 -1.0390  0.5145  0.3713
 6048TIP3   OH239558   1.425   5.647  17.037 -0.2957 -0.0772 -0.1872
 6048TIP3    H139559   1.396   5.677  17.123 -1.4841  1.4151 -1.0361
 6048TIP3    H239560   1.371   5.570  17.019 -0.5197  0.0020  0.1346
 6049TIP3   OH239561   2.653   5.578   4.250 -0.6107 -0.4971 -0.4021
 6049TIP3    H139562   2.683   5.510   4.310 -3.1644  0.8215  2.6158
 6049TIP3    H239563   2.594   5.532   4.189  1.3898 -1.6981 -1.5608
 6050TIP3   OH239564   2.837   0.431  16.263  0.0602  0.3476  0.5087
 6050TIP3    H139565   2.855   0.339  16.245 -0.0476  0.3768  0.2546
 6050TIP3    H239566   2.879   0.478  16.192 -2.6313  0.3208 -1.2387
 6051TIP3   OH239567   6.617   2.248   3.635 -0.2132  0.3645 -0.3311
 6051TIP3    H139568   6.587   2.158   3.648 -0.7726  0.9198  3.1787
 6051TIP3    H239569   6.544   2.291   3.591 -0.8614 -0.3702 -0.0012
 6052TIP3   OH239570   1.072   5.176  14.668  0.4891 -0.2388 -0.0624
 6052TIP3    H139571   1.031   5.248  14.716 -0.0410 -0.9830  0.6357
 6052TIP3    H239572   1.005   5.108  14.665  1.5132 -1.3353  0.7641
 6053TIP3   OH239573   6.008   5.198  11.684 -0.0438  0.6853  0.4670
 6053TIP3    H139574   6.054   5.153  11.613 -2.4748  0.8056 -1.3132
 6053TIP3    H239575   6.059   5.278  11.699  0.5887  0.6106 -1.0973
 6054TIP3   OH239576   5.389   3.665  15.459  0.4762 -0.2376  0.0416
 6054TIP3    H139577   5.344   3.733  15.409 -0.1351 -0.5594  0.1322
 6054TIP3    H239578   5.458   3.634  15.400  1.2547  0.9707  0.2917
 6055TIP3   OH239579   3.951   0.219   1.293  0.0163 -0.1626 -0.6482
 6055TIP3    H139580   4.000   0.176   1.364  1.5417  0.9559 -0.9751
 6055TIP3    H239581   3.908   0.293   1.335  1.2417  0.7339 -0.9271
 6056TIP3   OH239582   3.232   2.813   5.283 -0.6771 -0.5822  0.1205
 6056TIP3    H139583   3.176   2.749   5.239  0.4769 -1.0054 -0.7865
 6056TIP3    H239584   3.189   2.828   5.367 -2.8514  0.0897 -1.0254
 6057TIP3   OH239585   0.564   0.307   2.528  0.5766 -0.2179 -0.0656
 6057TIP3    H139586   0.600   0.387   2.491  0.7162 -0.5877 -0.7410
 6057TIP3    H239587   0.630   0.240   2.511  0.4917 -0.4725  0.5521
 6058TIP3   OH239588   3.888   6.118   2.854  0.0981 -0.0457 -0.4828
 6058TIP3    H139589   3.959   6.142   2.914 -1.7808  2.0591  1.0911
 6058TIP3    H239590   3.865   6.200   2.810 -1.5451 -0.5827 -0.6992
 6059TIP3   OH239591   6.783   0.872  17.016 -0.1092  0.2504 -0.1785
 6059TIP3    H139592   6.859   0.849  16.963 -0.0320 -0.3756  0.1952
 6059TIP3    H239593   6.722   0.799  17.002 -1.1237  1.2895 -1.3961
 6060TIP3   OH239594   5.829   1.468  13.641  0.3153  0.4915 -0.0993
 6060TIP3    H139595   5.837   1.376  13.615 -0.2131  0.2756  0.4909
 6060TIP3    H239596   5.892   1.478  13.712  0.0802  0.4789  0.1116
 6061TIP3   OH239597   3.533   6.368  14.179  0.1370 -0.3090  0.3187
 6061TIP3    H139598   3.576   6.449  14.153 -1.8130  0.6142 -0.2171
 6061TIP3    H239599   3.499   6.385  14.267 -1.6982  0.1126 -0.4196
 6062TIP3   OH239600   0.449   0.073  14.500  0.0920 -0.7398  0.0060
 6062TIP3    H139601   0.506   0.039  14.569  0.0038 -1.5009 -0.2906
 6062TIP3    H239602   0.489   0.042  14.419 -0.0418 -0.2046 -0.2680
 6063TIP3   OH239603   1.697   2.234  13.015  0.6437  0.0624  0.0932
 6063TIP3    H139604   1.693   2.329  13.003  0.9655  0.2414  1.2724
 6063TIP3    H239605   1.711   2.200  12.927  1.3769  1.1619 -0.2469
 6064TIP3   OH239606   0.653   1.405  14.740 -0.4360 -0.1156  0.1113
 6064TIP3    H139607   0.624   1.383  14.652 -0.8596 -1.6353  0.6071
 6064TIP3    H239608   0.582   1.459  14.775 -1.8504 -2.1889  0.6256
 6065TIP3   OH239609   5.301   3.439   0.069  0.3733  0.0240  0.4928
 6065TIP3    H139610   5.363   3.454  -0.002 -0.9924  0.4352 -0.6369
 6065TIP3    H239611   5.348   3.467   0.148  1.7429 -0.0200 -0.2749
 6066TIP3   OH239612   2.484   2.479   0.583 -0.4566 -0.5478  0.3713
 6066TIP3    H139613   2.442   2.560   0.555  0.2419 -1.1134 -2.7356
 6066TIP3    H239614   2.576   2.502   0.595 -0.7736 -0.2772  2.6585
 6067TIP3   OH239615   6.497   6.618  16.315 -0.0472  0.7975 -0.2943
 6067TIP3    H139616   6.578   6.568  16.302  1.1437  2.5104  0.1374
 6067TIP3    H239617   6.476   6.605  16.408  0.1866  0.9874 -0.2146
 6068TIP3   OH239618   3.341   1.769  11.531  0.3505  1.0614  0.3484
 6068TIP3    H139619   3.339   1.696  11.470 -0.2680  0.7323  0.7488
 6068TIP3    H239620   3.347   1.847  11.476  1.6517  0.6891 -0.0586
 6069TIP3   OH239621   2.669   4.343   1.605 -0.0877 -0.4535  0.2658
 6069TIP3    H139622   2.662   4.325   1.699 -0.0145 -2.1227 -0.0114
 6069TIP3    H239623   2.740   4.286   1.575  1.1990  1.4419 -0.4955
 6070TIP3   OH239624   0.712   0.101   0.270  0.2320 -0.0068 -0.4067
 6070TIP3    H139625   0.782   0.155   0.233  0.4655 -1.8507 -2.9931
 6070TIP3    H239626   0.750   0.063   0.349  1.3502  0.7560 -0.5518
 6071TIP3   OH239627   6.477   4.778   2.130 -0.0624 -0.4507 -0.1025
 6071TIP3    H139628   6.391   4.786   2.088  1.0104  1.6202 -2.1739
 6071TIP3    H239629   6.538   4.815   2.066  1.9416  1.5291  2.7140
 6072TIP3   OH239630   0.546   3.939   0.196  0.4151 -0.5394  0.1903
 6072TIP3    H139631   0.461   3.920   0.235 -0.1033  0.0950 -0.5835
 6072TIP3    H239632   0.583   4.006   0.253  0.1787 -0.4591  0.2540
 6073TIP3   OH239633   5.890   6.300   4.078 -0.2764 -0.5242 -0.2555
 6073TIP3    H139634   5.973   6.276   4.118 -0.2671 -0.2203 -0.0979
 6073TIP3    H239635   5.910   6.376   4.024 -1.1091  1.7837  2.4746
 6074TIP3   OH239636   3.792   0.724   2.250 -0.2932  0.5129 -0.0791
 6074TIP3    H139637   3.781   0.777   2.328 -1.2425 -2.1110  1.7081
 6074TIP3    H239638   3.703   0.705   2.221 -0.0273 -0.9132 -0.0362
 6075TIP3   OH239639   1.533   3.003   5.539 -0.4674 -0.0738 -0.1671
 6075TIP3    H139640   1.595   3.010   5.612  0.6041  1.6376 -1.1574
 6075TIP3    H239641   1.447   3.005   5.581  0.1172 -0.4263  1.1214
 6076TIP3   OH239642   3.162   6.051  11.928  0.2020  0.1460 -0.4250
 6076TIP3    H139643   3.071   6.043  11.900  0.4636  2.0016 -2.0612
 6076TIP3    H239644   3.213   6.033  11.849  1.1677  1.1244 -0.0563
 6077TIP3   OH239645   3.620   4.061  16.257 -0.3995 -0.1761  0.1553
 6077TIP3    H139646   3.624   4.092  16.348 -0.4235  0.1906  0.0328
 6077TIP3    H239647   3.711   4.041  16.234 -0.3521  0.0589  0.1461
 6078TIP3   OH239648   1.850   2.960   3.564  0.0244 -0.1541  0.1250
 6078TIP3    H139649   1.850   2.917   3.649 -1.5881 -0.4582  0.0093
 6078TIP3    H239650   1.886   3.047   3.581 -0.5232 -0.1189  1.1796
 6079TIP3   OH239651   3.860   6.089  16.850 -0.2316  0.2647 -0.2237
 6079TIP3    H139652   3.833   6.112  16.761 -1.1022 -0.1156 -0.0660
 6079TIP3    H239653   3.914   6.010  16.840 -0.2456  0.2818 -0.4230
 6080TIP3   OH239654   1.816   1.695  12.364 -0.1657  0.1137 -0.0114
 6080TIP3    H139655   1.775   1.656  12.441 -0.4619 -1.6122 -0.9875
 6080TIP3    H239656   1.893   1.740  12.397 -1.8031  1.8801  1.6418
 6081TIP3   OH239657   3.889   4.491   5.946  0.5190  0.1336 -0.3112
 6081TIP3    H139658   3.839   4.419   5.907 -1.5553 -0.1849  2.5344
 6081TIP3    H239659   3.970   4.450   5.977 -0.6436 -1.1200  1.2939
 6082TIP3   OH239660   5.671   5.398  16.478 -1.1002  0.2564  0.2156
 6082TIP3    H139661   5.618   5.320  16.494  0.0529 -0.7756 -0.8098
 6082TIP3    H239662   5.640   5.432  16.394 -0.1058 -0.4036 -0.4329
 6083TIP3   OH239663   4.284   4.735  15.533  0.3630  0.8464  0.2343
 6083TIP3    H139664   4.199   4.778  15.535 -0.1192 -0.0780 -0.0150
 6083TIP3    H239665   4.347   4.807  15.520 -0.4734  1.4023 -0.8678
 6084TIP3   OH239666   6.246   1.779   1.203 -0.1554 -0.2605 -0.3944
 6084TIP3    H139667   6.173   1.726   1.170 -0.5749  0.3061 -0.3785
 6084TIP3    H239668   6.305   1.785   1.128  1.2723 -3.0590  0.3491
 6085TIP3   OH239669   3.849   2.715  16.964  0.0738  0.9289  0.0788
 6085TIP3    H139670   3.942   2.701  16.984  0.1265  0.7921 -0.2589
 6085TIP3    H239671   3.840   2.810  16.959  0.0766  0.9621  0.6707
 6086TIP3   OH239672   1.120   5.361   3.415  0.4104 -0.1113  0.4593
 6086TIP3    H139673   1.197   5.315   3.381  1.4093  1.2428  0.7602
 6086TIP3    H239674   1.117   5.442   3.363 -0.1117  0.3786  1.2421
 6087TIP3   OH239675   0.437   0.094  13.970 -0.2380 -0.6759  0.4675
 6087TIP3    H139676   0.465   0.012  14.009  0.2974 -0.8487 -0.2511
 6087TIP3    H239677   0.448   0.081  13.876  0.7035  0.5056  0.3869
 6088TIP3   OH239678   0.188   2.626   6.442  0.3105 -0.6906 -0.1518
 6088TIP3    H139679   0.143   2.572   6.508 -1.3703 -0.0421 -0.7153
 6088TIP3    H239680   0.185   2.573   6.362 -0.2810 -0.2672 -0.4145
 6089TIP3   OH239681   0.375   2.440   2.841 -0.0825  0.4362  0.4077
 6089TIP3    H139682   0.409   2.502   2.777  1.2959 -2.0697 -1.4294
 6089TIP3    H239683   0.433   2.450   2.917 -0.4544  1.9680  0.5279
 6090TIP3   OH239684   2.999   0.482  16.831  0.5075 -0.2586  0.0912
 6090TIP3    H139685   3.036   0.554  16.779  0.1368  0.2236  0.4875
 6090TIP3    H239686   2.949   0.430  16.768  0.1989  0.2265 -0.0720
 6091TIP3   OH239687   3.937   0.974   0.203 -0.0840 -0.5642  0.0302
 6091TIP3    H139688   3.912   1.060   0.235  0.1026 -0.8043  0.8435
 6091TIP3    H239689   3.979   0.931   0.278 -0.5102 -1.4959 -0.2410
 6092TIP3   OH239690   2.637   2.164   1.588  0.5761  0.5205 -0.2441
 6092TIP3    H139691   2.695   2.157   1.513  1.3317  0.0274  0.3729
 6092TIP3    H239692   2.597   2.251   1.580  1.0464  0.6768 -0.9253
 6093TIP3   OH239693   6.726   0.432   3.994  0.2678 -0.2757  0.4476
 6093TIP3    H139694   6.652   0.373   3.978 -0.7199  0.9634  0.2494
 6093TIP3    H239695   6.686   0.512   4.028  1.3593  0.9902 -1.0867
 6094TIP3   OH239696   1.252   6.460  14.781  0.3112  0.2299  0.5144
 6094TIP3    H139697   1.303   6.540  14.767 -0.1636  0.5338  0.4962
 6094TIP3    H239698   1.306   6.407  14.839  0.8773  0.3288  0.0812
 6095TIP3   OH239699   3.179   1.201  12.655  0.0399 -0.0552  0.0787
 6095TIP3    H139700   3.210   1.142  12.586 -1.9348  2.2163 -2.9584
 6095TIP3    H239701   3.258   1.223  12.704  2.0261 -0.0103 -2.8880
 6096TIP3   OH239702   2.030   1.862  11.269 -0.2133  0.2096  0.3276
 6096TIP3    H139703   1.959   1.861  11.333 -0.1503 -0.8068  0.3886
 6096TIP3    H239704   2.020   1.946  11.224 -2.0712 -0.3424 -0.3665
 6097TIP3   OH239705   6.427   4.249   4.068  0.1094 -1.2788 -0.2259
 6097TIP3    H139706   6.345   4.273   4.111  0.5677  1.0909 -0.5445
 6097TIP3    H239707   6.419   4.284   3.979  1.3179 -1.3252 -0.3728
 6098TIP3   OH239708   6.693   5.879  10.782 -0.0109 -0.9643 -0.1010
 6098TIP3    H139709   6.759   5.885  10.713 -0.0093  0.8002  0.0254
 6098TIP3    H239710   6.735   5.918  10.859 -0.4025 -1.9297  0.6245
 6099TIP3   OH239711   4.984   0.143   3.990 -0.2956 -0.3830 -0.2612
 6099TIP3    H139712   4.996   0.061   4.036  0.8738 -0.1277 -0.0854
 6099TIP3    H239713   4.907   0.182   4.031 -3.0981 -2.9108 -2.6528
 6100TIP3   OH239714   3.675   6.519  15.036 -0.2183 -0.3679  0.1400
 6100TIP3    H139715   3.631   6.581  15.094 -1.7674 -0.9184 -0.4118
 6100TIP3    H239716   3.658   6.552  14.948 -0.4107 -1.1521 -0.1232
 6101TIP3   OH239717   0.407   1.231  15.259 -0.1619 -0.3714 -0.4769
 6101TIP3    H139718   0.330   1.277  15.293  1.3259  0.0922  2.6172
 6101TIP3    H239719   0.410   1.150  15.310  1.4450 -0.2912 -0.3979
 6102TIP3   OH239720   0.020   5.641   4.818  0.3098 -0.2888 -0.0715
 6102TIP3    H139721   0.016   5.737   4.815 -2.4361 -0.2269  1.7175
 6102TIP3    H239722  -0.019   5.613   4.735  0.7813  0.1079 -0.4386
 6103TIP3   OH239723   6.310   6.620   1.438 -0.0913  0.6901 -0.1862
 6103TIP3    H139724   6.384   6.613   1.377  0.1430  3.0149 -0.2650
 6103TIP3    H239725   6.273   6.707   1.421 -1.3914  0.5155  1.4797
 6104TIP3   OH239726   5.717   3.970  16.930 -0.3423 -0.3393  0.1980
 6104TIP3    H139727   5.749   3.960  17.019 -2.1839 -1.2222  0.8136
 6104TIP3    H239728   5.674   4.055  16.929  2.7483  1.3899 -0.9463
 6105TIP3   OH239729   4.395   2.432  11.593  0.4936 -0.2187 -0.2359
 6105TIP3    H139730   4.322   2.494  11.591 -0.1021 -0.9283 -1.0931
 6105TIP3    H239731   4.446   2.452  11.514  1.1691  0.1892  0.2912
 6106TIP3   OH239732   0.176   6.340   5.896 -0.1083 -0.2353 -0.1412
 6106TIP3    H139733   0.181   6.272   5.963 -0.5805 -1.2401 -1.0922
 6106TIP3    H239734   0.083   6.360   5.890 -0.0366  0.0453 -0.3124
 6107TIP3   OH239735   4.022   4.210   0.894  0.4361  0.3087  0.7365
 6107TIP3    H139736   4.048   4.171   0.811  1.6667  2.2307  0.1641
 6107TIP3    H239737   4.029   4.138   0.957  1.3275 -0.7085 -0.4746
 6108TIP3   OH239738   5.293   3.509  15.790  0.0323  0.4828  0.1541
 6108TIP3    H139739   5.286   3.517  15.886 -0.9947  0.2345  0.1124
 6108TIP3    H239740   5.385   3.527  15.771  0.6234 -0.9801  1.3519
 6109TIP3   OH239741   5.986   0.760  12.019 -0.4904  0.6437  0.2980
 6109TIP3    H139742   5.925   0.715  11.961  0.0815 -0.0102  0.1885
 6109TIP3    H239743   6.067   0.709  12.013 -0.4428  0.5157  1.7348
 6110TIP3   OH239744   4.891   1.970   3.598  0.2939 -0.4419 -0.4339
 6110TIP3    H139745   4.967   2.028   3.587 -0.2666  0.0294 -2.1820
 6110TIP3    H239746   4.903   1.902   3.531 -0.8867 -0.2803 -0.8319
 6111TIP3   OH239747   6.274   0.802   5.127  0.2473 -0.6315 -0.4667
 6111TIP3    H139748   6.302   0.778   5.039  0.7707 -0.0783 -0.4623
 6111TIP3    H239749   6.183   0.829   5.117  0.2623 -0.7098 -0.8115
 6112TIP3   OH239750   4.062   5.828  15.081 -0.1037  0.0674 -0.1383
 6112TIP3    H139751   4.073   5.878  15.000  1.3693 -0.9379 -0.6003
 6112TIP3    H239752   4.040   5.740  15.052 -3.1588  0.4678  0.6760
 6113TIP3   OH239753   0.283   4.012  10.401  0.4411  0.4329 -0.2228
 6113TIP3    H139754   0.299   4.018  10.495 -0.9347 -0.8431  0.1395
 6113TIP3    H239755   0.369   4.024  10.361  1.1972  0.1643  1.2398
 6114TIP3   OH239756   4.891   6.325   0.517  0.2356  0.0631 -0.0712
 6114TIP3    H139757   4.950   6.275   0.460 -0.7725 -0.1968 -0.9105
 6114TIP3    H239758   4.900   6.415   0.488 -0.0578 -0.0292 -0.4553
 6115TIP3   OH239759   2.197   6.566  11.535  0.0297  0.1087 -0.6251
 6115TIP3    H139760   2.241   6.538  11.615 -2.1940 -1.3067  0.1588
 6115TIP3    H239761   2.209   6.661  11.534 -0.9487  0.3403  2.0824
 6116TIP3   OH239762   2.179   3.301   3.892 -0.7365  0.0174  0.2807
 6116TIP3    H139763   2.223   3.283   3.975  2.4648 -0.3158 -1.3371
 6116TIP3    H239764   2.236   3.364   3.848 -1.8681 -0.4903 -2.0454
 6117TIP3   OH239765   5.308   4.386  13.053  0.0253  0.3088 -0.0508
 6117TIP3    H139766   5.314   4.303  13.100 -0.4908  0.5640  0.4733
 6117TIP3    H239767   5.363   4.373  12.975  1.2357  0.0276  0.8202
 6118TIP3   OH239768   6.349   3.314   3.434 -0.2532 -0.3639 -0.2782
 6118TIP3    H139769   6.357   3.236   3.379  2.7848  0.0973 -0.6627
 6118TIP3    H239770   6.369   3.282   3.522  0.7008 -0.1153 -0.3918
 6119TIP3   OH239771   4.113   3.138   0.831 -0.5162  0.2747 -0.2059
 6119TIP3    H139772   4.090   3.057   0.785  0.4502  0.3673 -0.9002
 6119TIP3    H239773   4.179   3.110   0.896  1.3380  0.7572 -1.7904
 6120TIP3   OH239774   2.089   5.510  15.515 -0.3439  0.0803  0.2171
 6120TIP3    H139775   2.026   5.578  15.491 -2.1021 -1.0872  1.2648
 6120TIP3    H239776   2.065   5.434  15.461  0.3885 -0.2905  0.3944
 6121TIP3   OH239777   6.490   2.983   5.131 -0.1841 -0.7001  0.6010
 6121TIP3    H139778   6.527   3.065   5.099 -0.5988 -0.5546  0.4855
 6121TIP3    H239779   6.475   2.998   5.224 -0.3252 -0.6198  0.5657
 6122TIP3   OH239780   4.511   4.270   1.258 -0.0707  0.1089 -0.2872
 6122TIP3    H139781   4.521   4.175   1.253  0.2244  0.0800  0.8090
 6122TIP3    H239782   4.427   4.283   1.301  1.6028  0.2743  3.2841
 6123TIP3   OH239783   3.512   2.818   1.753 -0.1514 -0.2287 -0.3894
 6123TIP3    H139784   3.542   2.748   1.811  0.3866  0.0086 -0.3778
 6123TIP3    H239785   3.554   2.897   1.786 -1.5600  0.2992  0.2277
 6124TIP3   OH239786   3.722   6.572  14.177  0.4557  0.0101  0.0979
 6124TIP3    H139787   3.741   6.533  14.263  1.6231  0.8457  0.2328
 6124TIP3    H239788   3.746   6.664  14.186 -0.5797  0.3815 -0.7632
 6125TIP3   OH239789   2.879   2.110  14.120 -0.6079  0.2986 -0.1992
 6125TIP3    H139790   2.920   2.151  14.044 -1.1779 -0.3010 -0.8405
 6125TIP3    H239791   2.788   2.140  14.117 -0.1992  1.9146  1.4202
 6126TIP3   OH239792   0.113   2.705   5.842 -0.2367 -0.3775 -0.3589
 6126TIP3    H139793   0.150   2.769   5.903 -3.3266  2.0801 -0.8545
 6126TIP3    H239794   0.045   2.660   5.893 -1.6716  0.5062 -1.4139
 6127TIP3   OH239795   3.330   2.959   1.957 -0.2036  0.1489  0.3711
 6127TIP3    H139796   3.388   3.011   1.901 -0.6407 -0.4294 -0.6638
 6127TIP3    H239797   3.305   2.884   1.902 -0.2122 -0.7452  1.5494
 6128TIP3   OH239798   2.012   2.063  14.722 -0.5263  0.0206  0.1859
 6128TIP3    H139799   2.057   1.981  14.739 -1.3007 -0.6725 -0.9851
 6128TIP3    H239800   1.966   2.049  14.639 -0.6384  1.6526 -0.0613
 6129TIP3   OH239801   2.361   3.256  10.794 -0.4494  0.2082 -0.0255
 6129TIP3    H139802   2.361   3.347  10.764 -0.9115  0.7064  1.3906
 6129TIP3    H239803   2.403   3.207  10.724  1.7461  1.8265  0.0530
 6130TIP3   OH239804   3.347   0.772  10.776  0.7465  0.0171  0.4762
 6130TIP3    H139805   3.402   0.740  10.704 -0.4799 -1.4807  0.1635
 6130TIP3    H239806   3.348   0.701  10.840 -0.8706 -0.0775  0.4263
 6131TIP3   OH239807   2.978   1.961  12.243  0.1071  0.0266  0.7180
 6131TIP3    H139808   2.961   1.960  12.338  0.1365  1.6757  0.7716
 6131TIP3    H239809   3.048   2.025  12.232 -1.1079  1.1822 -0.5958
 6132TIP3   OH239810   1.101   2.787  14.926  0.0055  0.0163 -0.6143
 6132TIP3    H139811   1.128   2.871  14.889  2.0729 -0.0228  0.6272
 6132TIP3    H239812   1.026   2.808  14.982  1.9581  1.5952  1.6303
 6133TIP3   OH239813   2.842   1.858   4.050  0.4221  0.0863  0.2693
 6133TIP3    H139814   2.865   1.796   4.119  0.1785 -0.4633 -0.1367
 6133TIP3    H239815   2.923   1.867   3.998  0.3369 -0.2234  0.0790
 6134TIP3   OH239816   1.766   5.201  13.548 -0.2135  0.1868 -0.0104
 6134TIP3    H139817   1.698   5.148  13.592  1.8098 -0.4856  2.5665
 6134TIP3    H239818   1.804   5.141  13.484 -1.0937  0.1045 -0.4721
 6135TIP3   OH239819   5.477   0.265  12.573  0.3345  0.1647  0.2716
 6135TIP3    H139820   5.471   0.180  12.529 -2.9040  0.9206 -1.0239
 6135TIP3    H239821   5.553   0.307  12.532 -0.0449 -0.8386 -1.5911
 6136TIP3   OH239822   6.688   6.101  14.893  0.0455 -0.0596 -0.2895
 6136TIP3    H139823   6.780   6.078  14.881 -0.1145 -1.2343  0.6106
 6136TIP3    H239824   6.689   6.163  14.966  0.2059  0.7182 -0.9369
 6137TIP3   OH239825   2.353   4.050  12.214  0.3798 -0.1183 -0.6358
 6137TIP3    H139826   2.398   3.974  12.177  1.2058  0.4030 -0.7217
 6137TIP3    H239827   2.367   4.120  12.150  1.0401  0.5457  0.2206
 6138TIP3   OH239828   3.010   2.024  11.119  0.7242 -0.3421  0.0666
 6138TIP3    H139829   2.945   1.959  11.092  0.8541  0.3470 -2.1935
 6138TIP3    H239830   2.963   2.083  11.178 -0.1049 -1.0714  0.1502
 6139TIP3   OH239831   6.290   0.974  12.077  0.0072  0.1284 -0.6750
 6139TIP3    H139832   6.295   0.945  11.986  1.9677 -0.1838 -0.5178
 6139TIP3    H239833   6.362   0.927  12.121 -1.5995 -0.6223  1.2996
 6140TIP3   OH239834   2.690   6.751  12.879 -0.9351 -0.1146 -0.5259
 6140TIP3    H139835   2.650   6.832  12.845 -0.5272  0.1542 -0.3738
 6140TIP3    H239836   2.620   6.686  12.875 -2.4996  1.1135  2.7391
 6141TIP3   OH239837   4.073   4.008  15.047 -0.3163  0.0102 -0.4621
 6141TIP3    H139838   4.132   4.083  15.047 -0.3486  0.0380 -1.0023
 6141TIP3    H239839   3.989   4.043  15.076 -0.0684 -0.0366  0.3438
 6142TIP3   OH239840   2.261   5.845  15.864 -0.0341 -0.3886 -0.1469
 6142TIP3    H139841   2.217   5.894  15.794  1.8236  1.8812  0.1363
 6142TIP3    H239842   2.204   5.857  15.940 -0.6172 -0.3990 -0.5727
 6143TIP3   OH239843   4.918   1.706   3.892 -0.0561 -0.3357  0.4359
 6143TIP3    H139844   4.993   1.765   3.880 -1.0720  0.7208 -1.0368
 6143TIP3    H239845   4.849   1.762   3.928 -2.4704  0.7034 -4.9087
 6144TIP3   OH239846   0.526   1.251  17.018 -0.6281 -0.4158 -0.2055
 6144TIP3    H139847   0.557   1.331  17.061 -0.2634 -0.5526 -0.2141
 6144TIP3    H239848   0.497   1.195  17.090 -0.1727 -0.5789 -0.1480
 6145TIP3   OH239849   3.294   3.692   0.414 -0.0262 -0.0797 -0.5476
 6145TIP3    H139850   3.287   3.740   0.497  1.5919 -1.0955  0.2498
 6145TIP3    H239851   3.234   3.618   0.424 -0.1004 -0.0012 -0.4060
 6146TIP3   OH239852   0.435   0.528  11.250 -0.6199 -0.2341  0.1669
 6146TIP3    H139853   0.523   0.498  11.226 -1.5142 -1.4314 -1.9583
 6146TIP3    H239854   0.391   0.543  11.166 -2.0336  1.7030  1.1758
 6147TIP3   OH239855   1.022   5.302  16.994  0.5077  0.2492 -0.3648
 6147TIP3    H139856   0.990   5.241  17.060  1.2422  1.0261  0.7306
 6147TIP3    H239857   0.961   5.376  16.998 -0.9650 -0.7429 -2.3589
 6148TIP3   OH239858   3.792   2.539   2.729  0.4593  0.5341 -0.0894
 6148TIP3    H139859   3.704   2.507   2.743 -0.5126  2.5879 -0.9880
 6148TIP3    H239860   3.820   2.574   2.813  0.1234  0.5290  0.0223
 6149TIP3   OH239861   1.055   0.232   1.315 -0.4992  1.0181 -0.1737
 6149TIP3    H139862   1.004   0.287   1.255 -1.5578  1.6015  1.1987
 6149TIP3    H239863   0.996   0.216   1.389  1.1381  1.3053  1.2652
 6150TIP3   OH239864   4.498   3.705  16.721  0.2197 -0.2597  0.6554
 6150TIP3    H139865   4.430   3.665  16.775  0.4242  0.4827  1.4903
 6150TIP3    H239866   4.451   3.752  16.652 -0.0846 -0.2860  0.8464
 6151TIP3   OH239867   4.049   6.084  16.303 -0.0982 -0.0372 -0.1339
 6151TIP3    H139868   4.134   6.117  16.332  1.9836 -3.2428 -1.9602
 6151TIP3    H239869   3.996   6.163  16.289  2.7211  2.1496  0.5588
 6152TIP3   OH239870   1.263   5.017   5.432 -0.3595 -0.0444  0.0621
 6152TIP3    H139871   1.257   4.979   5.345  0.1712 -0.3147  0.1450
 6152TIP3    H239872   1.326   5.088   5.424 -0.1028 -0.2422  0.2814
 6153TIP3   OH239873   1.446   2.808  13.791  0.7933 -0.0017  0.1876
 6153TIP3    H139874   1.430   2.717  13.813 -2.4521 -0.6067 -3.6490
 6153TIP3    H239875   1.374   2.856  13.831  1.9612  0.8507  1.3781
 6154TIP3   OH239876   5.282   3.023  16.142 -0.1399  0.0407 -0.3581
 6154TIP3    H139877   5.328   3.103  16.119  0.5417  0.7836  3.0525
 6154TIP3    H239878   5.198   3.053  16.179  0.4251 -0.6468  1.6481
 6155TIP3   OH239879   2.835   4.149  13.320  0.3000 -0.6490  0.1935
 6155TIP3    H139880   2.783   4.070  13.303 -0.9076  0.6123 -2.6218
 6155TIP3    H239881   2.777   4.206  13.370 -0.4995  0.0859 -1.4903
 6156TIP3   OH239882   3.255   4.359   2.009  0.0451  0.3006 -0.2694
 6156TIP3    H139883   3.190   4.424   1.982 -0.7148  0.4616  1.7382
 6156TIP3    H239884   3.204   4.283   2.036  0.6870  0.2854  0.9927
 6157TIP3   OH239885   4.383   3.433   1.172  0.2491  0.1451 -0.0006
 6157TIP3    H139886   4.464   3.478   1.197  0.8063 -1.3101  0.9007
 6157TIP3    H239887   4.389   3.347   1.213 -2.1125  0.2518  0.7065
 6158TIP3   OH239888   0.211   0.213  12.653  0.3298  0.3280  0.6958
 6158TIP3    H139889   0.144   0.200  12.720  0.4724 -0.6756  0.6551
 6158TIP3    H239890   0.238   0.125  12.628 -0.1073  0.6703 -1.0904
 6159TIP3   OH239891   2.276   5.528  16.330  0.1618 -0.1617 -0.7211
 6159TIP3    H139892   2.246   5.511  16.419 -0.3628  0.0430 -0.8555
 6159TIP3    H239893   2.255   5.448  16.282 -0.0003 -0.0921 -0.7686
 6160TIP3   OH239894   0.157   0.515   3.337  0.1787 -0.8810 -0.3965
 6160TIP3    H139895   0.149   0.468   3.419 -0.0815 -0.1321  0.0204
 6160TIP3    H239896   0.195   0.600   3.361  0.3895 -0.7703 -1.0877
 6161TIP3   OH239897   5.430   4.560   2.391  0.2174  0.3671  0.4687
 6161TIP3    H139898   5.508   4.563   2.446 -0.2048  2.0228  1.0265
 6161TIP3    H239899   5.425   4.647   2.351 -1.1495  0.1822  0.1754
 6162TIP3   OH239900   3.596   3.063  11.685 -0.2845  0.4922  0.5767
 6162TIP3    H139901   3.506   3.052  11.716 -0.4646  0.5628  0.0828
 6162TIP3    H239902   3.650   3.033  11.758 -0.7147 -0.0832  0.6661
 6163TIP3   OH239903   1.410   1.481  10.775 -0.1473  0.1754  0.3697
 6163TIP3    H139904   1.454   1.399  10.752 -0.7102 -0.5042  1.5832
 6163TIP3    H239905   1.317   1.457  10.781 -0.8030  1.6313 -2.4130
 6164TIP3   OH239906   0.085   0.970  12.105  0.1520  0.7223 -0.5417
 6164TIP3    H139907   0.056   0.968  12.013 -0.3317  0.9149 -0.3949
 6164TIP3    H239908   0.180   0.961  12.100  0.0691 -0.0311 -1.0283
 6165TIP3   OH239909   2.860   5.290  16.889 -0.2431  0.6735 -0.4104
 6165TIP3    H139910   2.834   5.302  16.798  1.5697 -1.2892 -1.2961
 6165TIP3    H239911   2.945   5.334  16.896 -0.5204  1.0965  0.4387
 6166TIP3   OH239912   1.829   1.562   2.301  0.4005 -0.3883  0.4889
 6166TIP3    H139913   1.915   1.538   2.337  1.2202 -0.2420 -1.2456
 6166TIP3    H239914   1.836   1.656   2.285  1.3226 -0.9188 -2.9900
 6167TIP3   OH239915   5.814   4.538   3.808  0.2056 -0.7882  0.4135
 6167TIP3    H139916   5.865   4.505   3.882  1.0380  1.5040  0.9500
 6167TIP3    H239917   5.846   4.487   3.733  1.4619 -1.1505  1.1648
 6168TIP3   OH239918   5.830   1.928  16.687 -0.2718 -0.2930  0.0255
 6168TIP3    H139919   5.921   1.949  16.708 -0.4485 -0.8974  1.5884
 6168TIP3    H239920   5.835   1.848  16.635  0.0890 -0.7121  0.6822
 6169TIP3   OH239921   3.054   5.449   1.755  0.0167 -0.1706 -0.6478
 6169TIP3    H139922   3.121   5.382   1.737  0.3318 -0.5165  1.5906
 6169TIP3    H239923   3.098   5.532   1.735 -0.1132 -0.5319 -2.6550
 6170TIP3   OH239924   3.247   4.831  11.250  0.1783 -0.3812 -0.0980
 6170TIP3    H139925   3.320   4.875  11.294  1.3209 -1.3768 -0.9357
 6170TIP3    H239926   3.275   4.740  11.240 -0.9673 -0.6817 -0.8923
 6171TIP3   OH239927   0.873   2.818  16.130  0.1530 -0.0068  0.8423
 6171TIP3    H139928   0.871   2.740  16.186  0.1426  0.2216  1.1618
 6171TIP3    H239929   0.927   2.881  16.178  0.1684  0.1827  0.5819
 6172TIP3   OH239930   5.687   3.899   2.032  0.0791 -0.1156  0.0739
 6172TIP3    H139931   5.616   3.935   1.980 -0.4335  0.3440  1.0730
 6172TIP3    H239932   5.765   3.944   2.002  0.3939 -2.2072 -2.6452
 6173TIP3   OH239933   2.266   6.286  16.252 -0.4452  0.3884 -0.8602
 6173TIP3    H139934   2.192   6.290  16.313 -1.1659  0.6060 -1.7250
 6173TIP3    H239935   2.295   6.377  16.244  0.1184  0.2660 -0.2979
 6174TIP3   OH239936   5.419   5.884   2.999 -0.2447  0.0569  0.7638
 6174TIP3    H139937   5.510   5.874   3.028 -0.5842  1.1101  2.3155
 6174TIP3    H239938   5.426   5.937   2.919  0.4905  0.2416  0.9387
 6175TIP3   OH239939   3.519   3.031   3.922 -0.0338  0.3670 -0.1241
 6175TIP3    H139940   3.426   3.021   3.905  0.1810 -1.1215 -0.5520
 6175TIP3    H239941   3.552   2.942   3.931  1.3698  0.8632 -0.0617
 6176TIP3   OH239942   5.555   6.100   0.221 -0.1265 -0.5537  0.5819
 6176TIP3    H139943   5.546   6.006   0.236  0.7436 -0.7036  0.2252
 6176TIP3    H239944   5.639   6.110   0.178 -0.6969  0.2842 -0.3930
 6177TIP3   OH239945   1.918   3.214  16.155  0.4455 -0.5136  0.0838
 6177TIP3    H139946   1.941   3.141  16.212  1.3232 -0.0474  0.3410
 6177TIP3    H239947   1.968   3.288  16.189  0.3902 -0.0434 -0.8291
 6178TIP3   OH239948   0.828   3.165   4.595 -0.4009 -0.2677 -0.1355
 6178TIP3    H139949   0.762   3.111   4.550 -0.1601 -0.0976 -0.6968
 6178TIP3    H239950   0.858   3.226   4.528 -2.4834  2.3032  1.0672
 6179TIP3   OH239951   3.247   5.030   6.182 -0.0769 -0.8731  0.6913
 6179TIP3    H139952   3.186   5.094   6.146  0.6087 -1.1584 -1.0867
 6179TIP3    H239953   3.330   5.077   6.188  0.3125 -1.4240 -0.1500
 6180TIP3   OH239954   0.566   3.186   5.607 -0.1461 -0.3935  0.7936
 6180TIP3    H139955   0.522   3.161   5.525 -0.6232  0.8587  0.6486
 6180TIP3    H239956   0.506   3.249   5.648  2.0293  2.4249 -0.0529
 6181TIP3   OH239957   3.154   5.528   6.012 -0.6167 -0.3715  0.2403
 6181TIP3    H139958   3.181   5.618   5.994 -2.9445  0.6422  1.4668
 6181TIP3    H239959   3.214   5.499   6.080 -1.0200  0.9585  1.2015
 6182TIP3   OH239960   5.859   4.563   4.820  0.7154  0.1342  0.7282
 6182TIP3    H139961   5.886   4.591   4.733 -0.1105 -1.4754 -0.1121
 6182TIP3    H239962   5.793   4.627   4.846 -0.6769 -0.5497 -0.8492
 6183TIP3   OH239963   1.227   0.283  10.184 -0.3123 -0.2693  0.1257
 6183TIP3    H139964   1.271   0.348  10.239 -0.1270  0.4438 -0.8423
 6183TIP3    H239965   1.282   0.205  10.189  0.7862  0.4413 -0.6489
 6184TIP3   OH239966   2.571   5.137  15.324  0.6567  0.3985  0.1312
 6184TIP3    H139967   2.545   5.224  15.355 -1.3959 -0.6403  1.5779
 6184TIP3    H239968   2.595   5.150  15.232  1.3159  2.6231  0.5671
 6185TIP3   OH239969   6.191   2.693  14.432  0.3569 -0.0241  0.3299
 6185TIP3    H139970   6.226   2.649  14.510  0.2488  0.0694  0.4326
 6185TIP3    H239971   6.159   2.777  14.465  1.9629  0.7981 -0.1326
 6186TIP3   OH239972   4.186   3.935  16.964 -0.3843  0.6100  0.1625
 6186TIP3    H139973   4.281   3.934  16.971 -0.2877 -1.8606 -0.4713
 6186TIP3    H239974   4.155   3.899  17.047 -0.6645 -0.2471 -0.3026
 6187TIP3   OH239975   5.399   1.474  13.176  0.1817 -0.9247  0.5545
 6187TIP3    H139976   5.336   1.405  13.194 -0.2744 -0.3670  1.1230
 6187TIP3    H239977   5.442   1.489  13.260  0.4284 -0.6542  0.3812
 6188TIP3   OH239978   3.166   0.990  10.786 -0.3334 -0.0473  0.4044
 6188TIP3    H139979   3.086   0.960  10.744  0.2396  0.4177 -1.1035
 6188TIP3    H239980   3.213   0.909  10.808 -0.7819 -0.3032  0.4413
 6189TIP3   OH239981   5.562   6.269  14.607 -0.9155  0.5684  0.6018
 6189TIP3    H139982   5.476   6.310  14.612 -0.3819  2.4657 -2.6042
 6189TIP3    H239983   5.623   6.343  14.606  0.4949 -0.5541 -0.2878
 6190TIP3   OH239984   1.585   1.516   4.304 -0.0039 -0.2527  0.0313
 6190TIP3    H139985   1.595   1.574   4.380 -2.3090 -0.3026  0.4293
 6190TIP3    H239986   1.672   1.478   4.291  0.3905 -0.4703  2.8373
 6191TIP3   OH239987   2.569   3.054  10.623  0.1678 -0.1761 -0.4858
 6191TIP3    H139988   2.542   2.982  10.680  0.9203 -0.4924 -0.5193
 6191TIP3    H239989   2.587   3.127  10.682  0.2067 -0.2655 -0.3887
 6192TIP3   OH239990   6.627   6.235  14.619 -1.1119 -0.4326  0.0194
 6192TIP3    H139991   6.705   6.190  14.587  1.4818  3.1453  0.6434
 6192TIP3    H239992   6.634   6.229  14.715 -0.5724  1.3030  0.1280
 6193TIP3   OH239993   2.969   3.941   2.792  0.5216 -0.8322  0.3309
 6193TIP3    H139994   3.010   4.014   2.747 -0.2345 -0.5318  0.1030
 6193TIP3    H239995   2.980   3.961   2.885 -0.8253  0.2808  0.2976
 6194TIP3   OH239996   3.734   0.469   5.157 -0.1528 -0.1010  0.1843
 6194TIP3    H139997   3.688   0.541   5.113  1.1450  0.9846  0.5431
 6194TIP3    H239998   3.700   0.470   5.246  2.2371  2.3717  1.2105
 6195TIP3   OH239999   3.213   5.148   2.234 -0.4092 -0.5612  0.3406
 6195TIP3    H140000   3.207   5.055   2.212  1.2229 -0.0994 -2.5584
 6195TIP3    H240001   3.166   5.193   2.164  2.2603  0.9179 -0.6469
 6196TIP3   OH240002   6.153   1.233   4.296 -0.2374  0.1839 -0.0495
 6196TIP3    H140003   6.059   1.246   4.295 -0.1030  1.2296 -0.6608
 6196TIP3    H240004   6.182   1.256   4.207  0.5454 -0.5119  0.0078
 6197TIP3   OH240005   6.432   4.396  14.703  0.2218  0.1606  0.0701
 6197TIP3    H140006   6.481   4.339  14.643  1.7107 -0.1106  1.4512
 6197TIP3    H240007   6.417   4.342  14.780 -0.5633  0.8770  0.4338
 6198TIP3   OH240008   1.463   4.058   4.445  0.1087  0.2678 -0.3548
 6198TIP3    H140009   1.490   4.143   4.481 -3.0857  0.5027  1.8382
 6198TIP3    H240010   1.442   4.077   4.353  2.0556  1.1526 -0.6792
 6199TIP3   OH240011   6.431   5.979   3.954  0.2473 -0.1454  0.2888
 6199TIP3    H140012   6.355   5.923   3.969 -0.2006  0.3766  0.0099
 6199TIP3    H240013   6.419   6.051   4.016  1.3164 -0.8307  1.3210
 6200TIP3   OH240014   4.286   6.012   0.884 -0.5505  0.3984  0.3484
 6200TIP3    H140015   4.351   5.955   0.925 -0.7174  0.1559  0.2745
 6200TIP3    H240016   4.339   6.075   0.834 -0.3673 -1.1471 -1.5545
 6201TIP3   OH240017   2.333   0.217  17.045  0.2387  0.4350 -0.4220
 6201TIP3    H140018   2.395   0.213  17.117  0.7333  1.7299 -0.7456
 6201TIP3    H240019   2.295   0.305  17.051 -1.8958 -0.4470  0.0221
 6202TIP3   OH240020   5.569   1.772  12.553  0.5553  0.5153  0.2455
 6202TIP3    H140021   5.591   1.864  12.538 -0.0843  0.2956 -2.5192
 6202TIP3    H240022   5.635   1.723  12.503  0.1730 -0.4992  0.7133
 6203TIP3   OH240023   3.918   3.518   0.413 -0.9813  0.1626  0.1613
 6203TIP3    H140024   3.853   3.549   0.350  0.0596 -0.5955 -1.3432
 6203TIP3    H240025   3.944   3.432   0.381  2.1132  1.1728 -0.4222
 6204TIP3   OH240026   0.491   1.918  11.172  0.4448 -0.0386  0.2904
 6204TIP3    H140027   0.541   1.987  11.215 -1.8677  1.4797  0.7026
 6204TIP3    H240028   0.513   1.838  11.221  2.4569  0.5379  0.3948
 6205TIP3   OH240029   1.786   2.297   0.980  0.3221  0.7132 -0.7504
 6205TIP3    H140030   1.833   2.316   0.900  2.4347  1.1029  0.5108
 6205TIP3    H240031   1.780   2.381   1.025 -0.1736  0.3729 -0.1551
 6206TIP3   OH240032   3.074   2.983   5.071 -0.5542 -0.5226 -0.3073
 6206TIP3    H140033   3.118   2.938   5.143 -3.7935 -0.6748  1.7839
 6206TIP3    H240034   3.120   3.067   5.064  1.9215 -1.7838 -0.4075
 6207TIP3   OH240035   2.584   6.519  11.854  0.3376 -0.5654 -0.6573
 6207TIP3    H140036   2.521   6.591  11.860  1.1520  0.0309  2.6558
 6207TIP3    H240037   2.663   6.553  11.895  2.1318 -2.0708 -2.6614
 6208TIP3   OH240038   5.561   1.043  16.314 -0.0917 -0.0276  0.4234
 6208TIP3    H140039   5.606   0.980  16.258 -0.9503 -0.3592  0.1022
 6208TIP3    H240040   5.472   1.046  16.281 -0.3736  0.4512  1.2039
 6209TIP3   OH240041   3.042   0.252   5.367 -0.5642  0.3322 -0.1890
 6209TIP3    H140042   3.040   0.341   5.334  2.0044  0.7460  0.5637
 6209TIP3    H240043   3.099   0.255   5.443  0.8054 -2.1874 -0.9815
 6210TIP3   OH240044   3.056   6.299   3.416  0.1654 -0.2553  0.4423
 6210TIP3    H140045   2.986   6.310   3.352  0.6352  1.4287  0.1769
 6210TIP3    H240046   3.064   6.204   3.426 -1.8597 -0.4937  0.1794
 6211TIP3   OH240047   2.051   5.963   5.805  0.0895 -0.3973 -0.3550
 6211TIP3    H140048   2.128   5.966   5.862  0.8141 -0.1185 -1.3234
 6211TIP3    H240049   2.086   5.940   5.719 -0.7580  0.8810 -1.0681
 6212TIP3   OH240050   5.423   5.330   2.211  0.0837 -0.4800  0.1206
 6212TIP3    H140051   5.338   5.373   2.202  1.0866  1.2993 -1.7760
 6212TIP3    H240052   5.436   5.286   2.127  1.0432 -0.7144  0.3805
 6213TIP3   OH240053   2.420   2.581  15.046 -0.0417 -0.4330  0.1784
 6213TIP3    H140054   2.501   2.631  15.040 -0.8442  0.7554 -2.2774
 6213TIP3    H240055   2.357   2.643  15.085 -0.3242 -0.5639 -0.0666
 6214TIP3   OH240056   1.469   2.409   0.672 -0.2163  0.4900 -0.0063
 6214TIP3    H140057   1.420   2.410   0.590 -2.1792 -0.4531  1.0904
 6214TIP3    H240058   1.474   2.502   0.698 -2.9705  0.5297  0.6608
 6215TIP3   OH240059   5.078   5.962   3.703  0.7936  0.1302  0.1216
 6215TIP3    H140060   5.095   5.881   3.655 -0.0709  0.5243 -0.8807
 6215TIP3    H240061   5.038   6.020   3.639 -1.8816  0.1574  1.6642
 6216TIP3   OH240062   6.659   4.540  16.284  0.3989 -0.3803  0.3667
 6216TIP3    H140063   6.665   4.545  16.379 -1.3886  0.9346  0.4789
 6216TIP3    H240064   6.749   4.531  16.254  1.0895  0.2580  2.1284
 6217TIP3   OH240065   3.836   6.241   4.628 -0.7131  0.2608  0.6256
 6217TIP3    H140066   3.840   6.198   4.542 -0.7771  0.0416  0.7319
 6217TIP3    H240067   3.913   6.209   4.674 -0.4210  0.7444  0.4820
 6218TIP3   OH240068   6.040   4.583   6.390 -0.4575 -0.0727 -0.1545
 6218TIP3    H140069   6.000   4.501   6.360  0.2012  0.3390 -2.3235
 6218TIP3    H240070   6.011   4.592   6.480  0.0232 -3.0674  0.4100
 6219TIP3   OH240071   2.682   2.461  14.925 -0.1253 -0.2834  0.5458
 6219TIP3    H140072   2.733   2.431  14.849 -0.2498  0.8793 -0.0217
 6219TIP3    H240073   2.705   2.554  14.933 -1.1465 -0.0748  1.1067
 6220TIP3   OH240074   5.747   5.159  13.623  0.3545 -0.4288 -0.0049
 6220TIP3    H140075   5.813   5.144  13.556  1.1941  2.0137  0.1736
 6220TIP3    H240076   5.793   5.207  13.692 -1.4127  0.7522  0.4294
 6221TIP3   OH240077   6.157   2.698   0.674 -0.2159  0.7278 -0.4530
 6221TIP3    H140078   6.236   2.750   0.690 -0.4854  1.1805 -0.5575
 6221TIP3    H240079   6.181   2.638   0.604  0.6056 -0.4289  0.7716
 6222TIP3   OH240080   5.624   5.197  12.994  0.2062 -0.4645 -0.0326
 6222TIP3    H140081   5.657   5.202  13.084 -2.6068  1.0600  1.0430
 6222TIP3    H240082   5.531   5.176  13.004 -0.1313 -0.4324 -2.6121
 6223TIP3   OH240083   3.260   0.642  14.744  0.0504  0.0596 -0.0780
 6223TIP3    H140084   3.322   0.569  14.735  0.6692  0.5550  0.0734
 6223TIP3    H240085   3.174   0.600  14.748  0.3925 -0.6579 -0.0433
 6224TIP3   OH240086   5.657   1.805  13.461  0.2392  0.3952 -0.0399
 6224TIP3    H140087   5.617   1.727  13.500 -2.3603  1.1752 -0.9742
 6224TIP3    H240088   5.689   1.775  13.376  0.9749 -0.0650  0.3905
 6225TIP3   OH240089   1.530   5.575   2.651 -1.0171 -0.0436  0.3914
 6225TIP3    H140090   1.606   5.582   2.709 -0.6560  1.7109 -0.2332
 6225TIP3    H240091   1.487   5.494   2.678  0.2495 -0.3084  1.7540
 6226TIP3   OH240092   3.749   1.293   3.366  0.3843  0.1392 -0.3470
 6226TIP3    H140093   3.806   1.358   3.408 -0.0983  0.7752 -0.6442
 6226TIP3    H240094   3.668   1.295   3.417  0.3603 -0.2225 -0.3676
 6227TIP3   OH240095   4.203   3.342   0.672  0.0263 -0.4925 -1.0479
 6227TIP3    H140096   4.180   3.267   0.726  1.9225  0.0508  0.6586
 6227TIP3    H240097   4.171   3.320   0.584  0.9350 -3.5050 -0.7185
 6228TIP3   OH240098   6.419   2.851  13.029  0.2917 -0.0431 -0.4057
 6228TIP3    H140099   6.335   2.819  13.062  1.5938 -1.2921  1.9290
 6228TIP3    H240100   6.406   2.946  13.020 -1.2644 -0.1651  0.2430
 6229TIP3   OH240101   1.724   5.471  13.538 -0.5542 -0.5173 -0.4336
 6229TIP3    H140102   1.763   5.385  13.527 -1.2960 -0.8677 -0.3705
 6229TIP3    H240103   1.683   5.490  13.454 -0.3175 -0.1813 -0.4772
 6230TIP3   OH240104   1.417   4.857   0.816 -0.1149  0.3915  0.4059
 6230TIP3    H140105   1.345   4.815   0.769  0.7016 -1.6050  0.8724
 6230TIP3    H240106   1.457   4.915   0.750 -0.3890 -0.6458 -0.7135
 6231TIP3   OH240107   3.094   4.969  12.000  0.4086  0.3561 -0.1270
 6231TIP3    H140108   3.085   5.033  12.070 -1.8377 -0.1720  0.1450
 6231TIP3    H240109   3.095   4.884  12.044  1.3792  0.1140 -0.5970
 6232TIP3   OH240110   6.357   0.161   5.539  0.4266  0.1596  0.2442
 6232TIP3    H140111   6.356   0.241   5.488  0.7638  0.0933  0.1321
 6232TIP3    H240112   6.444   0.123   5.523 -0.2558 -0.9934 -0.8885
 6233TIP3   OH240113   2.605   0.382   4.698  0.1145  0.0261  0.4220
 6233TIP3    H140114   2.685   0.330   4.688 -0.7032 -1.4608  1.1823
 6233TIP3    H240115   2.602   0.436   4.620  0.9835 -1.1451 -0.4682
 6234TIP3   OH240116   0.769   1.327  16.796  0.5915  0.4463 -0.1534
 6234TIP3    H140117   0.734   1.382  16.726 -1.7743 -0.9644 -0.1664
 6234TIP3    H240118   0.736   1.366  16.877  1.5811  0.8532  0.0756
 6235TIP3   OH240119   0.243   6.450  16.253  0.2864 -0.5066 -0.0607
 6235TIP3    H140120   0.234   6.370  16.201  4.0940 -1.3181  0.1937
 6235TIP3    H240121   0.285   6.512  16.193 -0.2662  0.4326  0.5010
 6236TIP3   OH240122   2.830   2.985  16.128 -0.5233 -0.4476  0.2938
 6236TIP3    H140123   2.902   2.976  16.065  0.0067  0.3976  0.7608
 6236TIP3    H240124   2.828   2.901  16.174  0.7887 -0.1758  0.9096
 6237TIP3   OH240125   0.252   0.413  16.286  0.4846  0.2756 -0.4287
 6237TIP3    H140126   0.221   0.501  16.307 -2.8637 -1.0218  0.6659
 6237TIP3    H240127   0.227   0.401  16.194  0.0875  0.1526 -0.3063
 6238TIP3   OH240128   2.756   4.704   6.209 -0.6503 -0.4362  0.8475
 6238TIP3    H140129   2.662   4.691   6.216 -0.6607 -0.8078  0.0957
 6238TIP3    H240130   2.794   4.618   6.224 -0.4925 -0.4968  0.1629
 6239TIP3   OH240131   6.776   3.607   5.350  0.3914  0.0706 -0.8364
 6239TIP3    H140132   6.753   3.575   5.262  1.0351 -0.5047 -0.8056
 6239TIP3    H240133   6.759   3.701   5.346 -3.5993 -0.4453 -0.2878
 6240TIP3   OH240134   6.456   3.108  15.444 -0.4390  0.1313 -0.3721
 6240TIP3    H140135   6.412   3.095  15.360 -0.3819  0.8122 -0.5174
 6240TIP3    H240136   6.549   3.108  15.422 -0.4439  1.0811 -0.4371
 6241TIP3   OH240137   2.775   3.092   5.953  0.3045 -0.0764 -0.2011
 6241TIP3    H140138   2.861   3.053   5.967  0.3977  0.0624 -0.3912
 6241TIP3    H240139   2.773   3.167   6.013  0.1739 -0.2924  0.0711
 6242TIP3   OH240140   1.208   5.542  11.617  0.4676  0.4028  0.4135
 6242TIP3    H140141   1.294   5.545  11.574 -0.1443  1.4024 -0.7948
 6242TIP3    H240142   1.146   5.563  11.548 -0.5981  1.8060  1.7217
 6243TIP3   OH240143   0.791   3.228  11.683 -0.3946 -0.2360  0.6388
 6243TIP3    H140144   0.759   3.138  11.694 -0.5237 -0.0363  2.0738
 6243TIP3    H240145   0.723   3.282  11.723  0.2258  0.4174  0.8239
 6244TIP3   OH240146   6.399   4.508  14.095 -0.4576 -0.1233  0.1792
 6244TIP3    H140147   6.424   4.547  14.179  1.7658  0.2190 -0.6023
 6244TIP3    H240148   6.426   4.571  14.029 -0.9177 -1.0013 -0.8875
 6245TIP3   OH240149   4.794   4.654  13.386  0.1631  0.3964  0.1552
 6245TIP3    H140150   4.747   4.734  13.362  1.6334  1.5909  1.0990
 6245TIP3    H240151   4.759   4.630  13.471 -0.9849 -0.5668 -0.5635
 6246TIP3   OH240152   2.414   2.568  10.910  0.0616  0.4488  0.1510
 6246TIP3    H140153   2.363   2.613  10.844 -0.2347 -0.3008 -0.1455
 6246TIP3    H240154   2.491   2.535  10.863  0.4238  0.8956  0.4258
 6247TIP3   OH240155   5.612   5.191  14.005  0.0909  0.0008  0.6242
 6247TIP3    H140156   5.586   5.281  13.987  0.3142 -0.1324 -0.4302
 6247TIP3    H240157   5.691   5.199  14.059  0.3054  0.4496  0.2519
 6248TIP3   OH240158   0.412   3.139   2.121  0.4499  0.8815  0.9633
 6248TIP3    H140159   0.443   3.229   2.111 -0.0556  0.8623 -1.3588
 6248TIP3    H240160   0.459   3.090   2.054 -0.6527 -0.2069  0.9465
 6249TIP3   OH240161   0.494   4.107   4.640 -0.4543  0.6764 -0.2080
 6249TIP3    H140162   0.438   4.173   4.682  0.1656  1.0611  0.0300
 6249TIP3    H240163   0.479   4.118   4.546 -0.7625  0.7913 -0.1440
 6250TIP3   OH240164   0.133   0.697   1.594  0.8044  0.3888 -0.2501
 6250TIP3    H140165   0.079   0.775   1.579  0.0174  0.2605  1.6219
 6250TIP3    H240166   0.161   0.670   1.507 -0.8700  1.3812 -1.1491
 6251TIP3   OH240167   1.906   3.676  13.777  0.0995 -0.4773 -0.2097
 6251TIP3    H140168   1.996   3.695  13.805  0.0035 -0.0769 -0.1666
 6251TIP3    H240169   1.851   3.712  13.847 -0.1495  0.7051 -0.9858
 6252TIP3   OH240170   0.392   4.727   2.829  0.0680 -0.7599  0.1660
 6252TIP3    H140171   0.419   4.794   2.766  0.4606  0.2427  1.3513
 6252TIP3    H240172   0.329   4.673   2.782 -1.1755  1.1650 -0.4806
 6253TIP3   OH240173   0.869   0.581  12.295  0.2274 -0.1232 -0.3547
 6253TIP3    H140174   0.921   0.517  12.342  0.2860 -1.0390 -1.5996
 6253TIP3    H240175   0.932   0.643  12.260  0.3938 -0.6276 -0.9640
 6254TIP3   OH240176   5.310   5.187   0.919 -0.2778  0.1192  0.1543
 6254TIP3    H140177   5.284   5.269   0.960  1.8307  0.5888  0.6855
 6254TIP3    H240178   5.406   5.189   0.920 -0.1190 -0.9249 -2.6737
 6255TIP3   OH240179   5.442   2.192  12.383  0.4344 -0.1631 -0.5519
 6255TIP3    H140180   5.408   2.282  12.376  0.7350  0.3654  2.9583
 6255TIP3    H240181   5.478   2.173  12.296 -0.2511  2.8361 -1.6124
 6256TIP3   OH240182   3.928   4.222  13.594 -0.2837  0.2532 -0.2601
 6256TIP3    H140183   4.015   4.199  13.561 -1.2268 -1.5528 -1.6887
 6256TIP3    H240184   3.906   4.302  13.547 -0.0705 -0.2411 -1.2315
 6257TIP3   OH240185   1.843   6.040  12.456 -0.1240  0.3895 -0.2068
 6257TIP3    H140186   1.811   5.967  12.508  0.9825 -0.2083 -0.3384
 6257TIP3    H240187   1.780   6.110  12.471 -0.4575 -0.1551  0.9918
 6258TIP3   OH240188   4.454   4.781   1.538 -0.1227  0.1122 -0.4203
 6258TIP3    H140189   4.476   4.842   1.609 -1.5959  0.3795 -0.1727
 6258TIP3    H240190   4.444   4.697   1.581 -0.2863  0.1264 -0.4330
 6259TIP3   OH240191   1.419   5.504   6.002 -0.3015  0.2527 -0.1906
 6259TIP3    H140192   1.395   5.417   5.970  0.8951 -0.6409  1.1952
 6259TIP3    H240193   1.348   5.529   6.061 -0.1587 -0.2728  0.2137
 6260TIP3   OH240194   2.208   1.286  12.778 -0.1583  0.0348  0.3678
 6260TIP3    H140195   2.264   1.360  12.804  1.4347 -0.2530 -1.8908
 6260TIP3    H240196   2.172   1.253  12.860  0.3770  2.3072  1.6018
 6261TIP3   OH240197   3.417   0.394  11.744  0.6795  0.1350  0.0239
 6261TIP3    H140198   3.452   0.405  11.656  1.9720  0.3850  0.5452
 6261TIP3    H240199   3.322   0.402  11.734  0.7384 -0.8094 -1.4736
 6262TIP3   OH240200   0.756   1.143   4.733  0.2415 -0.3139 -0.0478
 6262TIP3    H140201   0.709   1.077   4.784 -0.7606 -0.7769 -1.5125
 6262TIP3    H240202   0.690   1.182   4.676  0.2100  3.7746  2.4068
 6263TIP3   OH240203   1.428   2.505   2.808 -0.1832  0.0437 -0.0682
 6263TIP3    H140204   1.426   2.539   2.718  0.3287 -0.0506 -0.1179
 6263TIP3    H240205   1.508   2.453   2.812 -1.1948 -1.5926 -0.1518
 6264TIP3   OH240206   6.710   3.197   0.507  0.2019 -0.0228 -0.0239
 6264TIP3    H140207   6.738   3.287   0.491  1.8446 -0.6403 -0.8741
 6264TIP3    H240208   6.658   3.175   0.430  1.4537 -0.4012 -0.8004
 6265TIP3   OH240209   6.612   1.029  14.799 -0.0808  0.6789 -0.1223
 6265TIP3    H140210   6.582   0.977  14.874  1.8241 -0.9952 -0.4301
 6265TIP3    H240211   6.531   1.056  14.756 -1.1973  0.0269  1.4311
 6266TIP3   OH240212   5.184   0.467   5.548 -0.2846  0.1638 -0.0834
 6266TIP3    H140213   5.130   0.512   5.613 -0.8826  0.7962 -0.9977
 6266TIP3    H240214   5.218   0.390   5.594 -1.9707 -0.2633  0.5139
 6267TIP3   OH240215   6.548   4.764  13.952 -0.2321  0.0034 -0.1815
 6267TIP3    H140216   6.599   4.737  14.029 -0.4855  0.3224  0.1011
 6267TIP3    H240217   6.496   4.839  13.983 -1.6951 -0.9888 -0.1556
 6268TIP3   OH240218   4.647   5.671   0.129 -0.3012  0.9535 -0.3471
 6268TIP3    H140219   4.647   5.579   0.104 -0.3640  1.1335 -1.0138
 6268TIP3    H240220   4.684   5.671   0.218  0.1679  0.3422 -0.5343
 6269TIP3   OH240221   6.263   5.051  11.714  0.1649  0.1648 -0.2671
 6269TIP3    H140222   6.330   4.997  11.756  0.1788  0.4591  0.0866
 6269TIP3    H240223   6.310   5.129  11.685 -0.1684  0.7120  0.6428
 6270TIP3   OH240224   2.114   6.070  15.764 -0.0895 -0.4396 -0.4122
 6270TIP3    H140225   2.194   6.102  15.721  0.9026 -1.1039  0.8735
 6270TIP3    H240226   2.121   6.100  15.854 -1.4990 -0.1933 -0.3571
 6271TIP3   OH240227   2.103   3.823  17.105 -0.0614 -0.1029 -0.0188
 6271TIP3    H140228   2.175   3.858  17.158 -0.3617  0.5427 -0.0228
 6271TIP3    H240229   2.089   3.889  17.037 -1.2579  0.2330  0.5200
 6272TIP3   OH240230   4.911   3.941   1.572  0.3420 -0.1774 -0.0128
 6272TIP3    H140231   4.969   3.983   1.636 -0.2840  0.5354  0.1036
 6272TIP3    H240232   4.966   3.926   1.496  0.2526  2.2819 -0.6462
 6273TIP3   OH240233   1.254   6.666   2.234 -0.8836 -0.1898 -0.6653
 6273TIP3    H140234   1.242   6.634   2.145  1.6087  0.7384 -1.4075
 6273TIP3    H240235   1.191   6.738   2.242 -1.5839 -0.6948 -1.4257
 6274TIP3   OH240236   5.951   0.664   3.055 -0.0619  0.1493  0.0324
 6274TIP3    H140237   5.920   0.575   3.067 -0.0244  0.3277  1.6080
 6274TIP3    H240238   5.968   0.696   3.143 -0.8235  1.9772 -0.4328
 6275TIP3   OH240239   0.913   5.549  14.603 -0.4025  0.1338 -0.1188
 6275TIP3    H140240   0.838   5.494  14.580 -0.8983  0.8645 -0.2660
 6275TIP3    H240241   0.970   5.547  14.526 -1.1130  0.9813 -0.6887
 6276TIP3   OH240242   3.629   3.610   0.064  0.0043  0.1430  0.2820
 6276TIP3    H140243   3.724   3.603   0.076  0.5714  2.4968 -2.0504
 6276TIP3    H240244   3.599   3.656   0.141  0.8677  0.0405  0.6977
 6277TIP3   OH240245   6.426   3.475   0.703  0.3640 -0.1694 -0.1945
 6277TIP3    H140246   6.387   3.492   0.788  2.3840 -1.1404  1.0107
 6277TIP3    H240247   6.364   3.416   0.660 -1.4588  1.5861 -0.1148
 6278TIP3   OH240248   2.731   4.507  14.797 -0.3925 -0.1825  0.0268
 6278TIP3    H140249   2.758   4.573  14.733 -0.1045 -1.1926 -0.9273
 6278TIP3    H240250   2.666   4.552  14.851 -2.1452  0.1687 -2.2182
 6279TIP3   OH240251   1.825   0.768  11.755 -0.0342 -0.0576  0.0049
 6279TIP3    H140252   1.732   0.750  11.746  0.1595 -0.8386 -0.4461
 6279TIP3    H240253   1.866   0.682  11.765  0.7022  0.2345 -0.3955
 6280TIP3   OH240254   5.545   0.089  17.194  0.0035  0.1840  0.7514
 6280TIP3    H140255   5.600   0.138  17.133  0.6572  0.1442  1.3046
 6280TIP3    H240256   5.463   0.140  17.197 -0.5680 -0.5159 -1.1584
 6281TIP3   OH240257   1.187   2.335  14.324  0.3272  0.0208  0.1918
 6281TIP3    H140258   1.216   2.320  14.414  2.4244 -0.4517 -0.5236
 6281TIP3    H240259   1.248   2.285  14.270  0.0360  1.5017 -1.5922
 6282TIP3   OH240260   4.620   0.622  14.889 -0.1535 -0.1856 -0.7104
 6282TIP3    H140261   4.636   0.589  14.978 -0.1636  0.1300 -0.5915
 6282TIP3    H240262   4.705   0.615  14.846  0.2459  1.1830 -0.1793
 6283TIP3   OH240263   5.380   1.295  13.720  0.4916  0.5580 -0.2162
 6283TIP3    H140264   5.298   1.249  13.740  1.0978 -0.5943 -0.2940
 6283TIP3    H240265   5.372   1.379  13.765 -0.8092  0.5423 -0.3751
 6284TIP3   OH240266   0.830   5.872   5.019  0.2690 -0.0376 -0.6749
 6284TIP3    H140267   0.767   5.890   5.089  0.0884 -1.6571 -0.3888
 6284TIP3    H240268   0.828   5.951   4.964 -1.2873  0.3410 -0.1302
 6285TIP3   OH240269   2.472   4.781  14.039 -0.7172  0.3402  0.0812
 6285TIP3    H140270   2.511   4.866  14.017 -1.6896  0.9124  0.4731
 6285TIP3    H240271   2.547   4.724  14.058 -0.0609  1.3175  0.5295
 6286TIP3   OH240272   1.114   2.801   4.288  0.0757  0.2565  0.1763
 6286TIP3    H140273   1.114   2.879   4.343 -1.1431  0.4858 -0.1332
 6286TIP3    H240274   1.149   2.831   4.204 -0.1677  0.4190  0.1318
 6287TIP3   OH240275   6.127   1.098  15.247  0.1614  0.5270  0.0899
 6287TIP3    H140276   6.159   1.185  15.225 -1.1514  1.2772  0.9995
 6287TIP3    H240277   6.173   1.075  15.328  1.4155 -0.1712 -0.7985
 6288TIP3   OH240278   1.702   6.461   5.255 -0.0722 -0.0674  0.0681
 6288TIP3    H140279   1.767   6.405   5.298  0.2970 -0.4545 -0.9771
 6288TIP3    H240280   1.668   6.516   5.326  0.5003 -0.7059  0.8630
 6289TIP3   OH240281   2.952   6.269   1.805  0.2165 -0.1418 -0.2658
 6289TIP3    H140282   2.901   6.344   1.775 -1.8973 -1.3084  0.2284
 6289TIP3    H240283   2.931   6.199   1.743  0.4642 -0.9153  0.5067
 6290TIP3   OH240284   0.596   5.507   0.977  0.3272 -0.6448  0.5935
 6290TIP3    H140285   0.621   5.598   0.963 -0.6642 -0.6707 -1.8313
 6290TIP3    H240286   0.529   5.490   0.911  1.0761 -3.3802  0.4010
 6291TIP3   OH240287   1.814   0.291  12.180 -0.8159  0.6493  0.1764
 6291TIP3    H140288   1.832   0.381  12.155 -0.2447  1.6114  3.5535
 6291TIP3    H240289   1.736   0.296  12.234 -0.5042 -0.8102  0.8139
 6292TIP3   OH240290   5.581   0.425   5.571  0.3134  0.1464 -0.0665
 6292TIP3    H140291   5.633   0.497   5.605 -0.2248  1.9120 -2.6585
 6292TIP3    H240292   5.646   0.362   5.538  0.8398  0.9188 -0.5530
 6293TIP3   OH240293   1.401   4.422  15.187  0.2165 -0.3767 -0.7141
 6293TIP3    H140294   1.471   4.379  15.138  0.7689 -3.1382  2.1540
 6293TIP3    H240295   1.446   4.467  15.258 -0.7246  1.2384 -1.1027
 6294TIP3   OH240296   4.471   4.574  11.712 -0.0516  0.2214 -0.4410
 6294TIP3    H140297   4.531   4.615  11.775  0.6874 -0.7441 -0.4813
 6294TIP3    H240298   4.527   4.517  11.659 -1.0691 -1.1281 -0.1332
 6295TIP3   OH240299   4.743   3.592   5.062  0.3354 -0.0079 -0.2386
 6295TIP3    H140300   4.763   3.629   5.148 -0.0831  0.8045 -0.4827
 6295TIP3    H240301   4.680   3.522   5.080 -0.9694  1.1788 -0.0147
 6296TIP3   OH240302   4.762   5.503  12.817  0.0167  0.4435 -0.4188
 6296TIP3    H140303   4.750   5.495  12.722 -0.6298 -0.8417 -0.2614
 6296TIP3    H240304   4.785   5.415  12.846 -0.8905  0.5536  0.7513
 6297TIP3   OH240305   6.559   6.318   2.952  0.1164  0.4643  0.1466
 6297TIP3    H140306   6.573   6.264   2.874  1.8743 -1.3639  1.6189
 6297TIP3    H240307   6.467   6.342   2.949  0.0709  0.2118 -2.3145
 6298TIP3   OH240308   4.043   5.953  12.299 -1.1835  0.1517  0.1000
 6298TIP3    H140309   4.124   5.979  12.254 -0.7073  1.2038  1.4990
 6298TIP3    H240310   4.030   5.862  12.273  1.8916 -0.9242  1.8139
 6299TIP3   OH240311   6.772   3.327  15.475  0.2531  0.9945  0.4085
 6299TIP3    H140312   6.679   3.346  15.463  0.2580  1.1604  0.6147
 6299TIP3    H240313   6.808   3.407  15.512  0.7266  1.3533 -0.8049
 6300TIP3   OH240314   0.752   1.764  16.000 -0.3848  0.1455  0.1552
 6300TIP3    H140315   0.717   1.776  16.089 -0.3271 -0.3189  0.2416
 6300TIP3    H240316   0.833   1.815  16.000  1.2883 -2.3340  1.3866
 6301TIP3   OH240317   4.443   6.651  11.714 -0.1151  0.5681  0.4553
 6301TIP3    H140318   4.472   6.709  11.785  0.9189  1.3077 -0.5277
 6301TIP3    H240319   4.511   6.661  11.647  0.0602 -1.7575  0.2129
 6302TIP3   OH240320   5.637   2.739  14.400 -0.2706 -0.0076  0.0949
 6302TIP3    H140321   5.605   2.682  14.331 -0.6016 -1.3085  1.2738
 6302TIP3    H240322   5.686   2.681  14.458  3.1025  1.6353 -0.8475
 6303TIP3   OH240323   2.288   6.724  10.703 -0.3108 -0.4231  0.1519
 6303TIP3    H140324   2.331   6.804  10.671  0.8020 -1.2279 -0.3957
 6303TIP3    H240325   2.291   6.664  10.629  1.4529 -1.9860  1.4137
 6304TIP3   OH240326   6.177   4.042   1.519  0.1742 -0.6641  0.0595
 6304TIP3    H140327   6.156   4.021   1.428 -4.8435  0.0405  0.7526
 6304TIP3    H240328   6.187   4.137   1.521 -0.6607 -0.5691  0.3042
 6305TIP3   OH240329   1.808   6.599  13.002 -0.0849 -0.2219  0.2480
 6305TIP3    H140330   1.779   6.647  13.080 -2.2479 -0.2829 -0.4592
 6305TIP3    H240331   1.894   6.565  13.026  0.3583  1.7444  1.7412
 6306TIP3   OH240332   2.615   0.933   5.615  0.2384 -0.4157  1.0380
 6306TIP3    H140333   2.567   0.883   5.681 -2.3040  0.8771  0.2796
 6306TIP3    H240334   2.661   1.000   5.666 -1.5245  0.4354  1.5957
 6307TIP3   OH240335   3.616   5.343  16.064  0.3864  0.1238  0.0808
 6307TIP3    H140336   3.552   5.413  16.050 -0.6602 -0.3034  2.2873
 6307TIP3    H240337   3.690   5.385  16.107 -0.5189 -0.1651  2.0172
 6308TIP3   OH240338   0.814   3.345  10.231 -0.4867 -0.4198 -0.0568
 6308TIP3    H140339   0.801   3.437  10.251  1.7584 -0.1992  0.7017
 6308TIP3    H240340   0.823   3.302  10.316  1.0797 -0.8573 -0.3949
 6309TIP3   OH240341   6.163   0.437  14.691 -0.8263  0.1659  0.0057
 6309TIP3    H140342   6.090   0.417  14.633 -0.2346 -1.3425 -0.2458
 6309TIP3    H240343   6.150   0.380  14.767 -0.8261  1.1196  0.7474
 6310TIP3   OH240344   0.106   2.333  10.848 -0.0773  0.2754 -1.1442
 6310TIP3    H140345   0.094   2.330  10.753  0.8905  0.0876 -1.2651
 6310TIP3    H240346   0.132   2.423  10.867 -1.5021  0.6617 -0.8883
 6311TIP3   OH240347   0.111   4.161   0.861 -0.4745  0.2285  0.7360
 6311TIP3    H140348   0.114   4.256   0.850 -1.6703  0.3231  1.1735
 6311TIP3    H240349   0.021   4.137   0.841 -0.0243 -0.9050 -0.0082
 6312TIP3   OH240350   1.605   5.749   5.633  0.2689 -0.2431  0.1817
 6312TIP3    H140351   1.691   5.771   5.596  0.2478  0.2524  0.4126
 6312TIP3    H240352   1.544   5.805   5.584  0.0963 -0.4767  0.1300
 6313TIP3   OH240353   6.722   0.173  14.716  0.1030  0.0908 -0.1877
 6313TIP3    H140354   6.659   0.141  14.651  0.3179 -1.3133  0.2579
 6313TIP3    H240355   6.668   0.207  14.787 -0.1553  2.7281 -1.5257
 6314TIP3   OH240356   5.490   3.349  13.558  0.2324 -0.4110  0.7236
 6314TIP3    H140357   5.400   3.380  13.561  0.1223 -0.7506  0.8560
 6314TIP3    H240358   5.497   3.302  13.475  0.4285  0.0429  0.4752
 6315TIP3   OH240359   1.290   5.063   6.081 -0.0445 -0.1610 -0.2728
 6315TIP3    H140360   1.339   5.003   6.025  2.5265  1.0485  0.5111
 6315TIP3    H240361   1.295   5.024   6.168 -0.1379  0.1636 -0.1192
 6316TIP3   OH240362   5.456   1.730   3.509  0.3339  0.7908 -0.1921
 6316TIP3    H140363   5.361   1.723   3.508  0.3492  0.5351  0.3553
 6316TIP3    H240364   5.475   1.804   3.451 -0.2064  0.9484 -0.1664
 6317TIP3   OH240365   2.049   6.483  14.343  0.0186 -0.1842  0.1004
 6317TIP3    H140366   2.045   6.394  14.307  0.0354 -0.5068  0.8630
 6317TIP3    H240367   2.002   6.537  14.280 -0.8491 -0.9042  0.1146
 6318TIP3   OH240368   2.650   1.547  11.823  0.2445 -0.5791 -0.8833
 6318TIP3    H140369   2.589   1.572  11.893 -0.6403 -0.4164 -1.6977
 6318TIP3    H240370   2.659   1.452  11.831 -0.1915 -0.6152 -0.8277
 6319TIP3   OH240371   6.620   0.731   4.958 -0.3190 -0.0188  0.3554
 6319TIP3    H140372   6.702   0.721   4.910  0.1623 -0.4971  1.2577
 6319TIP3    H240373   6.640   0.702   5.046 -1.2250  0.7348  0.8276
 6320TIP3   OH240374   2.794   6.082   5.058 -0.3424  0.0964  0.3560
 6320TIP3    H140375   2.712   6.033   5.059 -0.7444  0.7450 -0.0838
 6320TIP3    H240376   2.852   6.032   5.000 -0.5916 -0.1029  0.2794
 6321TIP3   OH240377   5.685   3.179  13.977  0.7678  0.2454  0.1369
 6321TIP3    H140378   5.717   3.227  14.054 -0.3010 -0.0339  0.7785
 6321TIP3    H240379   5.729   3.094  13.981  0.0248 -0.1163  0.9808
 6322TIP3   OH240380   3.769   0.708   5.616 -0.5203 -0.7450 -0.5590
 6322TIP3    H140381   3.861   0.685   5.632  0.0674  0.8594 -1.4067
 6322TIP3    H240382   3.737   0.640   5.556 -0.1104 -1.6899  0.2598
 6323TIP3   OH240383   4.659   3.293   0.664  0.4231 -0.7127  0.5880
 6323TIP3    H140384   4.594   3.352   0.703  0.0783 -1.3351  0.9787
 6323TIP3    H240385   4.730   3.351   0.635 -0.1543 -0.0593  0.4615
 6324TIP3   OH240386   4.509   3.578   3.415 -0.3108  0.0686  0.0671
 6324TIP3    H140387   4.420   3.550   3.439 -0.6777 -0.5093 -1.8487
 6324TIP3    H240388   4.504   3.597   3.322  1.4775  0.5207  0.0395
 6325TIP3   OH240389   6.162   2.348  17.052  0.6927  0.1031  0.3983
 6325TIP3    H140390   6.185   2.421  17.109  2.3846 -0.5896  0.6568
 6325TIP3    H240391   6.106   2.387  16.985  2.5963  1.9590 -0.2315
 6326TIP3   OH240392   6.226   5.676   1.921 -0.2694 -0.1558 -0.0688
 6326TIP3    H140393   6.277   5.687   2.002  2.2198 -2.3898 -1.1485
 6326TIP3    H240394   6.243   5.755   1.870  0.5627 -0.0054  0.4210
 6327TIP3   OH240395   0.194   0.256   1.204  0.4959  0.4834 -0.0488
 6327TIP3    H140396   0.288   0.267   1.189  0.6639 -0.1708  0.4600
 6327TIP3    H240397   0.182   0.277   1.297  0.3548 -0.6501  0.2019
 6328TIP3   OH240398   3.555   5.690   3.438 -0.8210  0.1264 -0.2921
 6328TIP3    H140399   3.562   5.743   3.358 -3.8815 -0.5314 -1.1003
 6328TIP3    H240400   3.544   5.754   3.508 -1.4413  0.6399 -0.8488
 6329TIP3   OH240401   0.414   5.218   3.395 -0.8754 -0.2847 -0.3486
 6329TIP3    H140402   0.415   5.123   3.382 -0.7586 -0.3996  0.4365
 6329TIP3    H240403   0.454   5.253   3.316 -1.1554 -0.8720 -0.7662
 6330TIP3   OH240404   6.140   3.410  13.399  0.3593  0.4075  0.1013
 6330TIP3    H140405   6.072   3.395  13.466  0.1994  1.0323  0.0859
 6330TIP3    H240406   6.216   3.363  13.432 -0.0607 -0.2603  0.1495
 6331TIP3   OH240407   0.510   0.909  14.942 -0.4034 -0.0719 -0.4245
 6331TIP3    H140408   0.499   0.919  14.847 -0.9870 -0.6049 -0.4215
 6331TIP3    H240409   0.423   0.926  14.978  0.5228  3.8334  0.3901
 6332TIP3   OH240410   1.142   6.600  12.274  0.6074  0.4426 -0.0199
 6332TIP3    H140411   1.054   6.621  12.242  0.8478  0.0984 -0.9618
 6332TIP3    H240412   1.155   6.508  12.249  1.6299  0.7995 -0.8822
 6333TIP3   OH240413   4.667   2.089  16.708 -0.4903  0.3495 -0.2748
 6333TIP3    H140414   4.738   2.037  16.670  0.7439  0.1572  2.0717
 6333TIP3    H240415   4.681   2.177  16.673  0.4567  0.1459 -0.4421
 6334TIP3   OH240416   4.885   6.571   4.554 -0.0931 -0.5887  0.7628
 6334TIP3    H140417   4.928   6.488   4.533 -1.4482 -1.2676  0.5169
 6334TIP3    H240418   4.906   6.629   4.480 -0.2155 -1.1522  0.2768
 6335TIP3   OH240419   1.826   4.860  13.723  0.8591 -0.0012 -0.4845
 6335TIP3    H140420   1.759   4.870  13.791  0.1284  2.9204 -1.4831
 6335TIP3    H240421   1.793   4.790  13.667 -0.5847  0.2994 -0.0538
 6336TIP3   OH240422   6.391   0.018   0.301 -0.2574 -0.5967  0.1345
 6336TIP3    H140423   6.403   0.085   0.369 -0.1728  0.2412 -0.6893
 6336TIP3    H240424   6.325   0.055   0.243  0.5596 -0.7735 -0.9178
 6337TIP3   OH240425   2.886   4.938  11.778 -1.1052  1.0087  0.0871
 6337TIP3    H140426   2.894   4.980  11.693  0.0105 -0.9305 -0.8412
 6337TIP3    H240427   2.952   4.980  11.833 -1.4013  1.8376 -0.1777
 6338TIP3   OH240428   0.254   1.902  11.042 -0.5740 -0.8607  0.0396
 6338TIP3    H140429   0.340   1.893  11.084 -0.7253 -0.3142  0.4847
 6338TIP3    H240430   0.273   1.945  10.959 -0.7496  3.1470  1.8347
 6339TIP3   OH240431   6.134   3.258   2.994  0.7746 -0.0876  0.9908
 6339TIP3    H140432   6.099   3.207   3.066  0.9042 -1.0518  0.3787
 6339TIP3    H240433   6.222   3.223   2.980 -0.1556 -1.7192 -1.3082
 6340TIP3   OH240434   0.407   1.643  10.740  0.2123  0.0927 -0.3373
 6340TIP3    H140435   0.420   1.549  10.726  0.7782  0.1967 -0.5457
 6340TIP3    H240436   0.331   1.665  10.685 -0.0053 -0.2656 -0.1845
 6341TIP3   OH240437   3.200   5.830   4.061 -0.3250 -0.3375 -0.2474
 6341TIP3    H140438   3.115   5.870   4.043 -1.0588 -1.3682  0.7212
 6341TIP3    H240439   3.180   5.738   4.077  0.7701 -0.3285  1.4590
 6342TIP3   OH240440   1.096   2.333  10.763 -0.2996 -0.1860  0.0063
 6342TIP3    H140441   1.156   2.299  10.697  0.6795 -0.3407  0.9513
 6342TIP3    H240442   1.144   2.404  10.805 -1.8361  1.6130 -1.0755
 6343TIP3   OH240443   3.072   3.933   0.497  0.3405  0.1705 -0.3001
 6343TIP3    H140444   3.133   3.913   0.568 -0.5069  0.5564  0.5619
 6343TIP3    H240445   3.128   3.953   0.422  1.2711  0.3046  0.4137
 6344TIP3   OH240446   2.279   2.251   1.995  0.2824  0.4489 -0.0005
 6344TIP3    H140447   2.239   2.332   1.964  1.3223  0.8354 -0.3684
 6344TIP3    H240448   2.291   2.199   1.915  1.5215  0.8000 -0.0655
 6345TIP3   OH240449   5.035   4.764   1.783 -0.2359 -0.3566  0.3816
 6345TIP3    H140450   5.083   4.723   1.855  0.7461 -0.3350 -0.2464
 6345TIP3    H240451   4.955   4.797   1.824 -1.1406 -2.9594  0.9037
 6346TIP3   OH240452   5.821   2.435  14.207 -0.1619 -0.0706  0.0787
 6346TIP3    H140453   5.848   2.441  14.116 -0.2800 -1.7582 -0.1043
 6346TIP3    H240454   5.894   2.474  14.256  1.5113 -2.1800 -0.5665
 6347TIP3   OH240455   2.235   4.389  14.822  0.3049  0.2541 -0.1665
 6347TIP3    H140456   2.327   4.369  14.837 -0.1305 -0.2811  2.2653
 6347TIP3    H240457   2.188   4.319  14.869 -1.3081  2.1576  1.2075
 6348TIP3   OH240458   4.755   3.157   4.968 -0.0269  0.6663  0.0384
 6348TIP3    H140459   4.698   3.216   5.018 -0.6476  0.2377 -0.1473
 6348TIP3    H240460   4.715   3.154   4.881 -0.1362 -0.1973  0.1043
 6349TIP3   OH240461   0.463   5.551  12.055 -0.2987 -0.0613  0.4502
 6349TIP3    H140462   0.482   5.602  11.976  0.9234 -0.3162  0.5640
 6349TIP3    H240463   0.388   5.497  12.031  0.5427 -0.7229 -0.8136
 6350TIP3   OH240464   1.847   3.814  12.000 -0.1325  0.2925  0.0515
 6350TIP3    H140465   1.901   3.869  11.942 -0.5540 -0.9510 -1.5805
 6350TIP3    H240466   1.776   3.872  12.029  1.1330  1.4799  0.9290
 6351TIP3   OH240467   3.119   2.892   1.602  0.0707  0.5724 -0.0688
 6351TIP3    H140468   3.127   2.835   1.679 -1.0953 -0.4689 -0.6861
 6351TIP3    H240469   3.107   2.979   1.638  3.6919  0.8089  0.9178
 6352TIP3   OH240470   6.774   3.582  11.858 -0.5830 -0.5127 -0.4354
 6352TIP3    H140471   6.845   3.644  11.844 -1.0528 -0.1922 -1.4437
 6352TIP3    H240472   6.765   3.579  11.954  1.6273 -1.5472 -0.1899
 6353TIP3   OH240473   4.909   3.298  10.903  0.1935  0.0770 -0.2424
 6353TIP3    H140474   4.953   3.226  10.856  0.4650  0.3262 -0.3717
 6353TIP3    H240475   4.887   3.361  10.834  2.4021  1.4094  0.1638
 6354TIP3   OH240476   4.109   2.560   6.132 -0.5267  0.2609  0.1286
 6354TIP3    H140477   4.036   2.622   6.127 -1.1070 -0.4797 -0.9464
 6354TIP3    H240478   4.081   2.495   6.197 -0.3773  0.5348  0.4697
 6355TIP3   OH240479   5.377   1.700  11.111  0.2897 -0.4201 -0.1611
 6355TIP3    H140480   5.417   1.613  11.113  2.6478  0.6146  0.2119
 6355TIP3    H240481   5.351   1.717  11.201  1.0146 -0.2265  0.0145
 6356TIP3   OH240482   6.689   5.061   5.502 -0.3429 -0.8626  0.0767
 6356TIP3    H140483   6.603   5.089   5.470 -0.0882  1.8876  1.5102
 6356TIP3    H240484   6.686   5.076   5.596  0.4492 -4.5421  0.8697
 6357TIP3   OH240485   4.073   2.493   1.020 -0.3665 -0.2738 -0.7450
 6357TIP3    H140486   4.132   2.556   1.060  1.2410 -1.8712 -0.4441
 6357TIP3    H240487   3.994   2.542   1.001  2.0692  2.9341 -4.2098
 6358TIP3   OH240488   0.539   3.424  12.752  0.4104  0.1133  0.4667
 6358TIP3    H140489   0.623   3.377  12.761  0.8801  0.4547 -1.6476
 6358TIP3    H240490   0.560   3.514  12.778  0.7964  0.2723 -0.3720
 6359TIP3   OH240491   4.604   3.756  15.274  0.1783  0.1049  0.6182
 6359TIP3    H140492   4.536   3.816  15.305 -0.1864 -0.4742  0.9522
 6359TIP3    H240493   4.627   3.703  15.351  1.3083  0.5688  0.6187
 6360TIP3   OH240494   1.463   6.448   2.987 -0.7948  0.0201 -0.3395
 6360TIP3    H140495   1.418   6.533   2.991  0.4183  0.6925 -0.3368
 6360TIP3    H240496   1.529   6.460   2.918 -1.6788 -1.4817 -1.5003
 6361TIP3   OH240497   4.938   5.274   4.821 -0.1111  0.3521  0.7511
 6361TIP3    H140498   4.956   5.201   4.879 -1.7819 -0.9499 -0.2785
 6361TIP3    H240499   4.843   5.276   4.813 -0.1607  2.9157  1.0496
 6362TIP3   OH240500   4.366   0.204  15.769 -0.0480 -0.0775 -0.5726
 6362TIP3    H140501   4.422   0.127  15.761  1.5460  0.7523  1.6461
 6362TIP3    H240502   4.278   0.169  15.784  0.5049 -1.4611 -0.4744
 6363TIP3   OH240503   3.605   2.776   5.365  0.6180  0.0247  0.0056
 6363TIP3    H140504   3.547   2.709   5.402  0.7568 -0.1767 -0.1368
 6363TIP3    H240505   3.592   2.852   5.421  0.9290 -0.3166  0.5486
 6364TIP3   OH240506   6.735   5.283  11.634 -0.8306 -0.6239 -0.1103
 6364TIP3    H140507   6.665   5.340  11.601 -1.1370 -1.1037 -0.3000
 6364TIP3    H240508   6.787   5.262  11.556 -2.1365 -2.5814 -0.5386
 6365TIP3   OH240509   1.770   4.288  10.773  0.3395 -0.1831  0.2054
 6365TIP3    H140510   1.815   4.371  10.784  1.7083 -0.9442  0.5075
 6365TIP3    H240511   1.819   4.243  10.704 -1.0975 -0.2882 -0.8114
 6366TIP3   OH240512   0.915   4.209  15.650 -0.0072  0.3382  0.8184
 6366TIP3    H140513   0.824   4.192  15.675  0.0967 -2.3358 -0.2487
 6366TIP3    H240514   0.910   4.276  15.583 -1.4783 -1.2976 -0.8176
 6367TIP3   OH240515   0.232   0.165  11.112 -0.6308 -0.2538  0.7938
 6367TIP3    H140516   0.175   0.230  11.072 -0.6221  1.1252  2.8251
 6367TIP3    H240517   0.305   0.155  11.051 -1.1870  0.8098 -0.0771
 6368TIP3   OH240518   6.266   6.541   4.050 -0.3458 -0.4246  0.6570
 6368TIP3    H140519   6.218   6.469   4.007 -0.8456 -0.9745  2.0834
 6368TIP3    H240520   6.327   6.572   3.983 -0.8606 -1.4758 -0.3376
 6369TIP3   OH240521   0.001   0.525  11.491  0.5194  0.1127  0.1095
 6369TIP3    H140522  -0.040   0.464  11.430  0.9048 -1.4754  1.3620
 6369TIP3    H240523   0.086   0.486  11.511  1.2750  1.6799  0.0575
 6370TIP3   OH240524   6.217   4.597  14.638  0.1723 -0.2001  0.1503
 6370TIP3    H140525   6.178   4.581  14.724 -1.9089 -0.0691 -0.7322
 6370TIP3    H240526   6.282   4.527  14.628 -0.7904 -1.2565  1.0999
 6371TIP3   OH240527   1.332   2.399  12.200 -0.5346 -0.2585  0.7245
 6371TIP3    H140528   1.389   2.339  12.152 -0.1876  1.2367 -0.7905
 6371TIP3    H240529   1.244   2.380  12.166 -0.3364  0.5464 -0.2611
 6372TIP3   OH240530   3.035   2.607   0.626  0.0077 -0.1849 -0.1283
 6372TIP3    H140531   3.063   2.547   0.695 -0.3069  2.5275  2.5418
 6372TIP3    H240532   3.113   2.657   0.603 -0.4181  0.5357 -0.0203
 6373TIP3   OH240533   1.479   0.927  13.943  0.4399 -0.3123 -0.7819
 6373TIP3    H140534   1.389   0.895  13.951  0.1788  0.3302 -1.0754
 6373TIP3    H240535   1.523   0.897  14.022 -0.4195  0.5965  0.0675
 6374TIP3   OH240536   4.921   3.109   2.863  0.2108  0.7850  0.3931
 6374TIP3    H140537   4.931   3.159   2.782 -1.8371  1.6625  0.6294
 6374TIP3    H240538   4.875   3.169   2.923 -0.7831 -0.7806  1.2639
 6375TIP3   OH240539   2.529   3.622   4.842  0.4841  0.1634 -0.1632
 6375TIP3    H140540   2.456   3.656   4.894  0.1425 -0.1914 -0.4029
 6375TIP3    H240541   2.491   3.604   4.756  0.6116 -0.9689  0.0040
 6376TIP3   OH240542   5.666   0.627   3.545 -0.0159 -0.1007 -0.2424
 6376TIP3    H140543   5.599   0.643   3.478 -1.0424  1.7019  1.1448
 6376TIP3    H240544   5.618   0.593   3.620  0.8910 -0.4560  0.2033
 6377TIP3   OH240545   0.428   1.582   3.601  0.0005  0.0098 -0.2478
 6377TIP3    H140546   0.379   1.649   3.552 -0.1294 -1.2410 -1.9199
 6377TIP3    H240547   0.361   1.534   3.650 -0.2761 -0.5976 -1.1846
 6378TIP3   OH240548   3.030   5.313   5.615  0.0085  0.3515  0.4167
 6378TIP3    H140549   2.951   5.344   5.571  0.3921  1.3566  0.4136
 6378TIP3    H240550   3.029   5.218   5.603 -1.5320  0.2696  0.9687
 6379TIP3   OH240551   3.073   1.048   5.920  0.4072  0.4088  0.0883
 6379TIP3    H140552   3.036   0.989   5.985  0.8757 -0.2617 -0.2522
 6379TIP3    H240553   3.030   1.132   5.937  1.5493  0.6335  2.2095
 6380TIP3   OH240554   0.727   3.355  15.104 -0.3720  0.9682 -0.0565
 6380TIP3    H140555   0.691   3.416  15.040 -1.4490  0.3897 -0.0207
 6380TIP3    H240556   0.659   3.289  15.116  0.5427  0.0616  0.3278
 6381TIP3   OH240557   2.110   4.272   5.291  0.1479  0.0782 -0.4459
 6381TIP3    H140558   2.116   4.309   5.380  1.2212 -0.1628 -0.4078
 6381TIP3    H240559   2.154   4.187   5.297 -0.8119 -0.4807 -0.9434
 6382TIP3   OH240560   3.708   1.163   4.057  0.8285  0.1006 -0.4069
 6382TIP3    H140561   3.735   1.224   4.126 -0.3862 -0.6864  0.7954
 6382TIP3    H240562   3.636   1.207   4.013  0.2571 -0.2631  0.1601
 6383TIP3   OH240563   4.981   0.060  11.342 -0.0968  0.9204 -0.0449
 6383TIP3    H140564   5.066   0.097  11.321  0.2915  0.3485  0.4773
 6383TIP3    H240565   4.957   0.099  11.426  0.5702 -0.3687  0.7893
 6384TIP3   OH240566   0.983   2.566  12.277 -0.3175 -0.2054  0.2358
 6384TIP3    H140567   0.950   2.577  12.366 -1.0192 -0.7881  0.0595
 6384TIP3    H240568   1.057   2.626  12.271 -2.2828  2.3668  0.1576
 6385TIP3   OH240569   3.562   2.493  14.096 -0.3238  0.3699  0.1821
 6385TIP3    H140570   3.541   2.478  14.188 -1.3140  2.0721  0.2861
 6385TIP3    H240571   3.646   2.540  14.099  0.5684 -1.1403  0.0789
 6386TIP3   OH240572   2.732   6.364   4.146  0.5404  0.5873 -0.3316
 6386TIP3    H140573   2.666   6.409   4.093  0.4197  0.9655  0.1429
 6386TIP3    H240574   2.690   6.282   4.171  1.1992 -0.3926 -2.2323
 6387TIP3   OH240575   6.079   6.356  13.012  0.7159  0.5800 -0.4529
 6387TIP3    H140576   6.065   6.377  12.919  0.5947  0.0797 -0.5546
 6387TIP3    H240577   6.088   6.440  13.055  0.1772  0.8386 -0.8311
 6388TIP3   OH240578   4.543   2.230   4.565 -0.0158  0.4063 -0.3189
 6388TIP3    H140579   4.486   2.240   4.641 -1.3258 -0.6937 -1.1150
 6388TIP3    H240580   4.485   2.200   4.495  1.4303 -0.1546 -1.3261
 6389TIP3   OH240581   0.002   3.038   5.913 -0.1482  0.3716 -0.4704
 6389TIP3    H140582   0.040   3.043   6.001  1.7061 -3.8889 -0.8010
 6389TIP3    H240583   0.077   3.048   5.855 -0.3567 -2.3112 -1.3217
 6390TIP3   OH240584   4.280   1.452   2.276  0.0397 -0.4747 -0.2167
 6390TIP3    H140585   4.244   1.374   2.235  0.3478  0.6403 -2.7978
 6390TIP3    H240586   4.203   1.499   2.309 -0.2725 -1.1388  0.0172
 6391TIP3   OH240587   3.931   5.260  15.033 -0.0152 -0.5931  0.1835
 6391TIP3    H140588   3.886   5.252  14.949 -0.1180  1.0770  0.0486
 6391TIP3    H240589   3.877   5.210  15.094 -2.3124  1.5824  0.0994
 6392TIP3   OH240590   5.554   4.056   4.675 -0.5160  0.1526 -0.2197
 6392TIP3    H140591   5.526   4.125   4.735  0.2489  0.9967 -0.8043
 6392TIP3    H240592   5.474   4.008   4.655 -1.2904  1.5680 -0.6891
 6393TIP3   OH240593   0.401   6.767   2.199 -0.2215 -0.7586  0.0123
 6393TIP3    H140594   0.390   6.832   2.268 -1.2671 -4.1253  3.3569
 6393TIP3    H240595   0.312   6.743   2.174  0.1490  0.0017 -2.2729
 6394TIP3   OH240596   6.261   1.106  13.223  0.2683  0.0867  0.4895
 6394TIP3    H140597   6.183   1.055  13.245  1.3028 -2.0448 -0.5475
 6394TIP3    H240598   6.255   1.183  13.279 -2.6893  0.1281  0.2963
 6395TIP3   OH240599   3.305   1.796   1.212  0.0590  0.4270  0.0236
 6395TIP3    H140600   3.213   1.820   1.228 -0.0449  0.3344 -0.4366
 6395TIP3    H240601   3.354   1.869   1.249 -0.1309 -0.2467  1.6904
 6396TIP3   OH240602   2.837   4.162  12.605  0.8529  0.8723 -0.1083
 6396TIP3    H140603   2.804   4.090  12.659  0.1580  0.3756 -1.1694
 6396TIP3    H240604   2.818   4.241  12.657 -0.6155  0.4790  0.0108
 6397TIP3   OH240605   5.605   3.430  12.677 -0.1609 -0.0184  0.4159
 6397TIP3    H140606   5.598   3.343  12.640 -1.5030  0.1623  0.2026
 6397TIP3    H240607   5.697   3.455  12.664  0.4048 -1.6402  1.0848
 6398TIP3   OH240608   0.811   1.955   5.032 -0.2045  0.7861  0.0324
 6398TIP3    H140609   0.735   1.934   5.086 -0.0892 -1.0644 -0.4411
 6398TIP3    H240610   0.781   1.937   4.942  1.0292 -0.8730 -0.0839
 6399TIP3   OH240611   5.081   5.508  13.242 -0.3744 -0.3077  0.1784
 6399TIP3    H140612   5.150   5.443  13.250 -0.1611 -0.0204  0.7607
 6399TIP3    H240613   5.001   5.461  13.264 -0.1897 -0.3227  0.8465
 6400TIP3   OH240614   4.271   0.588  16.275 -0.1565 -0.4535  0.1846
 6400TIP3    H140615   4.192   0.631  16.307  0.4322  0.9887 -0.2375
 6400TIP3    H240616   4.341   0.621  16.332  0.3466 -0.6834 -0.2913
 6401TIP3   OH240617   2.057   4.315  15.148 -0.4456 -0.4948 -0.5605
 6401TIP3    H140618   1.963   4.303  15.129 -0.0827 -0.2723 -2.8122
 6401TIP3    H240619   2.076   4.405  15.120  0.2296 -0.0959  1.0349
 6402TIP3   OH240620   5.628   2.132  14.703  0.2853 -0.6647  0.1351
 6402TIP3    H140621   5.584   2.077  14.768  1.7582 -0.2096  1.5803
 6402TIP3    H240622   5.577   2.119  14.623 -2.3261 -0.3461  1.6178
 6403TIP3   OH240623   3.208   2.088  16.916  0.2102 -0.2076  0.1684
 6403TIP3    H140624   3.222   2.086  17.011  1.3657  0.1484  0.0137
 6403TIP3    H240625   3.117   2.059  16.905 -1.6002  4.1579  1.7099
 6404TIP3   OH240626   4.664   0.102  10.721  0.1114 -0.4745  0.2657
 6404TIP3    H140627   4.676   0.196  10.733  0.5005 -0.2494 -1.5935
 6404TIP3    H240628   4.752   0.066  10.725 -0.1338 -0.9920  2.2955
 6405TIP3   OH240629   4.263   0.529   5.120 -0.1127  0.0535 -0.6186
 6405TIP3    H140630   4.243   0.506   5.211  0.3166  2.3419  0.1248
 6405TIP3    H240631   4.181   0.512   5.072 -1.3440  1.6130  0.8065
 6406TIP3   OH240632   2.976   6.555  14.873 -0.4276  0.0388 -0.2221
 6406TIP3    H140633   2.997   6.491  14.804 -0.1546 -1.4073  1.1518
 6406TIP3    H240634   3.050   6.616  14.872 -0.0125 -0.4573 -0.6368
 6407TIP3   OH240635   4.429   3.196   2.306 -0.6339  0.0817 -0.3145
 6407TIP3    H140636   4.399   3.286   2.291  0.7598  0.4912 -0.7493
 6407TIP3    H240637   4.492   3.203   2.377 -1.5882 -0.7846  0.6613
 6408TIP3   OH240638   4.646   6.351   2.833 -0.0919 -0.0433 -0.1651
 6408TIP3    H140639   4.687   6.281   2.782  1.6563  0.6917  0.1566
 6408TIP3    H240640   4.650   6.320   2.923 -0.2138  0.0475 -0.1289
 6409TIP3   OH240641   5.246   0.788   5.889 -0.2003 -0.1869  0.5093
 6409TIP3    H140642   5.175   0.743   5.843 -0.3011 -1.1440  1.5589
 6409TIP3    H240643   5.205   0.819   5.970  0.2301  0.5570  0.4462
 6410TIP3   OH240644   2.753   1.862   2.468  0.2230  0.0092 -0.2668
 6410TIP3    H140645   2.749   1.946   2.423 -0.3779 -0.6022 -1.4213
 6410TIP3    H240646   2.764   1.798   2.397 -0.2337 -0.9531  0.5048
 6411TIP3   OH240647   3.250   4.913  16.203 -0.3656  0.4609  0.1575
 6411TIP3    H140648   3.329   4.901  16.151 -0.9020  1.7003 -1.0139
 6411TIP3    H240649   3.276   4.972  16.274 -0.3648  1.4003 -0.6037
 6412TIP3   OH240650   2.005   3.563  11.414 -0.1097 -0.2436 -0.0121
 6412TIP3    H140651   1.974   3.525  11.496 -0.7537  1.1541  0.4309
 6412TIP3    H240652   2.014   3.489  11.354  0.2858 -1.2776  1.2899
 6413TIP3   OH240653   2.526   4.704   1.952 -0.0502 -0.2242  0.5918
 6413TIP3    H140654   2.532   4.732   1.860 -0.8212 -0.3682  0.4870
 6413TIP3    H240655   2.528   4.608   1.947 -1.0289 -0.2630  0.6284
 6414TIP3   OH240656   1.515   5.600  10.205 -0.3629  0.1344  0.3658
 6414TIP3    H140657   1.603   5.570  10.182  0.3480  1.3828  1.3339
 6414TIP3    H240658   1.463   5.520  10.212  1.6024 -1.0623  3.4587
 6415TIP3   OH240659   5.414   0.691   4.323  0.0861 -0.1588 -0.1866
 6415TIP3    H140660   5.336   0.660   4.370 -0.8168  1.4813 -0.5083
 6415TIP3    H240661   5.478   0.707   4.393  0.4643 -2.3088  0.0082
 6416TIP3   OH240662   3.791   6.183  12.646  0.0676  0.2275 -0.9920
 6416TIP3    H140663   3.848   6.112  12.615 -0.0226  0.0128 -0.6744
 6416TIP3    H240664   3.735   6.202  12.571 -1.2081 -1.3733 -0.5137
 6417TIP3   OH240665   1.977   4.780   3.090  0.1093 -0.3064 -0.1964
 6417TIP3    H140666   2.029   4.849   3.130  0.5110 -1.2907  1.0375
 6417TIP3    H240667   2.028   4.750   3.015 -0.8441  1.8467 -1.8125
 6418TIP3   OH240668   1.064   5.731   0.541 -1.1496  0.3460  0.4848
 6418TIP3    H140669   0.987   5.779   0.510 -1.2848 -0.9423 -1.3127
 6418TIP3    H240670   1.076   5.761   0.632 -2.1022  2.6030 -0.0740
 6419TIP3   OH240671   4.604   5.712   5.124  0.0613  0.0174  0.0001
 6419TIP3    H140672   4.637   5.676   5.042  3.5818 -0.9148  1.6154
 6419TIP3    H240673   4.615   5.807   5.114  1.5039 -0.1517 -0.2643
 6420TIP3   OH240674   6.687   6.756  12.057  0.5446 -0.0370 -0.0531
 6420TIP3    H140675   6.761   6.803  12.017 -0.2889  0.8413 -0.6059
 6420TIP3    H240676   6.687   6.671  12.013 -0.4045  0.9387 -2.0729
 6421TIP3   OH240677   5.010   4.717  15.961  0.3903 -0.9349  0.5005
 6421TIP3    H140678   4.986   4.776  16.032 -0.5765 -1.9374  1.0413
 6421TIP3    H240679   4.926   4.679  15.932  0.7896 -0.7646 -0.9930
 6422TIP3   OH240680   1.573   2.854  16.383  0.2874  0.0104  0.3533
 6422TIP3    H140681   1.646   2.884  16.438  0.0417  0.9977  0.1664
 6422TIP3    H240682   1.513   2.929  16.380  0.2114 -0.0743 -1.1110
 6423TIP3   OH240683   1.154   3.507  12.863 -0.0646 -0.8529 -0.2296
 6423TIP3    H140684   1.107   3.536  12.942 -0.7951 -1.6343 -0.3711
 6423TIP3    H240685   1.231   3.463  12.897 -0.3388 -1.1202  0.0481
 6424TIP3   OH240686   6.602   5.606   0.657 -0.1759  0.4708  0.2966
 6424TIP3    H140687   6.586   5.560   0.740  0.6422 -0.4384 -0.0268
 6424TIP3    H240688   6.575   5.544   0.590  0.2965  0.7309 -0.1385
 6425TIP3   OH240689   4.923   2.174  11.912  0.2074 -0.3907 -0.4427
 6425TIP3    H140690   4.930   2.079  11.903  2.2012 -0.3124 -0.2482
 6425TIP3    H240691   4.981   2.208  11.844  1.2996  0.6131  0.9436
 6426TIP3   OH240692   4.135   0.403   5.827 -0.1487 -0.3527  0.6019
 6426TIP3    H140693   4.149   0.353   5.907 -0.0615  0.5387  1.1636
 6426TIP3    H240694   4.214   0.457   5.819 -0.0308 -0.6351 -0.2398
 6427TIP3   OH240695   2.588   2.205  10.435 -0.1238 -0.0725 -0.1502
 6427TIP3    H140696   2.625   2.283  10.478 -0.2649 -0.4144  0.6086
 6427TIP3    H240697   2.507   2.236  10.396  0.4757  0.4655 -1.0166
 6428TIP3   OH240698   2.361   1.237   4.925 -0.2016  0.3227  0.0773
 6428TIP3    H140699   2.455   1.236   4.940 -0.3637  1.0223  1.2786
 6428TIP3    H240700   2.336   1.145   4.921  0.4238  0.1314  0.5368
 6429TIP3   OH240701   2.475   3.239   1.989 -0.3553 -0.0443  0.3887
 6429TIP3    H140702   2.470   3.145   2.009  0.9395 -0.1455  0.3014
 6429TIP3    H240703   2.564   3.252   1.956 -0.4567  1.2551  0.5825
 6430TIP3   OH240704   4.103   1.325   6.051 -0.7429 -0.3209 -0.1534
 6430TIP3    H140705   4.177   1.319   6.111 -1.1021  0.5765  0.4036
 6430TIP3    H240706   4.028   1.343   6.108 -1.3153 -0.7538 -0.7516
 6431TIP3   OH240707   3.064   2.334   2.630  0.1781 -0.0942 -0.1477
 6431TIP3    H140708   2.997   2.267   2.646  0.3059 -0.3116 -0.5119
 6431TIP3    H240709   3.027   2.388   2.560  0.7613 -0.7583 -0.9923
 6432TIP3   OH240710   3.927   3.342   0.176  0.3924  0.5478 -0.3032
 6432TIP3    H140711   3.971   3.261   0.198  0.2372  0.6374  0.3837
 6432TIP3    H240712   3.970   3.374   0.097  1.4201  0.5317  0.2395
 6433TIP3   OH240713   6.515   1.386   3.272 -0.1672 -0.6618  0.2422
 6433TIP3    H140714   6.564   1.323   3.326 -1.4066 -1.2024  0.7551
 6433TIP3    H240715   6.463   1.436   3.335  0.4834  0.6303 -0.2021
 6434TIP3   OH240716   0.692   5.033  16.715  0.3881  0.2604  0.2788
 6434TIP3    H140717   0.698   4.958  16.774  0.4428  0.6361  0.7634
 6434TIP3    H240718   0.676   4.995  16.629 -4.6712 -0.2034  1.1144
 6435TIP3   OH240719   5.182   2.565  13.651 -0.1731 -0.2298 -0.0175
 6435TIP3    H140720   5.217   2.496  13.708 -0.6452 -0.4272  0.0418
 6435TIP3    H240721   5.208   2.538  13.562  0.5610  0.0773  0.0981
 6436TIP3   OH240722   5.311   2.814  12.718 -0.1758  0.0676 -0.2626
 6436TIP3    H140723   5.305   2.762  12.638 -3.2102  0.2320 -0.2276
 6436TIP3    H240724   5.342   2.751  12.784 -0.4326 -0.7952 -0.9430
 6437TIP3   OH240725   4.684   3.384  16.362 -0.1468  0.1747  0.1780
 6437TIP3    H140726   4.667   3.414  16.452  1.5778  1.8889 -0.0003
 6437TIP3    H240727   4.780   3.379  16.357 -0.2482 -0.4531 -1.3947
 6438TIP3   OH240728   6.425   4.181   5.029  0.0176 -0.3707  0.3895
 6438TIP3    H140729   6.480   4.207   4.955 -0.9028  1.6174  0.3264
 6438TIP3    H240730   6.364   4.117   4.993 -1.9538  2.2278 -1.3243
 6439TIP3   OH240731   6.220   2.127   5.233  0.0115  0.7011 -0.7916
 6439TIP3    H140732   6.288   2.194   5.233 -0.8240  1.5792 -1.0019
 6439TIP3    H240733   6.265   2.046   5.209  1.2868  0.9048  0.7439
 6440TIP3   OH240734   1.491   1.001   4.572  0.6603  0.3249 -0.1667
 6440TIP3    H140735   1.442   1.005   4.490  1.0307 -0.6874 -0.4471
 6440TIP3    H240736   1.512   1.092   4.592 -1.7272  0.8603  0.2072
 6441TIP3   OH240737   3.551   1.792  15.075 -0.4437 -0.5097  0.1561
 6441TIP3    H140738   3.509   1.711  15.044 -0.0886 -0.6510  0.0426
 6441TIP3    H240739   3.506   1.861  15.027  0.4916 -0.7591 -1.1394
 6442TIP3   OH240740   1.961   0.282   1.415  0.4140 -0.0984  0.1570
 6442TIP3    H140741   2.045   0.271   1.459  0.5561 -0.2597 -0.1459
 6442TIP3    H240742   1.985   0.302   1.324  0.1576  1.8652  0.4852
 6443TIP3   OH240743   1.252   2.649  12.590 -0.7438  0.6845 -0.4576
 6443TIP3    H140744   1.322   2.631  12.526 -1.3502  0.6456 -1.1257
 6443TIP3    H240745   1.298   2.659  12.673 -0.0215 -0.2185 -0.7267
 6444TIP3   OH240746   5.180   4.846  10.685 -0.4566  0.2698  0.4253
 6444TIP3    H140747   5.116   4.848  10.613  0.4913 -0.4422 -0.4575
 6444TIP3    H240748   5.225   4.931  10.680  0.2401 -0.1436 -0.4161
 6445TIP3   OH240749   4.256   5.134  11.940  0.6972 -0.4070 -0.2974
 6445TIP3    H140750   4.247   5.039  11.937  1.7136 -0.5374  0.1398
 6445TIP3    H240751   4.203   5.161  12.015  1.4504 -0.7911  0.3939
 6446TIP3   OH240752   2.778   4.000  11.496 -0.2401  0.3862  0.1777
 6446TIP3    H140753   2.747   3.939  11.429 -3.9527  2.6972 -0.4869
 6446TIP3    H240754   2.739   3.969  11.577  2.5001 -1.1691  1.0293
 6447TIP3   OH240755   1.006   4.342   4.925  0.5250  0.1638  0.0051
 6447TIP3    H140756   0.963   4.397   4.990 -0.2962  1.0168 -1.2070
 6447TIP3    H240757   0.965   4.256   4.935 -0.8186  0.7168 -0.4829
 6448TIP3   OH240758   5.316   2.126  14.596  0.0080  0.3614 -0.5386
 6448TIP3    H140759   5.333   2.220  14.588  0.8172  0.4372  1.4128
 6448TIP3    H240760   5.397   2.085  14.567 -0.5968  0.1972 -2.0856
 6449TIP3   OH240761   2.021   3.271   1.160 -0.0662 -0.4636  0.1355
 6449TIP3    H140762   1.991   3.291   1.248  0.6461 -0.6128  0.4226
 6449TIP3    H240763   1.943   3.242   1.113 -0.6859  0.8152  0.3480
 6450TIP3   OH240764   0.920   2.695  13.929  0.6571  0.5900 -0.0384
 6450TIP3    H140765   0.835   2.657  13.906  0.9881 -1.1510  1.3961
 6450TIP3    H240766   0.949   2.738  13.848  0.7444 -3.2149 -2.2849
 6451TIP3   OH240767   3.352   0.794   1.099  0.2873 -0.3177 -0.2496
 6451TIP3    H140768   3.331   0.886   1.086 -0.9220  0.0681  3.2808
 6451TIP3    H240769   3.291   0.746   1.043  0.2696  0.9771 -1.3760
 6452TIP3   OH240770   0.033   2.686   3.672  0.6003  0.3390  0.0371
 6452TIP3    H140771  -0.006   2.771   3.693  2.2169  1.6952 -1.9912
 6452TIP3    H240772  -0.027   2.622   3.709 -2.0913  2.3118 -0.5992
 6453TIP3   OH240773   1.399   3.988  14.520 -0.1386 -0.2001  0.6192
 6453TIP3    H140774   1.307   4.013  14.510 -0.4092 -1.8172 -1.9411
 6453TIP3    H240775   1.403   3.944  14.605 -1.2656  1.5851  1.6480
 6454TIP3   OH240776   0.833   3.266  10.773 -0.2971  0.3576  0.4902
 6454TIP3    H140777   0.862   3.207  10.704 -0.2663 -2.5286  2.8033
 6454TIP3    H240778   0.913   3.310  10.802 -0.1348  0.7362 -0.4911
 6455TIP3   OH240779   1.908   1.406   4.911  0.3010 -0.1407  0.1515
 6455TIP3    H140780   1.858   1.393   4.992  0.9879  1.5403  0.9125
 6455TIP3    H240781   1.970   1.334   4.909 -0.1577 -0.5657  0.7731
 6456TIP3   OH240782   4.025   6.447   0.888 -0.3700 -0.1605  0.2397
 6456TIP3    H140783   4.053   6.377   0.830  1.1207  0.6702 -0.0844
 6456TIP3    H240784   4.079   6.437   0.967 -0.7648  0.0941  0.5487
 6457TIP3   OH240785   1.058   4.910  16.992 -0.0752  0.1499  0.5784
 6457TIP3    H140786   1.092   4.822  17.011  3.6505  1.3228  0.0134
 6457TIP3    H240787   1.041   4.908  16.898  0.6235  0.2020  0.4452
 6458TIP3   OH240788   5.862   5.738  12.757  0.0222 -0.0057 -0.0444
 6458TIP3    H140789   5.957   5.728  12.765  0.0453 -0.6274 -1.0368
 6458TIP3    H240790   5.829   5.650  12.745 -0.7129  0.1881  0.5029
 6459TIP3   OH240791   0.757   4.195  12.700 -0.0111  0.0432  0.1060
 6459TIP3    H140792   0.738   4.289  12.693 -0.8862  0.1881  3.0580
 6459TIP3    H240793   0.672   4.152  12.691  0.3753 -0.4985 -1.1578
 6460TIP3   OH240794   5.643   5.466   2.652 -0.2331 -0.1396  0.1917
 6460TIP3    H140795   5.607   5.524   2.585  0.1904  1.4915  1.3025
 6460TIP3    H240796   5.713   5.419   2.608  0.0446  0.9071 -0.5197
 6461TIP3   OH240797   4.760   1.829  13.068 -0.9396 -0.0207  0.1956
 6461TIP3    H140798   4.757   1.922  13.049  2.1459  0.1490  0.0494
 6461TIP3    H240799   4.762   1.823  13.163 -0.5929  0.1316  0.2017
 6462TIP3   OH240800   3.851   6.644   2.854  0.5535  0.0355 -0.0253
 6462TIP3    H140801   3.917   6.581   2.881  1.6785  0.0125 -2.5146
 6462TIP3    H240802   3.773   6.592   2.837  1.0907 -0.5293 -0.8232
 6463TIP3   OH240803   3.365   6.039   6.495 -0.3396 -0.5062  0.2826
 6463TIP3    H140804   3.435   6.058   6.557  0.0362 -0.4880 -0.1403
 6463TIP3    H240805   3.404   5.977   6.433 -0.7644 -0.6652  0.1729
 6464TIP3   OH240806   3.447   4.767   0.340 -0.2524 -0.2264 -0.1158
 6464TIP3    H140807   3.442   4.757   0.435 -2.0288 -0.8198 -0.2471
 6464TIP3    H240808   3.405   4.689   0.305 -1.8034  1.0976 -1.3541
 6465TIP3   OH240809   6.206   0.790  12.619 -0.7759  0.2068 -0.2231
 6465TIP3    H140810   6.253   0.872  12.638  1.7862 -0.9770 -1.0352
 6465TIP3    H240811   6.172   0.804  12.530  1.6709 -0.3593 -1.3412
 6466TIP3   OH240812   0.002   3.200  12.082 -0.0587  0.0442  0.2793
 6466TIP3    H140813  -0.062   3.197  12.011 -0.6005 -1.8915  0.8035
 6466TIP3    H240814   0.083   3.167  12.043  0.8848  2.9572 -0.5251
 6467TIP3   OH240815   2.953   0.137  15.078  0.1969  0.3525 -0.0929
 6467TIP3    H140816   2.917   0.137  14.990  1.2609  0.0362 -0.5472
 6467TIP3    H240817   2.878   0.119  15.135 -0.2630 -0.8961 -1.0385
 6468TIP3   OH240818   4.911   0.203  11.577  0.1267  0.1522  0.4734
 6468TIP3    H140819   4.963   0.167  11.648  2.7920  0.9170 -0.9493
 6468TIP3    H240820   4.892   0.293  11.604  1.1723  0.4571  0.2604
 6469TIP3   OH240821   2.628   2.254  15.958 -0.3310  0.4503 -0.6025
 6469TIP3    H140822   2.559   2.290  16.014 -0.1212  0.0565 -0.0833
 6469TIP3    H240823   2.620   2.159  15.967  0.5552  0.4006 -0.1682
 6470TIP3   OH240824   5.425   0.240   4.796  0.0843  0.0314 -0.3787
 6470TIP3    H140825   5.337   0.206   4.783 -0.4728  1.4560 -0.5202
 6470TIP3    H240826   5.467   0.233   4.710  0.6215 -1.9671  0.0117
 6471TIP3   OH240827   1.563   2.913   2.809  0.2294  0.9142  0.1447
 6471TIP3    H140828   1.568   3.007   2.794  0.6427  0.7037 -1.2146
 6471TIP3    H240829   1.551   2.876   2.721 -2.1091 -0.1774  0.8438
 6472TIP3   OH240830   1.473   5.345  17.173  0.1907  0.3000  0.3337
 6472TIP3    H140831   1.506   5.346  17.263  0.7166 -2.6893  0.2978
 6472TIP3    H240832   1.379   5.363  17.181  0.2382  0.0976  1.5024
 6473TIP3   OH240833   5.346   4.177  16.833 -0.2015 -0.0279 -0.3041
 6473TIP3    H140834   5.335   4.125  16.913 -0.5977 -1.4920 -1.2715
 6473TIP3    H240835   5.434   4.213  16.841 -0.8709  1.3344  1.6048
 6474TIP3   OH240836   0.495   6.772   1.245  0.4063  0.6329 -0.1324
 6474TIP3    H140837   0.581   6.760   1.285  0.6810  0.9674 -0.6216
 6474TIP3    H240838   0.496   6.716   1.167  1.1396  2.5665 -1.5821
 6475TIP3   OH240839   6.606   1.498  13.613  0.3082  0.6961 -0.0465
 6475TIP3    H140840   6.563   1.571  13.657 -1.5136  0.1020 -0.7363
 6475TIP3    H240841   6.592   1.423  13.670  3.5920  1.0778  1.4810
 6476TIP3   OH240842   3.459   1.502  15.089 -0.5412  0.3690 -0.4721
 6476TIP3    H140843   3.409   1.450  15.153  0.1577 -0.1063 -0.3005
 6476TIP3    H240844   3.394   1.526  15.023 -0.5815 -2.2916 -1.5471
 6477TIP3   OH240845   4.622   5.968   2.404 -0.2835 -0.2609  0.2072
 6477TIP3    H140846   4.620   6.063   2.390 -0.4155 -0.5415 -2.0134
 6477TIP3    H240847   4.706   5.941   2.366 -1.8988 -1.4522 -2.8693
 6478TIP3   OH240848   2.324   2.289  10.729 -0.9179 -0.0754 -0.2462
 6478TIP3    H140849   2.238   2.331  10.735 -0.2611  1.3474 -0.4204
 6478TIP3    H240850   2.384   2.360  10.710  0.3849 -0.9794  0.3478
 6479TIP3   OH240851   4.487   1.384   0.323  0.0677  0.2530 -0.2005
 6479TIP3    H140852   4.565   1.433   0.297  1.2352  1.6810  4.8118
 6479TIP3    H240853   4.417   1.450   0.328 -0.5216 -0.2792 -1.0349
 6480TIP3   OH240854   4.954   2.144  12.335  0.2803 -0.1098 -0.5207
 6480TIP3    H140855   4.987   2.185  12.256  1.0045  1.5395  0.5981
 6480TIP3    H240856   5.013   2.069  12.349  2.1540  1.4242  0.1580
 6481TIP3   OH240857   1.520   6.784   1.911 -0.6192 -0.0506  0.1123
 6481TIP3    H140858   1.526   6.814   1.821 -1.5628 -1.8571 -0.6079
 6481TIP3    H240859   1.602   6.811   1.952 -0.6299  1.7318 -0.9619
 6482TIP3   OH240860   1.798   1.688  11.428 -0.0698  0.5793 -0.1247
 6482TIP3    H140861   1.717   1.726  11.461 -0.5198  1.6093 -2.2642
 6482TIP3    H240862   1.798   1.599  11.463 -1.0370  1.2288  1.6490
 6483TIP3   OH240863   3.691   2.003   5.214 -0.2102  0.0171 -0.0929
 6483TIP3    H140864   3.670   1.922   5.169  0.7972  0.2129 -0.9690
 6483TIP3    H240865   3.783   1.994   5.240 -0.5573  0.1997  1.3292
 6484TIP3   OH240866   0.880   6.673  15.988 -0.2293  0.2748  0.4172
 6484TIP3    H140867   0.820   6.606  15.955 -1.2885  1.2392  0.3188
 6484TIP3    H240868   0.966   6.631  15.987 -0.5593 -0.4554 -1.4836
 6485TIP3   OH240869   2.970   3.325   0.836 -0.5873 -0.3791 -0.1158
 6485TIP3    H140870   2.956   3.372   0.754 -0.2788  2.8978  1.5666
 6485TIP3    H240871   2.910   3.365   0.899  1.2046 -0.7439  1.9720
 6486TIP3   OH240872   2.214   1.417   5.100  0.4287 -0.4679  0.0032
 6486TIP3    H140873   2.239   1.376   5.017  0.1635 -0.4829 -0.0726
 6486TIP3    H240874   2.170   1.498   5.074 -0.8268 -1.1009  0.0624
 6487TIP3   OH240875   0.834   1.553  13.108  0.6358 -0.7229  0.0091
 6487TIP3    H140876   0.861   1.644  13.117 -0.2092 -0.2391 -1.9292
 6487TIP3    H240877   0.743   1.557  13.079  0.3673 -2.2142  0.5090
 6488TIP3   OH240878   6.486   6.249   5.983 -0.1467 -0.2104  0.1013
 6488TIP3    H140879   6.450   6.285   6.064  0.6955 -0.1572  0.4569
 6488TIP3    H240880   6.534   6.171   6.011  2.4575  1.2821  0.0641
 6489TIP3   OH240881   5.286   6.061  13.902 -0.3594 -0.3898  0.2492
 6489TIP3    H140882   5.291   6.106  13.987 -0.3300 -3.3945  1.9745
 6489TIP3    H240883   5.378   6.049  13.876 -0.3410 -0.4314  0.3338
 6490TIP3   OH240884   0.447   0.003   5.083  0.4315 -0.0811 -0.0503
 6490TIP3    H140885   0.442  -0.089   5.056 -1.4146 -0.3579  1.0402
 6490TIP3    H240886   0.355   0.029   5.095  0.9870  0.9176  2.7836
 6491TIP3   OH240887   3.533   0.080  15.432 -0.2060  0.3530  0.5905
 6491TIP3    H140888   3.593   0.142  15.473 -1.0328  1.9029 -0.4673
 6491TIP3    H240889   3.449   0.096  15.474 -1.3348  2.7391 -2.2737
 6492TIP3   OH240890   2.460   6.669   5.470  0.5441 -0.4615 -0.0281
 6492TIP3    H140891   2.432   6.642   5.382  2.6456 -0.3081 -0.8006
 6492TIP3    H240892   2.455   6.764   5.468 -0.8391 -0.5021  0.5591
 6493TIP3   OH240893   2.995   2.029  11.424  0.3947  0.2548  0.0274
 6493TIP3    H140894   2.978   2.049  11.516 -1.5143 -1.0055  0.0097
 6493TIP3    H240895   2.927   1.966  11.401 -0.1696  1.7105 -2.6903
 6494TIP3   OH240896   0.861   6.118   4.423  0.4658  0.0199  0.3810
 6494TIP3    H140897   0.818   6.053   4.368 -0.5145 -0.0890  1.2417
 6494TIP3    H240898   0.905   6.067   4.491  0.8280  0.1976  0.2822
 6495TIP3   OH240899   0.944   5.664  15.892  0.7580  0.0708 -0.2604
 6495TIP3    H140900   0.869   5.624  15.847  0.2546  0.5250  0.1606
 6495TIP3    H240901   1.010   5.595  15.894 -0.0627 -0.7266  0.3780
 6496TIP3   OH240902   1.442   0.635  15.579  0.4036 -0.4777  0.5422
 6496TIP3    H140903   1.469   0.672  15.662  0.9233  2.4737 -0.8088
 6496TIP3    H240904   1.368   0.690  15.551  1.3009 -0.2617 -1.6612
 6497TIP3   OH240905   6.350   4.839  16.964 -0.5232  0.3424  0.1600
 6497TIP3    H140906   6.399   4.859  17.043  2.0265  1.0199 -1.4734
 6497TIP3    H240907   6.385   4.754  16.934 -0.9666  0.4085 -0.5810
 6498TIP3   OH240908   5.816   4.464   1.753  0.3218 -0.3507  0.2256
 6498TIP3    H140909   5.898   4.416   1.763  0.5529 -0.4744 -1.7203
 6498TIP3    H240910   5.750   4.397   1.737  0.0424 -0.1891  0.6761
 6499TIP3   OH240911   1.968   4.509  10.809 -0.2511  0.2691 -0.0801
 6499TIP3    H140912   1.982   4.431  10.862  1.5037 -0.0489 -0.9637
 6499TIP3    H240913   2.041   4.510  10.747 -3.0693 -0.3232 -3.7148
 6500TIP3   OH240914   4.975   3.861  12.472 -0.5954  0.0410  0.0714
 6500TIP3    H140915   4.950   3.893  12.559  0.5264 -0.5084  0.6153
 6500TIP3    H240916   5.015   3.937  12.430  0.3181 -0.1069  0.6455
 6501TIP3   OH240917   2.407   1.530   2.753 -0.0475 -0.5540  0.0898
 6501TIP3    H140918   2.471   1.564   2.690  0.0097  1.1992  1.0335
 6501TIP3    H240919   2.336   1.594   2.752 -0.8161 -1.3722  0.6118
 6502TIP3   OH240920   1.555   4.899  12.327 -0.0859 -0.3586  0.2529
 6502TIP3    H140921   1.505   4.846  12.388 -0.9381 -0.1432 -0.2310
 6502TIP3    H240922   1.502   4.979  12.316  0.0543 -0.3875 -0.7389
 6503TIP3   OH240923   2.284   6.301  10.713  0.4550  0.4291 -0.2480
 6503TIP3    H140924   2.287   6.272  10.622 -1.0733 -0.0739 -0.1651
 6503TIP3    H240925   2.335   6.235  10.760  1.4855  0.8449 -0.7657
 6504TIP3   OH240926   3.575   2.563  12.776 -0.4111  0.4077  0.3385
 6504TIP3    H140927   3.506   2.630  12.780  0.5107  1.5454 -1.5891
 6504TIP3    H240928   3.655   2.609  12.798  0.1498 -0.2223 -0.3375
 6505TIP3   OH240929   4.010   3.586  15.409  0.5539 -0.0689  0.9957
 6505TIP3    H140930   3.999   3.677  15.382 -1.5915 -0.5143  0.1318
 6505TIP3    H240931   4.071   3.549  15.346  1.0031  0.6289  1.0119
 6506TIP3   OH240932   6.242   0.163   6.436 -0.4121  0.1133  0.1051
 6506TIP3    H140933   6.167   0.179   6.493 -0.5855  0.1779 -0.1388
 6506TIP3    H240934   6.255   0.245   6.389  0.2377  0.3270  0.6339
 6507TIP3   OH240935   1.244   4.819  16.089 -0.1368 -0.4130  0.1573
 6507TIP3    H140936   1.291   4.758  16.032 -0.6073 -0.7797  0.1625
 6507TIP3    H240937   1.285   4.807  16.175  1.1146  0.7058 -0.2418
 6508TIP3   OH240938   6.166   0.043   2.932  0.3371 -0.4036  0.2721
 6508TIP3    H140939   6.255   0.019   2.908  0.1574 -2.0103  1.1260
 6508TIP3    H240940   6.110  -0.009   2.874 -0.0561 -0.0959  0.3666
 6509TIP3   OH240941   1.513   3.282  13.358  0.3195 -0.2002 -0.9676
 6509TIP3    H140942   1.435   3.250  13.313  1.0258 -1.4128 -1.3548
 6509TIP3    H240943   1.557   3.204  13.389 -1.3674  0.5022  4.1773
 6510TIP3   OH240944   3.166   5.773  14.794 -0.7137  0.0743 -0.1445
 6510TIP3    H140945   3.194   5.809  14.878 -0.3834 -0.7093  0.0930
 6510TIP3    H240946   3.133   5.686  14.815 -1.5988  0.2662 -0.6919
 6511TIP3   OH240947   0.169   2.357  15.736  0.3487 -0.3329  0.3615
 6511TIP3    H140948   0.135   2.397  15.816 -2.2076 -0.4562 -0.5505
 6511TIP3    H240949   0.212   2.428  15.689  0.2724  0.1586  1.0227
 6512TIP3   OH240950   0.750   2.729  11.473 -0.2218 -0.9387  0.2395
 6512TIP3    H140951   0.766   2.637  11.450  0.2296 -1.1411  1.2936
 6512TIP3    H240952   0.825   2.753  11.528 -1.4512 -0.6443  1.8631
 6513TIP3   OH240953   5.694   0.622  15.871 -0.0134 -0.3362  0.0858
 6513TIP3    H140954   5.720   0.706  15.908 -1.0768 -0.9469  2.3956
 6513TIP3    H240955   5.606   0.637  15.836  0.6342  0.0029 -1.5059
 6514TIP3   OH240956   3.160   3.611   3.529  0.3205 -0.2308 -0.1791
 6514TIP3    H140957   3.132   3.607   3.437 -0.5304  1.9043 -0.0614
 6514TIP3    H240958   3.255   3.595   3.525  0.3126 -0.0946 -1.4379
 6515TIP3   OH240959   4.229   3.800   0.195 -0.6936  0.7948 -0.0760
 6515TIP3    H140960   4.175   3.833   0.123 -0.7793  1.0245  0.0925
 6515TIP3    H240961   4.274   3.878   0.229  0.0219  0.5499 -0.4459
 6516TIP3   OH240962   2.861   2.468   5.821 -0.0970 -0.4694  0.6575
 6516TIP3    H140963   2.783   2.513   5.852 -0.1802  0.9626 -1.4353
 6516TIP3    H240964   2.834   2.427   5.739  1.1982 -0.4302  0.1906
 6517TIP3   OH240965   6.565   1.518   4.556  0.4706  0.6235 -0.2127
 6517TIP3    H140966   6.603   1.519   4.644  1.0340  0.0313 -0.4423
 6517TIP3    H240967   6.585   1.431   4.522 -2.7965 -0.5198  0.3745
 6518TIP3   OH240968   5.222   2.081  15.843 -0.3545 -0.2142 -0.1330
 6518TIP3    H140969   5.281   2.102  15.915  0.2247 -1.0919 -0.3435
 6518TIP3    H240970   5.277   2.085  15.765 -1.0714  1.1688 -0.6079
 6519TIP3   OH240971   6.678   0.848  15.779 -0.1048 -0.4528  0.1960
 6519TIP3    H140972   6.669   0.794  15.701 -0.5350  1.2228 -0.9689
 6519TIP3    H240973   6.771   0.844  15.801  0.1344 -0.4784 -0.7656
 6520TIP3   OH240974   1.218   0.430  15.798 -0.3333  0.0440  0.2824
 6520TIP3    H140975   1.168   0.348  15.791 -0.2766 -0.0023  0.4029
 6520TIP3    H240976   1.309   0.401  15.811 -0.1147  0.1255 -0.9832
 6521TIP3   OH240977   6.221   0.315  15.918 -0.0797  0.0077 -0.3614
 6521TIP3    H140978   6.173   0.298  15.999 -0.5365  0.3233 -0.5609
 6521TIP3    H240979   6.154   0.318  15.850  0.1819  0.7534 -0.6026
 6522TIP3   OH240980   0.704   0.083   3.766  0.1234  0.0955  0.5610
 6522TIP3    H140981   0.696   0.015   3.699 -0.6850 -1.0447  1.7750
 6522TIP3    H240982   0.693   0.037   3.849 -0.5611  1.7342  1.4277
 6523TIP3   OH240983   1.762   0.868  12.009  0.6490 -0.2520  0.6631
 6523TIP3    H140984   1.780   0.856  11.915  0.7737  1.1355  0.4784
 6523TIP3    H240985   1.711   0.792  12.034 -1.0664  0.2717 -1.0024
 6524TIP3   OH240986   2.004   4.537  16.544 -0.6036 -0.7977 -0.6419
 6524TIP3    H140987   1.968   4.621  16.514 -1.6070 -0.5670  1.0730
 6524TIP3    H240988   2.088   4.561  16.586 -0.9903 -0.5900  0.0392
 6525TIP3   OH240989   3.236   2.707   3.906 -0.1940 -0.0885  0.4679
 6525TIP3    H140990   3.327   2.725   3.883 -0.4344  1.1446  0.3888
 6525TIP3    H240991   3.210   2.637   3.848  0.8578 -0.8297  0.8519
 6526TIP3   OH240992   0.568   0.455   5.410  0.0375 -1.1941 -0.3676
 6526TIP3    H140993   0.631   0.519   5.443 -0.8396 -0.6223  0.2381
 6526TIP3    H240994   0.561   0.475   5.317  0.9553 -1.4503 -0.5026
 6527TIP3   OH240995   3.945   1.650   1.900  0.0448 -0.1986 -0.6643
 6527TIP3    H140996   4.010   1.674   1.834  0.2323 -2.3612 -1.3358
 6527TIP3    H240997   3.978   1.568   1.937 -1.5014 -0.5073  0.1160
 6528TIP3   OH240998   1.378   3.850   3.918  0.1379  0.2432  0.0429
 6528TIP3    H140999   1.460   3.893   3.894  0.4379 -0.3715 -0.0589
 6528TIP3    H241000   1.382   3.841   4.013 -0.2335  1.0481  0.1392
 6529TIP3   OH241001   3.169   5.124  11.360  0.2426 -0.6646 -0.0688
 6529TIP3    H141002   3.234   5.073  11.312  1.2294 -1.5560  2.0713
 6529TIP3    H241003   3.185   5.214  11.333  2.1744 -0.9019  0.1129
 6530TIP3   OH241004   3.734   0.189   5.377  0.9587  0.2465 -0.3987
 6530TIP3    H141005   3.641   0.181   5.355  1.1832 -1.9806 -0.7398
 6530TIP3    H241006   3.736   0.181   5.473  0.5694  3.5528 -0.0139
 6531TIP3   OH241007   1.268   1.936  13.525 -0.1286  0.5850 -0.2523
 6531TIP3    H141008   1.306   1.849  13.511 -1.2600  0.0203  0.0803
 6531TIP3    H241009   1.194   1.940  13.466  1.3444  2.3217 -2.1098
 6532TIP3   OH241010   5.489   2.853  16.205 -0.5527  0.5307 -0.2193
 6532TIP3    H141011   5.443   2.790  16.261 -0.2359  0.9523  0.5223
 6532TIP3    H241012   5.425   2.922  16.189 -0.1038  1.2657  1.0578
 6533TIP3   OH241013   2.406   3.995   2.461 -0.3301  0.0914 -0.1655
 6533TIP3    H141014   2.465   3.924   2.438 -0.1400  0.2588 -0.2027
 6533TIP3    H241015   2.405   4.052   2.384  0.4993  0.7796  0.2956
 6534TIP3   OH241016   0.036   2.434   1.557 -0.1223  0.3942 -0.9225
 6534TIP3    H141017   0.033   2.388   1.641 -3.8373  0.0672 -1.0904
 6534TIP3    H241018   0.019   2.526   1.578 -2.2078  0.1475 -1.3116
 6535TIP3   OH241019   5.831   4.666  14.113  0.1277 -0.1743  0.1378
 6535TIP3    H141020   5.817   4.759  14.132 -0.3573 -0.1423 -0.3636
 6535TIP3    H241021   5.815   4.658  14.019 -1.0342 -0.9823  0.3870
 6536TIP3   OH241022   6.032   4.322   4.491  0.2997 -0.3300 -0.3461
 6536TIP3    H141023   5.939   4.328   4.469  0.0103 -0.9608  0.6214
 6536TIP3    H241024   6.042   4.374   4.570  0.8020 -0.1554 -0.5194
 6537TIP3   OH241025   3.683   6.301   3.375 -0.5054 -0.2920  0.2053
 6537TIP3    H141026   3.772   6.267   3.382  0.1105  0.3594 -2.9882
 6537TIP3    H241027   3.638   6.237   3.320 -1.3950  0.4605  0.0450
 6538TIP3   OH241028   4.107   6.232   0.775 -0.1953 -0.1327  0.0393
 6538TIP3    H141029   4.202   6.217   0.776 -0.2101 -1.1266 -2.9680
 6538TIP3    H241030   4.069   6.145   0.760 -1.2231  0.7662 -3.3413
 6539TIP3   OH241031   6.167   3.792  15.603 -0.1547  0.8134 -0.0566
 6539TIP3    H141032   6.190   3.711  15.647  1.6777  1.9507  1.2107
 6539TIP3    H241033   6.097   3.830  15.657  0.8185  1.3171  0.8811
 6540TIP3   OH241034   3.875   5.242   3.542 -0.3763 -0.0585 -0.4113
 6540TIP3    H141035   3.965   5.267   3.562 -0.5609  0.5276 -0.2996
 6540TIP3    H241036   3.829   5.249   3.626 -1.0042  1.7604 -0.8547
 6541TIP3   OH241037   6.013   1.656   2.822 -0.0152  0.7014  0.0777
 6541TIP3    H141038   6.008   1.574   2.774 -0.1023  0.3999  0.5964
 6541TIP3    H241039   5.934   1.657   2.876  0.8880  0.2419  1.4654
 6542TIP3   OH241040   2.440   4.610  13.027 -0.3292  0.5341 -0.4847
 6542TIP3    H141041   2.360   4.604  13.080  1.2719  0.5773  2.1197
 6542TIP3    H241042   2.489   4.683  13.066  2.1322 -1.1313 -0.2387
 6543TIP3   OH241043   2.073   5.462  15.126 -0.2921 -0.0205  0.0133
 6543TIP3    H141044   2.031   5.413  15.055  0.4323 -1.4906  0.5787
 6543TIP3    H241045   2.023   5.439  15.204  0.2500 -0.1210  0.3351
 6544TIP3   OH241046   5.939   6.224  11.225  0.6327  0.6538  0.0030
 6544TIP3    H141047   5.964   6.157  11.289 -2.1568  0.3761  0.9404
 6544TIP3    H241048   5.869   6.274  11.269  0.4284  2.1149 -1.8786
 6545TIP3   OH241049   0.986   5.192  16.734 -0.2462  0.2327 -0.0530
 6545TIP3    H141050   1.062   5.139  16.709 -0.7916 -0.2007 -0.8321
 6545TIP3    H241051   1.007   5.225  16.821  0.8361  0.1141 -0.2526
 6546TIP3   OH241052   3.423   1.816  12.449  0.1425 -0.2172  0.1713
 6546TIP3    H141053   3.510   1.856  12.458 -0.6298  1.4425  0.4807
 6546TIP3    H241054   3.383   1.824  12.535  0.7647 -3.8203  0.9741
 6547TIP3   OH241055   0.351   1.593  11.139  0.2075 -0.5621 -0.6946
 6547TIP3    H141056   0.262   1.618  11.164 -0.0768  0.7385 -2.8024
 6547TIP3    H241057   0.391   1.563  11.221 -1.1591  1.8027  0.9751
 6548TIP3   OH241058   1.433   6.109   5.915 -0.3420 -0.3085  0.0975
 6548TIP3    H141059   1.382   6.152   5.984 -1.0631 -1.1266  0.0953
 6548TIP3    H241060   1.491   6.049   5.962  0.3560  0.3253  0.0744
 6549TIP3   OH241061   4.177   2.497   1.767  0.1262  0.0469 -0.1402
 6549TIP3    H141062   4.102   2.452   1.728 -0.4051  2.4333 -2.1160
 6549TIP3    H241063   4.246   2.491   1.700 -0.0287  2.1941 -0.5791
 6550TIP3   OH241064   0.692   2.424  16.115 -0.0059  0.5333  0.4643
 6550TIP3    H141065   0.603   2.392  16.132  0.1274 -0.2884 -0.3032
 6550TIP3    H241066   0.697   2.431  16.019  1.4252 -1.4697  0.3336
 6551TIP3   OH241067   4.021   2.918   0.420 -0.4952  0.2920  0.2772
 6551TIP3    H141068   4.090   2.942   0.359  0.2295 -0.6296  0.7176
 6551TIP3    H241069   4.066   2.873   0.492 -1.5011  0.0204  0.7630
 6552TIP3   OH241070   6.783   4.463  13.847  0.1726 -0.6387  0.6581
 6552TIP3    H141071   6.738   4.457  13.931 -2.8121  0.6033 -0.7113
 6552TIP3    H241072   6.781   4.556  13.826  1.5121 -0.8378 -0.4944
 6553TIP3   OH241073   5.350   2.983   0.412  0.0381 -0.1222 -0.2045
 6553TIP3    H141074   5.410   2.909   0.408 -1.4259 -1.3011 -2.8319
 6553TIP3    H241075   5.372   3.035   0.334  2.3352  3.4771  2.4699
 6554TIP3   OH241076   3.650   0.562  13.030 -0.3748 -0.0034  0.5814
 6554TIP3    H141077   3.744   0.578  13.021 -0.3878  0.0612  0.5612
 6554TIP3    H241078   3.644   0.471  13.062 -0.3447 -0.4481 -0.6156
 6555TIP3   OH241079   1.295   4.710  15.592 -0.9041 -0.1793 -0.5993
 6555TIP3    H141080   1.306   4.804  15.572 -1.4014  0.2143  0.8545
 6555TIP3    H241081   1.203   4.701  15.614 -0.2510 -0.3426  2.4020
 6556TIP3   OH241082   1.061   1.733   2.928 -0.0494  0.0208 -0.2390
 6556TIP3    H141083   1.148   1.693   2.920  0.2047  0.6492 -0.6692
 6556TIP3    H241084   1.053   1.790   2.852 -0.1623  1.2502  0.6642
 6557TIP3   OH241085   2.496   4.791  16.833 -0.2911  0.0674  0.1238
 6557TIP3    H141086   2.439   4.741  16.774  0.0868  0.7465 -0.8511
 6557TIP3    H241087   2.550   4.725  16.877 -0.4691 -0.4472 -0.4242
 6558TIP3   OH241088   1.825   2.089   3.099  1.1327  0.6669 -0.0984
 6558TIP3    H141089   1.762   2.117   3.032  1.6687  0.3845 -0.7300
 6558TIP3    H241090   1.771   2.051   3.168  0.5789  0.8659 -0.4180
 6559TIP3   OH241091   6.607   5.134  12.899  0.1368  0.7110  0.5200
 6559TIP3    H141092   6.569   5.050  12.924  3.6612 -0.6364  2.0798
 6559TIP3    H241093   6.552   5.199  12.943 -1.2857 -0.9330  1.2912
 6560TIP3   OH241094   1.298   5.819   1.754 -0.0076 -0.2339  0.3682
 6560TIP3    H141095   1.219   5.858   1.791  0.0126  0.9898 -0.7585
 6560TIP3    H241096   1.343   5.893   1.713  1.0656 -1.1323 -0.1223
 6561TIP3   OH241097   3.807   4.448   0.556  0.4175 -0.1757 -0.0413
 6561TIP3    H141098   3.849   4.445   0.470 -1.1862 -0.1929 -0.8742
 6561TIP3    H241099   3.805   4.357   0.585  2.6486  0.0254  0.9293
 6562TIP3   OH241100   2.259   1.785   6.030 -0.2831  0.3741  0.0665
 6562TIP3    H141101   2.255   1.770   6.125 -0.9628 -1.6493 -0.2468
 6562TIP3    H241102   2.170   1.809   6.005 -0.1634  0.6350 -0.1197
 6563TIP3   OH241103   2.503   1.072  15.006 -0.5059  0.1310 -0.1839
 6563TIP3    H141104   2.510   1.168  15.003 -0.4019  0.1099 -0.5891
 6563TIP3    H241105   2.496   1.045  14.915 -2.2041 -0.1341 -0.0037
 6564TIP3   OH241106   2.028   3.662   3.588 -0.4517 -0.3743  0.3226
 6564TIP3    H141107   2.035   3.659   3.684  0.4685 -0.5861  0.2621
 6564TIP3    H241108   2.118   3.649   3.557 -0.4561  1.3841 -0.5466
 6565TIP3   OH241109   5.736   5.974   5.429  0.6227  0.0341 -0.3882
 6565TIP3    H141110   5.684   5.952   5.507 -0.2680  1.2722 -0.6031
 6565TIP3    H241111   5.825   5.947   5.452  0.7223  1.8331  1.7445
 6566TIP3   OH241112   0.330   6.058  16.580 -0.5287  0.3185  0.1394
 6566TIP3    H141113   0.290   6.057  16.493 -0.8931  0.5811  0.3014
 6566TIP3    H241114   0.333   6.151  16.603  0.1234  0.2940  0.1551
 6567TIP3   OH241115   0.144   4.506  14.594 -0.4672  0.2572  0.5635
 6567TIP3    H141116   0.113   4.417  14.574 -0.0965 -0.3234  2.3743
 6567TIP3    H241117   0.067   4.561  14.581 -1.1893 -0.5909  1.0837
 6568TIP3   OH241118   4.673   5.188  12.990  0.5881  0.2938  0.1719
 6568TIP3    H141119   4.621   5.114  13.021  1.1081 -0.1326  0.0210
 6568TIP3    H241120   4.763   5.166  13.013  0.8863  0.3642 -0.8740
 6569TIP3   OH241121   2.667   0.223  13.349 -0.2839  0.3211 -0.2296
 6569TIP3    H141122   2.684   0.274  13.428  0.4229  0.6305 -0.5767
 6569TIP3    H241123   2.592   0.167  13.373 -0.0945  0.4201  0.6456
 6570TIP3   OH241124   0.899   3.278   1.154  0.1277 -0.4560  0.2030
 6570TIP3    H141125   0.978   3.296   1.205  1.3705  0.8499 -2.0346
 6570TIP3    H241126   0.918   3.195   1.109 -0.4192 -0.9303  0.8363
 6571TIP3   OH241127   4.939   3.483   4.370 -0.7238  0.0076  0.4005
 6571TIP3    H141128   4.945   3.504   4.463 -0.5528  1.2411  0.1209
 6571TIP3    H241129   4.987   3.553   4.325 -1.5041 -0.1140 -0.6730
 6572TIP3   OH241130   1.157   1.455  16.084  0.4040 -0.5295 -0.4057
 6572TIP3    H141131   1.176   1.549  16.080 -0.0588 -0.3569  0.8866
 6572TIP3    H241132   1.080   1.444  16.030 -0.0476 -0.0088  0.1148
 6573TIP3   OH241133   0.448   2.558   3.998  0.1317  0.1841 -0.1457
 6573TIP3    H141134   0.542   2.566   3.985  0.0354  1.2202 -0.2906
 6573TIP3    H241135   0.421   2.486   3.940  0.7004  0.4279 -0.7202
 6574TIP3   OH241136   5.264   2.741  13.253  0.2022  0.4844 -0.1690
 6574TIP3    H141137   5.338   2.759  13.311  0.4966 -2.2736  0.4334
 6574TIP3    H241138   5.301   2.690  13.181 -0.6769  1.4412 -1.3535
 6575TIP3   OH241139   5.565   6.778  12.538  0.5748 -0.3280 -0.0770
 6575TIP3    H141140   5.603   6.742  12.618  0.7105 -0.3584 -0.1537
 6575TIP3    H241141   5.568   6.706  12.474  0.9110 -0.1652 -0.2500
 6576TIP3   OH241142   6.651   6.343   0.106 -0.1098  0.4468  0.6340
 6576TIP3    H141143   6.580   6.331   0.043 -0.1152 -0.5633  0.8246
 6576TIP3    H241144   6.725   6.375   0.053 -0.6558  1.3915  0.4206
 6577TIP3   OH241145   2.119   2.776  13.748 -0.8083 -0.6035  0.1819
 6577TIP3    H141146   2.085   2.731  13.826  0.8987  1.2813  2.1095
 6577TIP3    H241147   2.113   2.869  13.769  1.4088 -0.0857 -1.1691
 6578TIP3   OH241148   5.783   0.441  11.141 -0.1103 -0.0856 -0.1651
 6578TIP3    H141149   5.785   0.536  11.153  0.6001 -0.0018 -0.8647
 6578TIP3    H241150   5.804   0.428  11.049 -0.8256 -0.9010 -0.2225
 6579TIP3   OH241151   0.286   6.182  13.075  0.2249 -0.2879  0.7198
 6579TIP3    H141152   0.234   6.252  13.036 -0.2910 -1.5343 -0.9625
 6579TIP3    H241153   0.235   6.152  13.150 -0.7653 -0.4819 -0.0115
 6580TIP3   OH241154   3.657   2.033   0.266 -0.2482 -0.4202  0.2364
 6580TIP3    H141155   3.681   2.087   0.190  3.1977 -2.0227  0.0082
 6580TIP3    H241156   3.719   2.060   0.334 -2.3198 -0.0655  2.0629
 6581TIP3   OH241157   2.694   0.087  15.633 -0.2985  0.2038 -0.0724
 6581TIP3    H141158   2.630   0.030  15.676 -1.9107  2.0629  0.1323
 6581TIP3    H241159   2.777   0.067  15.676 -0.6344 -2.4523 -0.5186
 6582TIP3   OH241160   5.271   5.092   3.820 -0.1618  0.0003  0.8611
 6582TIP3    H141161   5.343   5.070   3.879 -0.5091 -0.2985  1.1824
 6582TIP3    H241162   5.271   5.022   3.755 -0.1131  0.0371  0.8222
 6583TIP3   OH241163   1.371   1.765   1.742  0.3886 -0.0736  0.1400
 6583TIP3    H141164   1.363   1.836   1.807  0.9243  0.5191 -0.4249
 6583TIP3    H241165   1.457   1.779   1.703 -0.2146  0.0032 -1.1955
 6584TIP3   OH241166   5.425   0.919  15.595 -0.3664 -0.2796  0.2598
 6584TIP3    H141167   5.433   0.860  15.670  0.1350  0.5318  0.8538
 6584TIP3    H241168   5.513   0.925  15.559 -0.4527 -0.0395  0.0846
 6585TIP3   OH241169   4.472   3.105  16.349 -0.4454 -0.0172 -0.5211
 6585TIP3    H141170   4.528   3.073  16.278 -1.5326  0.7264 -1.7685
 6585TIP3    H241171   4.395   3.049  16.346 -0.6774  0.2795 -0.1912
 6586TIP3   OH241172   0.761   2.341   0.780  0.5534  0.6129 -0.5328
 6586TIP3    H141173   0.799   2.399   0.846  0.7949  0.0554 -0.1781
 6586TIP3    H241174   0.706   2.399   0.726  0.1832  1.0362  0.2852
 6587TIP3   OH241175   4.500   3.359   3.078 -0.2637  0.1363  0.4293
 6587TIP3    H141176   4.488   3.439   3.129 -0.8601  0.3361 -0.0035
 6587TIP3    H241177   4.447   3.373   3.000  0.4439 -0.2646 -0.1320
 6588TIP3   OH241178   2.011   3.810   2.727 -0.1814  0.2151 -1.0383
 6588TIP3    H141179   2.097   3.767   2.734  0.2996  1.2416 -0.2200
 6588TIP3    H241180   2.005   3.837   2.636  0.6812  0.7234 -0.9576
 6589TIP3   OH241181   3.569   6.308  13.075 -0.6871 -0.1107 -0.5660
 6589TIP3    H141182   3.531   6.221  13.077 -0.4480 -0.2656 -1.9171
 6589TIP3    H241183   3.663   6.294  13.088 -0.8382  0.1161  0.9529
 6590TIP3   OH241184   6.689   2.031  13.534  0.0629  0.1843  0.3512
 6590TIP3    H141185   6.718   2.122  13.535 -0.4468  0.3454  0.8521
 6590TIP3    H241186   6.595   2.035  13.553 -0.4248 -0.2825 -1.6408
 6591TIP3   OH241187   5.261   2.811   3.568 -0.4754  0.4418 -0.5957
 6591TIP3    H141188   5.349   2.821   3.531  1.0890 -3.1038  1.6658
 6591TIP3    H241189   5.207   2.780   3.495  0.3191  1.6347 -1.7496
 6592TIP3   OH241190   3.682   5.470  11.209  0.1855  0.6943  0.2972
 6592TIP3    H141191   3.652   5.530  11.141  0.9036  1.2435  0.4465
 6592TIP3    H241192   3.732   5.525  11.269  0.7217 -0.0290  0.5310
 6593TIP3   OH241193   6.257   4.782  16.105 -0.3408  0.3984  0.0154
 6593TIP3    H141194   6.170   4.762  16.141  0.1257 -0.4481  0.7128
 6593TIP3    H241195   6.272   4.873  16.127 -1.3768  0.7939 -0.8087
 6594TIP3   OH241196   6.331   3.853  14.108 -0.0640 -0.4675  0.1029
 6594TIP3    H141197   6.402   3.845  14.045  1.1011  0.6480  1.2171
 6594TIP3    H241198   6.287   3.935  14.084 -1.0647 -1.2049 -0.6451
 6595TIP3   OH241199   6.429   6.254   1.350 -0.2753  0.5222 -0.3075
 6595TIP3    H141200   6.357   6.307   1.316 -0.1254  0.2669 -1.0328
 6595TIP3    H241201   6.446   6.189   1.282  0.5688  0.5124 -0.1019
 6596TIP3   OH241202   3.459   1.747   5.083  0.7246 -0.2540 -0.1490
 6596TIP3    H141203   3.535   1.690   5.094 -0.1097 -1.3766 -0.0845
 6596TIP3    H241204   3.384   1.693   5.109  0.0254  1.2661  1.1640
 6597TIP3   OH241205   0.331   1.529   4.467 -0.2195 -0.4786 -0.6063
 6597TIP3    H141206   0.361   1.495   4.382 -1.7489 -0.8587 -1.0201
 6597TIP3    H241207   0.263   1.467   4.494 -0.1309 -0.0461  0.6453
 6598TIP3   OH241208   4.054   1.115  12.496  0.0890  0.0953 -0.1681
 6598TIP3    H141209   4.054   1.043  12.432 -3.1139 -1.3624  1.2362
 6598TIP3    H241210   4.107   1.082  12.569 -0.2789 -0.3071 -0.0780
 6599TIP3   OH241211   2.341   6.651   5.223  0.0631  0.5786 -0.3738
 6599TIP3    H141212   2.266   6.606   5.184  1.2061 -0.7344 -1.1495
 6599TIP3    H241213   2.360   6.722   5.162 -0.0725  0.4545 -0.5623
 6600TIP3   OH241214   5.032   2.476   1.191 -0.0625 -0.0839 -0.0485
 6600TIP3    H141215   4.979   2.454   1.115 -0.7179 -0.6773  0.5713
 6600TIP3    H241216   5.122   2.475   1.159 -0.2939 -0.8380 -0.6950
 6601TIP3   OH241217   3.415   2.025   6.106 -0.1332 -0.6786  0.3530
 6601TIP3    H141218   3.423   2.109   6.151  2.6417 -0.7250  0.1206
 6601TIP3    H241219   3.445   1.961   6.169  3.0132 -0.8324 -1.1243
 6602TIP3   OH241220   5.362   4.380  13.813  0.2138  0.8009 -0.5618
 6602TIP3    H141221   5.309   4.365  13.735  1.5090 -0.3806 -1.2817
 6602TIP3    H241222   5.411   4.460  13.793 -0.2578  1.1116 -0.4882
 6603TIP3   OH241223   2.047   6.577  16.164  0.2949  0.0073 -0.2111
 6603TIP3    H141224   2.058   6.661  16.119  0.4154  0.5078  0.7276
 6603TIP3    H241225   2.135   6.553  16.192  0.2445 -0.3857 -0.3892
 6604TIP3   OH241226   1.160   1.585  12.239 -0.0420  0.4030  0.0987
 6604TIP3    H141227   1.248   1.609  12.268 -0.2024  2.9307 -1.2376
 6604TIP3    H241228   1.174   1.545  12.153 -0.1572  0.0456  0.2439
 6605TIP3   OH241229   3.724   1.814  14.548 -0.2863  0.2814  0.7093
 6605TIP3    H141230   3.638   1.842  14.516  0.6221  1.0385 -1.2375
 6605TIP3    H241231   3.728   1.846  14.638 -2.5462 -0.9591  1.3419
 6606TIP3   OH241232   3.437   3.075   0.048  0.0774  0.3281  0.7022
 6606TIP3    H141233   3.524   3.114   0.059 -0.2979  0.7464  2.5630
 6606TIP3    H241234   3.381   3.149   0.025 -0.5848  0.9873  3.9737
 6607TIP3   OH241235   1.970   6.144   6.102  0.5092  0.2021 -0.0815
 6607TIP3    H141236   2.017   6.223   6.077 -1.5908  1.7229  0.4497
 6607TIP3    H241237   2.029   6.072   6.080  2.9860  1.9499  0.5308
 6608TIP3   OH241238   0.300   4.039   2.140  0.0435  0.3424 -0.0209
 6608TIP3    H141239   0.358   4.006   2.071 -1.4599  0.4121 -1.3804
 6608TIP3    H241240   0.349   4.026   2.221  1.3124 -1.0385 -0.9632
 6609TIP3   OH241241   1.568   0.489  15.283  0.1687  0.0664 -0.5064
 6609TIP3    H141242   1.510   0.555  15.322 -0.0160 -1.4417  2.0396
 6609TIP3    H241243   1.518   0.452  15.211 -1.4175 -0.0773  0.6210
 6610TIP3   OH241244   3.734   3.095   1.296  0.1625  0.6331 -0.2874
 6610TIP3    H141245   3.781   3.061   1.220 -0.1870 -2.3731  0.7272
 6610TIP3    H241246   3.676   3.024   1.323 -1.8731  2.6696  1.0745
 6611TIP3   OH241247   4.702   3.595  13.295 -0.2024 -0.3662  0.5905
 6611TIP3    H141248   4.737   3.557  13.375 -1.5481  0.9599  1.8621
 6611TIP3    H241249   4.687   3.520  13.237 -0.2896 -1.4781  2.0015
 6612TIP3   OH241250   2.746   6.549  15.548 -0.3012  0.2489 -0.4303
 6612TIP3    H141251   2.751   6.623  15.609  0.2665 -0.4187  0.3501
 6612TIP3    H241252   2.714   6.588  15.466 -0.6018  1.2454  0.1416
 6613TIP3   OH241253   3.348   2.546  14.877  0.3645  0.1040 -0.1747
 6613TIP3    H141254   3.317   2.583  14.960  1.9338  0.1568  0.4289
 6613TIP3    H241255   3.436   2.513  14.897 -0.0191 -1.7660 -1.3127
 6614TIP3   OH241256   2.233   0.624  12.248 -0.3761  0.0683  0.3031
 6614TIP3    H141257   2.141   0.650  12.249 -1.0119 -1.7098 -2.0850
 6614TIP3    H241258   2.263   0.639  12.337 -2.8004  1.2615  1.0084
 6615TIP3   OH241259   0.358   2.457  13.862 -0.4784 -0.6724 -0.5555
 6615TIP3    H141260   0.276   2.487  13.823  0.7245 -0.1180 -2.8136
 6615TIP3    H241261   0.347   2.473  13.956 -1.6651  2.6229 -1.1303
 6616TIP3   OH241262   1.830   3.064   5.468  0.2781  0.1372 -0.4961
 6616TIP3    H141263   1.748   3.107   5.493  1.0713  1.2549  0.2106
 6616TIP3    H241264   1.827   2.979   5.513  0.1249  0.7240  0.6186
 6617TIP3   OH241265   2.885   4.186   0.880 -0.0901  0.6412 -0.1922
 6617TIP3    H141266   2.965   4.185   0.827 -0.2681 -0.3261 -0.4710
 6617TIP3    H241267   2.815   4.167   0.817  0.0153 -4.1590  0.7425
 6618TIP3   OH241268   5.870   5.066   1.487 -0.2461  0.4681 -0.0790
 6618TIP3    H141269   5.949   5.074   1.434  0.9249 -0.5669  1.3948
 6618TIP3    H241270   5.901   5.080   1.577 -1.6968 -0.1560  0.5489
 6619TIP3   OH241271   3.313   5.898   5.627  0.4211  0.1852  0.2201
 6619TIP3    H141272   3.365   5.835   5.579  0.9209  0.9647 -0.2872
 6619TIP3    H241273   3.229   5.902   5.580  1.0076  1.1572 -0.8081
 6620TIP3   OH241274   5.393   5.425  11.844  0.3204  0.0107  0.0495
 6620TIP3    H141275   5.463   5.481  11.875 -0.0185  0.9261 -0.8022
 6620TIP3    H241276   5.436   5.363  11.785  0.1119  2.2038 -2.5615
 6621TIP3   OH241277   3.011   2.538  13.680 -0.0705 -0.1091  0.1184
 6621TIP3    H141278   3.009   2.464  13.620 -0.6884 -0.6488  0.7712
 6621TIP3    H241279   2.925   2.536  13.723  0.0657  0.7259  0.4581
 6622TIP3   OH241280   5.766   4.925  14.422 -0.0340  0.1640  0.1707
 6622TIP3    H141281   5.789   4.832  14.418 -0.6425 -0.0802  1.5149
 6622TIP3    H241282   5.749   4.950  14.332  1.4921 -0.6665 -0.3692
 6623TIP3   OH241283   4.210   0.812   5.652 -0.0868 -0.0019  0.1440
 6623TIP3    H141284   4.273   0.845   5.716  0.4882 -2.8521  1.1774
 6623TIP3    H241285   4.200   0.884   5.589  1.7646  1.7075  1.6723
 6624TIP3   OH241286   0.492   6.078   0.953 -0.5791 -0.3962  0.0081
 6624TIP3    H141287   0.418   6.070   0.892 -0.4890 -2.1202  0.0769
 6624TIP3    H241288   0.496   5.993   0.997 -0.1307  0.5341  1.8524
 6625TIP3   OH241289   4.567   4.272   2.647 -1.0197  0.1551  0.2019
 6625TIP3    H141290   4.530   4.358   2.669 -0.5089  0.6842 -0.8889
 6625TIP3    H241291   4.564   4.270   2.551  0.3412 -0.4218  0.1519
 6626TIP3   OH241292   4.624   5.315   0.800 -0.2025 -0.1131  0.2882
 6626TIP3    H141293   4.702   5.371   0.804  0.4406 -1.0394  1.1674
 6626TIP3    H241294   4.657   5.227   0.820 -1.2304 -0.7836 -0.8366
 6627TIP3   OH241295   4.129   0.101   0.306 -0.5428 -0.3410 -0.3057
 6627TIP3    H141296   4.064   0.114   0.375 -0.1994  0.5213 -0.1304
 6627TIP3    H241297   4.186   0.032   0.339 -1.5779 -1.3760 -0.6232
 6628TIP3   OH241298   1.506   2.098   6.662  0.2001  0.2238 -0.1102
 6628TIP3    H141299   1.448   2.118   6.589 -1.2002 -0.3305  0.8139
 6628TIP3    H241300   1.477   2.012   6.694  1.5445 -0.0826  0.3666
 6629TIP3   OH241301   2.260   1.590  13.261 -0.0754  0.4515 -0.3930
 6629TIP3    H141302   2.199   1.541  13.206 -0.6012  0.0832  0.4918
 6629TIP3    H241303   2.304   1.524  13.314 -0.0945  0.8488  0.1305
 6630TIP3   OH241304   2.841   2.871  13.590  0.0459  0.1953 -0.1628
 6630TIP3    H141305   2.878   2.806  13.529  1.2191  1.0842 -0.4404
 6630TIP3    H241306   2.762   2.902  13.547  0.0832 -0.2381 -0.5580
 6631TIP3   OH241307   4.494   4.314   2.375  0.5085 -0.2101  1.4025
 6631TIP3    H141308   4.450   4.388   2.333  2.1217  0.6836  1.2177
 6631TIP3    H241309   4.577   4.305   2.328  0.7105 -1.6265  1.9647
 6632TIP3   OH241310   6.213   5.209  12.504 -1.1161  0.0775  0.3097
 6632TIP3    H141311   6.228   5.304  12.499 -0.4860 -0.0753 -1.3823
 6632TIP3    H241312   6.293   5.175  12.545 -0.5505  0.1162 -0.7364
 6633TIP3   OH241313   2.572   4.824   1.708  0.1624 -0.3141  0.5226
 6633TIP3    H141314   2.557   4.775   1.627  1.2058 -0.3088  0.3091
 6633TIP3    H241315   2.539   4.912   1.690 -0.9328 -0.7032  0.6080
 6634TIP3   OH241316   6.552   4.602   2.334  0.1084 -0.1145  0.0845
 6634TIP3    H141317   6.520   4.640   2.252 -0.4767  1.3361  0.9324
 6634TIP3    H241318   6.622   4.543   2.308 -0.5421 -0.2253 -1.5104
 6635TIP3   OH241319   1.341   3.529   3.426  0.4044 -0.5975 -0.3555
 6635TIP3    H141320   1.415   3.537   3.485 -0.2761  1.5249  0.2944
 6635TIP3    H241321   1.278   3.474   3.473  0.9960 -1.2753 -0.3402
 6636TIP3   OH241322   3.512   6.520   3.473  0.2881  0.8367 -0.1101
 6636TIP3    H141323   3.600   6.484   3.485  0.2650  0.9764  0.5237
 6636TIP3    H241324   3.461   6.448   3.436  0.2798  0.2615  0.9898
 6637TIP3   OH241325   1.903   2.558  15.665  0.2836 -0.0201  0.1473
 6637TIP3    H141326   1.970   2.511  15.615 -0.3985 -0.9589  0.0761
 6637TIP3    H241327   1.943   2.572  15.751  1.5663  1.8440 -0.6925
 6638TIP3   OH241328   1.022   1.519   5.072  0.2520 -0.0049 -0.1436
 6638TIP3    H141329   0.944   1.513   5.017  1.8221  1.1427 -2.6490
 6638TIP3    H241330   1.020   1.439   5.125 -1.3176 -1.2185 -1.9247
 6639TIP3   OH241331   1.373   4.170   0.119  0.2019  0.2885 -0.0561
 6639TIP3    H141332   1.428   4.175   0.041 -0.9948  1.3791 -0.8754
 6639TIP3    H241333   1.412   4.233   0.180  0.4659  0.2883 -0.2214
 6640TIP3   OH241334   3.120   1.568  15.771  0.3022  0.1124  0.2240
 6640TIP3    H141335   3.146   1.613  15.690 -0.5310  0.0879 -0.0609
 6640TIP3    H241336   3.161   1.620  15.840 -0.8390  1.4824 -0.0856
 6641TIP3   OH241337   1.570   5.447  11.186  0.1284  0.0311  0.0431
 6641TIP3    H141338   1.595   5.435  11.094 -1.2896  1.9286 -0.6505
 6641TIP3    H241339   1.620   5.524  11.215 -2.3209  1.9022 -0.4133
 6642TIP3   OH241340   3.949   1.930   5.326  0.2231  0.2039 -0.1547
 6642TIP3    H141341   3.985   1.848   5.293 -0.6811 -0.9209  1.5473
 6642TIP3    H241342   4.022   1.969   5.376  0.8871  0.8417 -1.5652
 6643TIP3   OH241343   6.348   2.063   4.762  0.6013  1.0321  0.5434
 6643TIP3    H141344   6.331   1.981   4.715  2.2519  0.5702  0.6943
 6643TIP3    H241345   6.344   2.130   4.694  2.9157  0.3770 -0.3250
 6644TIP3   OH241346   5.225   6.216  14.681 -0.0451  0.6488 -0.3312
 6644TIP3    H141347   5.140   6.227  14.638 -0.0195  0.7453 -0.3585
 6644TIP3    H241348   5.266   6.144  14.634 -0.2940  0.3131 -0.0285
 6645TIP3   OH241349   6.460   0.563  14.035  0.0711  0.1487  0.2972
 6645TIP3    H141350   6.499   0.590  14.118 -0.9815 -0.3097  0.9671
 6645TIP3    H241351   6.514   0.605  13.968  0.9836  0.4688  1.2056
 6646TIP3   OH241352   5.918   2.403  16.684 -0.4945 -0.5316 -0.2663
 6646TIP3    H141353   5.984   2.336  16.702  1.0315  0.9666 -0.0681
 6646TIP3    H241354   5.907   2.448  16.768  0.9055  1.4953 -1.1052
 6647TIP3   OH241355   3.314   0.514   3.173 -0.0502  0.3539  0.0346
 6647TIP3    H141356   3.357   0.488   3.092  0.1815 -0.4667  0.4066
 6647TIP3    H241357   3.350   0.455   3.239  0.6129  1.7389  0.9578
 6648TIP3   OH241358   3.638   0.658  12.187 -0.2766 -0.2621  0.2377
 6648TIP3    H141359   3.568   0.663  12.251 -0.4645  0.4676 -0.0205
 6648TIP3    H241360   3.614   0.721  12.119  0.0661 -0.8072 -0.4050
 6649TIP3   OH241361   0.131   0.250  15.469  0.5575 -0.3702  1.1368
 6649TIP3    H141362   0.163   0.313  15.533 -0.5640 -1.3109  2.6764
 6649TIP3    H241363   0.201   0.184  15.463  1.6843  0.8767 -0.3963
 6650TIP3   OH241364   1.058   1.743   6.442 -0.1059  0.0815  0.0598
 6650TIP3    H141365   1.053   1.657   6.401 -1.6098  0.8341 -1.4278
 6650TIP3    H241366   1.098   1.800   6.376  0.8631  0.5625  1.0188
 6651TIP3   OH241367   0.076   3.896  11.346 -0.3069  0.0810  0.4406
 6651TIP3    H141368   0.100   3.989  11.343  0.6061 -0.1561 -0.7434
 6651TIP3    H241369   0.000   3.892  11.404  0.6998  1.3208  1.9341
 6652TIP3   OH241370   4.276   1.331  15.628  0.4366  0.2697 -0.0564
 6652TIP3    H141371   4.269   1.420  15.593  0.0677  0.7654  1.2362
 6652TIP3    H241372   4.322   1.282  15.559 -0.6408  1.0901 -1.4233
 6653TIP3   OH241373   3.807   2.473  15.578 -0.3441  0.2008  0.1557
 6653TIP3    H141374   3.785   2.556  15.622 -1.6683  0.8718 -1.6260
 6653TIP3    H241375   3.744   2.411  15.613  0.0890  0.1457  0.8596
 6654TIP3   OH241376   4.848   5.009  11.486 -0.2716  0.8020  0.0511
 6654TIP3    H141377   4.893   4.982  11.566 -0.6589 -0.1360 -0.0270
 6654TIP3    H241378   4.857   5.104  11.483  0.7538  0.7342  0.5995
 6655TIP3   OH241379   2.790   4.719   0.038 -0.4236  0.4452 -0.0453
 6655TIP3    H141380   2.729   4.751  -0.028  0.8483  2.1564 -0.4866
 6655TIP3    H241381   2.803   4.794   0.097  0.2791 -0.2797  0.7574
 6656TIP3   OH241382   0.235   2.240   0.325  0.1765  0.0795 -0.2244
 6656TIP3    H141383   0.294   2.266   0.254  1.1939 -2.1626 -0.2634
 6656TIP3    H241384   0.197   2.157   0.295 -1.7300  0.6249  0.5545
 6657TIP3   OH241385   3.049   5.341   5.190 -0.0601  0.4725  0.0041
 6657TIP3    H141386   2.989   5.407   5.222 -0.3632 -0.0362  0.4980
 6657TIP3    H241387   3.006   5.304   5.113 -0.2647  0.2760  0.2148
 6658TIP3   OH241388   0.346   3.795  12.997 -0.4415  0.3271  0.6494
 6658TIP3    H141389   0.404   3.872  12.996 -0.9881  0.7518 -1.1470
 6658TIP3    H241390   0.398   3.725  12.959 -0.4039  0.1599  1.0072
 6659TIP3   OH241391   3.225   4.222  13.476 -1.3626 -0.4788  0.1411
 6659TIP3    H141392   3.188   4.287  13.536 -1.4381  0.1588 -0.5888
 6659TIP3    H241393   3.155   4.205  13.413 -0.5742  0.4298 -1.0110
 6660TIP3   OH241394   2.455   5.684  12.297 -0.0959  0.9457  0.8265
 6660TIP3    H141395   2.523   5.751  12.305  1.1301 -0.4064  2.8601
 6660TIP3    H241396   2.373   5.731  12.312  0.6220  2.1812  0.9872
 6661TIP3   OH241397   0.220   4.241   1.990 -0.2873  0.1846 -0.2800
 6661TIP3    H141398   0.249   4.301   2.058  0.1361  1.3214 -1.4161
 6661TIP3    H241399   0.238   4.154   2.025  2.1791  0.7671  0.1285
 6662TIP3   OH241400   2.691   2.221  16.258 -0.1264  0.3128  0.5315
 6662TIP3    H141401   2.753   2.154  16.231  0.5842  0.3933  1.8677
 6662TIP3    H241402   2.735   2.304  16.240 -0.8803  0.4439 -0.8352
 6663TIP3   OH241403   2.970   0.474  15.886  0.2906  0.6118 -0.7796
 6663TIP3    H141404   2.922   0.393  15.905  1.9570 -0.4254 -0.7724
 6663TIP3    H241405   2.962   0.485  15.792 -2.6099  2.2554 -0.4570
 6664TIP3   OH241406   6.768   2.390   5.894  0.9503 -0.3139  0.0075
 6664TIP3    H141407   6.698   2.366   5.956  1.3805 -1.4076  0.0958
 6664TIP3    H241408   6.849   2.378   5.944  1.2348  0.3039 -0.2974
 6665TIP3   OH241409   0.037   0.534   5.020  0.0527  0.3224  0.2017
 6665TIP3    H141410  -0.019   0.527   5.097 -0.1086 -0.5002  0.0165
 6665TIP3    H241411  -0.007   0.482   4.953  1.3827 -0.9439  0.2539
 6666TIP3   OH241412   6.594   6.650  12.869 -0.1358 -0.0181  0.3808
 6666TIP3    H141413   6.512   6.631  12.915  1.2853 -1.1113  2.6238
 6666TIP3    H241414   6.648   6.572  12.883  1.9666  1.4007  0.5870
 6667TIP3   OH241415   2.594   4.450   1.927  0.3040 -0.0731  0.1571
 6667TIP3    H141416   2.542   4.392   1.871 -1.8646  0.5577  1.4068
 6667TIP3    H241417   2.682   4.413   1.923 -0.1862 -1.2098 -2.0512
 6668TIP3   OH241418   1.267   6.496  15.134  0.4680 -0.0056 -0.0016
 6668TIP3    H141419   1.210   6.435  15.087  0.2344 -0.3858  0.7547
 6668TIP3    H241420   1.355   6.476  15.102  0.0448  1.9127 -2.6416
 6669TIP3   OH241421   5.411   5.163   5.442  0.1351 -0.7250  0.6644
 6669TIP3    H141422   5.418   5.165   5.538 -2.1366 -0.2003  0.8846
 6669TIP3    H241423   5.445   5.247   5.414 -0.1819 -0.4368  1.1195
 6670TIP3   OH241424   2.681   4.406  10.803  0.3352  0.4602 -0.0976
 6670TIP3    H141425   2.622   4.363  10.741  0.2326  1.3829 -0.6601
 6670TIP3    H241426   2.769   4.383  10.773  0.2881 -0.6128  0.5234
 6671TIP3   OH241427   2.714   0.709  15.393 -0.5106  0.3185 -0.2525
 6671TIP3    H141428   2.619   0.727  15.394 -0.3894  1.5734  2.8300
 6671TIP3    H241429   2.753   0.793  15.419  1.6293  0.1986 -2.7484
 6672TIP3   OH241430   2.901   0.540  14.252 -0.3775 -0.3056 -0.1223
 6672TIP3    H141431   2.913   0.607  14.185 -0.8809 -0.1968 -0.1090
 6672TIP3    H241432   2.807   0.522  14.252 -0.1392 -1.6191 -0.7031
 6673TIP3   OH241433   0.721   0.721   1.472 -0.3013 -0.8550 -0.3949
 6673TIP3    H141434   0.635   0.762   1.479 -0.7157 -1.6953 -0.4132
 6673TIP3    H241435   0.784   0.792   1.488 -1.0119 -0.6221  1.5872
 6674TIP3   OH241436   0.644   5.347  15.266  0.6127  0.2579  0.0981
 6674TIP3    H141437   0.691   5.271  15.302 -1.3501 -0.5283  1.1392
 6674TIP3    H241438   0.647   5.412  15.335 -0.2249  0.0145  0.3761
 6675TIP3   OH241439   1.860   3.508   2.883 -0.2126  0.3057 -0.1536
 6675TIP3    H141440   1.805   3.445   2.928  1.0416  0.1131  1.1844
 6675TIP3    H241441   1.868   3.582   2.944  1.7091 -0.0608  0.1176
 6676TIP3   OH241442   1.073   1.239   2.426  0.0297  0.1376  0.2147
 6676TIP3    H141443   1.098   1.154   2.464  0.9208 -1.1031 -2.7849
 6676TIP3    H241444   1.155   1.275   2.393 -0.8533  0.1436 -2.1783
 6677TIP3   OH241445   0.273   0.276  15.048  0.3436 -0.7496  0.5975
 6677TIP3    H141446   0.229   0.201  15.088  1.7069 -1.7335  0.3057
 6677TIP3    H241447   0.347   0.294  15.105  0.8723 -0.5746 -0.1383
 6678TIP3   OH241448   3.205   1.194  14.148  0.4731 -0.5286  0.2954
 6678TIP3    H141449   3.183   1.215  14.057  4.2625  0.0996 -0.6463
 6678TIP3    H241450   3.244   1.275  14.182  0.0471 -1.0673  2.1950
 6679TIP3   OH241451   3.095   0.610  10.877  0.2437  0.4423  0.7157
 6679TIP3    H141452   3.166   0.651  10.928  0.4433  0.4878  0.4038
 6679TIP3    H241453   3.093   0.520  10.908  1.2060  0.1307 -0.0730
 6680TIP3   OH241454   2.684   5.359   4.969 -0.1937  0.6529 -0.1083
 6680TIP3    H141455   2.649   5.412   5.040 -1.6153 -1.9930  1.2873
 6680TIP3    H241456   2.738   5.293   5.012 -0.3612 -0.4825 -1.5604
 6681TIP3   OH241457   2.211   1.746   1.544 -0.0997  0.2418 -0.2754
 6681TIP3    H141458   2.197   1.839   1.525  1.3977  0.5423 -0.0662
 6681TIP3    H241459   2.283   1.746   1.607 -0.9528 -1.0105  0.7385
 6682TIP3   OH241460   0.786   3.265   0.715  0.3954 -0.3952  0.4526
 6682TIP3    H141461   0.810   3.332   0.778 -0.5677  0.3475  0.0647
 6682TIP3    H241462   0.801   3.305   0.629 -0.7473 -0.4353  0.2150
 6683TIP3   OH241463   1.519   5.011   1.037  0.5784 -0.0792  0.5032
 6683TIP3    H141464   1.504   4.919   1.014 -0.2740 -0.6568  3.0394
 6683TIP3    H241465   1.613   5.024   1.026  0.2696 -0.0458 -3.6160
 6684TIP3   OH241466   1.515   0.566   2.563  0.5438 -0.3427  0.2293
 6684TIP3    H141467   1.485   0.567   2.654  0.5850  0.3723  0.2381
 6684TIP3    H241468   1.438   0.590   2.512  1.1437  1.9396  0.2840
 6685TIP3   OH241469   3.657   0.857   0.491  0.4168 -0.1843  0.3095
 6685TIP3    H141470   3.714   0.783   0.469  2.5526  1.7394 -1.0797
 6685TIP3    H241471   3.701   0.899   0.565 -1.1557 -0.6040  1.5534
 6686TIP3   OH241472   2.883   3.417  14.524 -0.3741  0.2558  0.7600
 6686TIP3    H141473   2.824   3.448  14.456 -1.2336  4.5912  3.1078
 6686TIP3    H241474   2.826   3.394  14.598  0.5851  2.7592  2.4311
 6687TIP3   OH241475   3.170   2.265  12.355 -0.4270  0.1777 -0.3891
 6687TIP3    H141476   3.146   2.281  12.264  0.1741 -2.5291 -1.0944
 6687TIP3    H241477   3.090   2.284  12.404 -0.9517  1.0431 -1.5279
 6688TIP3   OH241478   3.086   4.148  13.241  0.3303 -0.6191  0.0578
 6688TIP3    H141479   3.100   4.075  13.180  1.7968  0.3204 -0.8035
 6688TIP3    H241480   2.992   4.163  13.238  0.2893 -0.8967 -1.6756
 6689TIP3   OH241481   5.208   2.159   2.861  0.0892 -0.2453 -0.2155
 6689TIP3    H141482   5.294   2.138   2.897 -0.3407 -1.0752  0.3587
 6689TIP3    H241483   5.206   2.116   2.776  0.0856 -0.5975 -0.0406
 6690TIP3   OH241484   6.050   4.964  11.489 -0.1028 -0.0156  0.1015
 6690TIP3    H141485   6.117   4.959  11.421  0.6374  2.3430  0.5627
 6690TIP3    H241486   6.099   4.960  11.571 -0.5482  1.3658  0.4507
 6691TIP3   OH241487   2.519   0.390  16.681  0.5959 -0.0024  0.5943
 6691TIP3    H141488   2.607   0.376  16.645  0.4937 -0.5505  0.5487
 6691TIP3    H241489   2.497   0.306  16.722 -0.5036 -0.3525 -0.6541
 6692TIP3   OH241490   2.602   4.764  16.082 -0.1626  0.0757  0.2581
 6692TIP3    H141491   2.568   4.701  16.019 -0.2363  0.6882 -0.3251
 6692TIP3    H241492   2.641   4.710  16.151  0.6965 -0.6149 -0.7317
 6693TIP3   OH241493   3.686   0.137  11.063  0.0719  0.1860  0.0378
 6693TIP3    H141494   3.752   0.068  11.075  0.6629  0.8285  0.6574
 6693TIP3    H241495   3.724   0.195  10.997 -0.7439 -0.4388 -1.0147
 6694TIP3   OH241496   0.790   0.189   2.780  0.2792 -0.0027 -0.3364
 6694TIP3    H141497   0.795   0.149   2.867  1.2259 -1.1993 -0.9166
 6694TIP3    H241498   0.719   0.252   2.788  2.0902  1.9326  2.0849
 6695TIP3   OH241499   3.837   1.260  12.454  0.3320  0.0166 -0.1539
 6695TIP3    H141500   3.910   1.199  12.465  0.7579  0.7347  1.1168
 6695TIP3    H241501   3.759   1.204  12.460  0.7252 -0.4857  0.4268
 6696TIP3   OH241502   3.818   1.142   1.847 -0.1084  0.4434 -0.1853
 6696TIP3    H141503   3.825   1.220   1.792  0.4002 -0.0145 -0.7803
 6696TIP3    H241504   3.907   1.127   1.879 -0.2932  0.3744  0.3210
 6697TIP3   OH241505   5.539   4.467  13.224  0.1432  0.4918  0.2189
 6697TIP3    H141506   5.448   4.497  13.223 -0.7203 -1.8625 -0.7182
 6697TIP3    H241507   5.539   4.392  13.283  1.3446  0.1207 -0.2201
 6698TIP3   OH241508   0.369   2.463  11.428 -0.0087 -0.6577 -0.5261
 6698TIP3    H141509   0.280   2.459  11.462  0.2872  1.1948  0.6186
 6698TIP3    H241510   0.361   2.510  11.345  0.1423  2.0072  0.8687
 6699TIP3   OH241511   0.757   6.694  13.689 -0.5140  0.0698 -0.0546
 6699TIP3    H141512   0.666   6.717  13.711 -0.0136  0.3528  1.8442
 6699TIP3    H241513   0.797   6.777  13.664 -0.2991  0.2727  0.9329
 6700TIP3   OH241514   5.244   4.436   6.280  0.5703 -0.4511 -0.0682
 6700TIP3    H141515   5.191   4.398   6.210  0.7129 -1.2187  0.2327
 6700TIP3    H241516   5.268   4.523   6.247 -0.1755 -0.4172 -0.5556
 6701TIP3   OH241517   0.098   6.363  14.022 -0.4691 -0.7230 -0.0206
 6701TIP3    H141518   0.005   6.376  14.040 -0.7345  0.6339 -2.0869
 6701TIP3    H241519   0.107   6.379  13.928  1.8100 -1.1795  0.0644
 6702TIP3   OH241520   3.984   0.121   2.177 -0.0632  0.1035  0.6163
 6702TIP3    H141521   3.921   0.191   2.158 -1.4175 -0.9865  0.9181
 6702TIP3    H241522   3.990   0.120   2.272  0.9118  0.5972  0.5731
 6703TIP3   OH241523   5.138   6.272  13.345 -0.3747  0.0743 -0.1427
 6703TIP3    H141524   5.164   6.181  13.355  3.0009  1.0592  1.4891
 6703TIP3    H241525   5.202   6.321  13.396 -1.4060  3.4643 -1.7962
 6704TIP3   OH241526   1.301   6.495   2.677 -0.1942  0.0613  0.3970
 6704TIP3    H141527   1.321   6.575   2.725 -0.0638 -0.0852  0.5891
 6704TIP3    H241528   1.336   6.425   2.732 -1.9185 -0.2598  1.1319
 6705TIP3   OH241529   2.350   6.008  16.926 -0.2068  0.0725  0.3637
 6705TIP3    H141530   2.296   6.086  16.914 -0.4756 -0.0818  0.5396
 6705TIP3    H241531   2.335   5.983  17.017  1.1397  0.7455  0.7855
 6706TIP3   OH241532   0.773   1.163  15.441  0.3389  0.9814 -0.5458
 6706TIP3    H141533   0.792   1.190  15.351  0.8046  0.1784 -0.6970
 6706TIP3    H241534   0.719   1.234  15.476  2.7245  2.8810 -0.4207
 6707TIP3   OH241535   4.508   0.266  16.061 -0.3923 -0.2531 -0.1450
 6707TIP3    H141536   4.420   0.237  16.087 -0.0179 -1.0371  0.2569
 6707TIP3    H241537   4.541   0.197  16.004  0.2798 -0.3373  0.3401
 6708TIP3   OH241538   4.425   5.234   4.691 -0.0552  0.3203 -0.2947
 6708TIP3    H141539   4.418   5.310   4.633  4.4041  0.1152 -1.4191
 6708TIP3    H241540   4.375   5.165   4.646 -1.4260  1.6357 -0.8867
 6709TIP3   OH241541   3.399   3.727  11.913 -0.5658 -0.3903 -0.2559
 6709TIP3    H141542   3.425   3.752  12.002 -2.4529 -0.6363  0.4133
 6709TIP3    H241543   3.477   3.743  11.860  0.1443  1.2311  1.1743
 6710TIP3   OH241544   4.937   0.455   1.941 -0.5360  0.6585  0.0387
 6710TIP3    H141545   4.957   0.428   1.851 -2.4619 -1.1049  0.0515
 6710TIP3    H241546   4.961   0.379   1.994  1.3691  1.9834  1.1914
 6711TIP3   OH241547   2.628   4.000   4.161  0.3316 -0.0917 -0.0980
 6711TIP3    H141548   2.588   3.921   4.126  0.8513 -0.1732 -0.5233
 6711TIP3    H241549   2.619   3.992   4.256  0.7926 -0.8792 -0.1153
 6712TIP3   OH241550   6.645   5.428   5.517 -0.2177 -0.4033 -0.1893
 6712TIP3    H141551   6.662   5.517   5.549 -0.7975 -0.2380 -0.3338
 6712TIP3    H241552   6.605   5.440   5.431 -3.3403 -0.6600  1.0968
 6713TIP3   OH241553   4.881   4.959   2.495  0.2441 -0.1777 -0.2090
 6713TIP3    H141554   4.967   4.926   2.469  0.1609 -0.2451 -0.3963
 6713TIP3    H241555   4.896   4.998   2.581  0.2685 -1.0306  0.1788
 6714TIP3   OH241556   4.840   6.422   5.974 -0.0395  0.0940  0.3597
 6714TIP3    H141557   4.807   6.370   5.901  0.4504  1.3366 -0.7844
 6714TIP3    H241558   4.862   6.357   6.041  2.0350 -1.3875 -1.5661
 6715TIP3   OH241559   3.568   5.035   0.215  0.4455  0.4289  0.2431
 6715TIP3    H141560   3.553   4.963   0.277  0.1559 -0.1243 -0.4586
 6715TIP3    H241561   3.596   5.108   0.270  1.1577 -0.3420  0.9266
 6716TIP3   OH241562   6.156   5.740  11.866 -0.3455 -0.4996  0.2221
 6716TIP3    H141563   6.072   5.697  11.850 -0.9267  0.5044  0.5481
 6716TIP3    H241564   6.186   5.703  11.949 -0.7323 -0.4381  0.3890
 6717TIP3   OH241565   1.345   4.091   1.819 -0.0494  0.1407  0.1749
 6717TIP3    H141566   1.270   4.151   1.816  0.0115  0.2749  1.0870
 6717TIP3    H241567   1.408   4.135   1.875  2.1416  1.6262 -3.1349
 6718TIP3   OH241568   2.415   5.446   0.445 -0.6450  0.5497  0.3747
 6718TIP3    H141569   2.324   5.430   0.422 -0.7531  2.5722 -0.8287
 6718TIP3    H241570   2.454   5.484   0.366  1.6897 -1.6282  0.3119
 6719TIP3   OH241571   4.019   4.059   3.273 -0.6829  0.1017 -0.0142
 6719TIP3    H141572   3.929   4.090   3.264 -0.7068 -0.1751 -0.8348
 6719TIP3    H241573   4.011   3.966   3.291 -0.5551 -0.6088 -3.1464
 6720TIP3   OH241574   2.680   4.184   0.190  0.0515  0.0019 -0.2560
 6720TIP3    H141575   2.737   4.109   0.206  1.2993  0.9406 -0.1290
 6720TIP3    H241576   2.733   4.243   0.137  0.6601  2.5478  2.8395
 6721TIP3   OH241577   2.430   0.173  14.839  0.6834 -0.6109  0.0944
 6721TIP3    H141578   2.477   0.112  14.896  0.9894 -1.7127 -1.2740
 6721TIP3    H241579   2.447   0.140  14.751 -0.8847  0.2467 -0.5583
 6722TIP3   OH241580   6.446   1.661   0.709 -0.2268  0.6956  0.7147
 6722TIP3    H141581   6.533   1.620   0.706 -0.0457  1.1254 -0.2023
 6722TIP3    H241582   6.386   1.588   0.725  0.0264 -0.0863 -1.5256
 6723TIP3   OH241583   3.406   0.546  16.233  0.1371 -0.3140  0.9515
 6723TIP3    H141584   3.444   0.546  16.321 -0.8510 -0.2169  1.3881
 6723TIP3    H241585   3.413   0.455  16.204  1.6979 -0.1027  0.5669
 6724TIP3   OH241586   5.747   0.358  10.850  0.4909 -0.4227 -0.3826
 6724TIP3    H141587   5.697   0.379  10.771  1.2074 -0.6448 -0.9128
 6724TIP3    H241588   5.822   0.419  10.847 -0.2256  0.5631  0.8956
 6725TIP3   OH241589   4.658   1.223  16.560 -0.2022 -0.0850 -0.0432
 6725TIP3    H141590   4.589   1.209  16.625 -1.0042 -0.9134 -1.0440
 6725TIP3    H241591   4.622   1.188  16.479  1.5977 -0.9889 -0.4913
 6726TIP3   OH241592   6.133   0.969   4.671  0.2924 -0.2320  0.0962
 6726TIP3    H141593   6.115   1.010   4.756 -1.0775 -2.3330  0.9160
 6726TIP3    H241594   6.051   0.978   4.623  0.8445  0.3417 -0.7470
 6727TIP3   OH241595   2.856   1.033   2.989 -0.4459 -0.0040 -0.5587
 6727TIP3    H141596   2.850   1.094   3.063  1.7543  0.8352 -0.9763
 6727TIP3    H241597   2.836   0.947   3.026 -2.1570  0.7589  0.3709
 6728TIP3   OH241598   1.015   5.042  14.942 -0.2112  0.0839  0.2354
 6728TIP3    H141599   1.026   5.137  14.944 -1.8973  0.3056  1.5755
 6728TIP3    H241600   0.934   5.026  14.990  0.3041 -2.0906  0.5110
 6729TIP3   OH241601   4.593   4.870  13.362  0.3057 -0.6695  0.1726
 6729TIP3    H141602   4.664   4.899  13.418  0.3979 -0.8985  0.1774
 6729TIP3    H241603   4.519   4.926  13.386  0.5862 -0.1697 -0.1053
 6730TIP3   OH241604   6.508   2.974  12.596  0.3046 -0.3245  0.0123
 6730TIP3    H141605   6.414   2.961  12.613  0.3251  0.3442  0.7173
 6730TIP3    H241606   6.547   2.887  12.605 -0.8169 -1.5171 -4.5218
 6731TIP3   OH241607   3.367   6.224   1.113  0.1385  0.0498  0.7529
 6731TIP3    H141608   3.327   6.311   1.106  1.5296  0.7374  0.9223
 6731TIP3    H241609   3.422   6.229   1.192  0.7053 -0.7746  0.4305
 6732TIP3   OH241610   5.818   0.316   1.764  0.1996 -0.2957  0.0801
 6732TIP3    H141611   5.754   0.289   1.830 -2.7165  0.4351 -2.2386
 6732TIP3    H241612   5.811   0.411   1.761 -0.5434 -0.3533 -1.8960
 6733TIP3   OH241613   3.209   4.465   0.931 -0.0112  0.0320  0.3193
 6733TIP3    H141614   3.261   4.545   0.933  0.0114  0.0476 -0.5847
 6733TIP3    H241615   3.232   4.423   0.848  0.1495 -1.0355  0.8960
 6734TIP3   OH241616   4.778   3.512  11.560 -0.0617  0.1390 -0.4189
 6734TIP3    H141617   4.773   3.464  11.477 -0.3762 -1.4685  0.4875
 6734TIP3    H241618   4.829   3.590  11.540  0.8210 -0.7731 -1.8693
 6735TIP3   OH241619   0.418   4.374   3.682  0.1290  0.0817  0.3553
 6735TIP3    H141620   0.447   4.290   3.647  0.1307  0.0455  0.4421
 6735TIP3    H241621   0.409   4.359   3.776 -1.0205 -0.1568  0.2227
 6736TIP3   OH241622   3.937   2.877  10.112  0.1740  0.1782  0.6119
 6736TIP3    H141623   3.915   2.875  10.018 -0.8791  1.0143  0.8074
 6736TIP3    H241624   4.012   2.936  10.118  1.0811 -0.9030  0.1660
 6737TIP3   OH241625   4.039   5.047  10.694 -0.0872 -0.1979  0.0392
 6737TIP3    H141626   4.128   5.022  10.672  0.1763  0.6824  0.0860
 6737TIP3    H241627   4.020   4.998  10.774 -0.0161 -1.1598 -0.5131
 6738TIP3   OH241628   5.696   1.463  11.362 -0.0968 -0.3567 -0.4174
 6738TIP3    H141629   5.778   1.473  11.412 -0.2144 -0.4368 -0.2052
 6738TIP3    H241630   5.638   1.415  11.421 -0.4092 -0.0168 -0.4433
 6739TIP3   OH241631   1.572   4.204   6.091 -0.9504 -0.1577  0.2578
 6739TIP3    H141632   1.587   4.276   6.153  1.0376  0.1111 -0.4375
 6739TIP3    H241633   1.547   4.247   6.010 -1.7107 -0.3920  0.3635
 6740TIP3   OH241634   3.838   1.808  16.138  0.4205  0.5474 -0.0692
 6740TIP3    H141635   3.792   1.764  16.066  0.0116  0.7529  0.0640
 6740TIP3    H241636   3.866   1.891  16.100  1.2236  0.1732 -0.3326
 6741TIP3   OH241637   5.807   4.987   1.077 -0.4570  0.1822  0.0334
 6741TIP3    H141638   5.840   5.060   1.130 -1.2438  0.3124  0.3543
 6741TIP3    H241639   5.884   4.933   1.061 -0.0401  0.5939  0.5866
 6742TIP3   OH241640   1.210   2.762   2.774  0.5586 -0.2756 -0.5663
 6742TIP3    H141641   1.168   2.677   2.787 -3.0434  1.0178 -2.3416
 6742TIP3    H241642   1.186   2.814   2.851 -1.6401  0.5676 -1.7301
 6743TIP3   OH241643   3.923   1.216  10.185  0.4155  0.2352  0.1285
 6743TIP3    H141644   3.862   1.289  10.192  1.6015  1.1091  2.0907
 6743TIP3    H241645   3.971   1.216  10.268  2.0493 -1.3527 -0.7377
 6744TIP3   OH241646   2.498   5.644  16.182  0.0466  0.5088 -0.1281
 6744TIP3    H141647   2.467   5.598  16.260 -0.7195  1.5616  0.2046
 6744TIP3    H241648   2.555   5.581  16.138 -1.5204 -1.0253 -0.0666
 6745TIP3   OH241649   1.773   5.649   1.782  0.7986 -0.0805 -0.1600
 6745TIP3    H141650   1.859   5.669   1.747  0.9459  1.0803  0.8318
 6745TIP3    H241651   1.720   5.629   1.705  1.2207  1.9839 -1.0380
 6746TIP3   OH241652   5.362   3.325   5.214 -0.2593  0.6695  0.4763
 6746TIP3    H141653   5.322   3.310   5.129  1.5504 -1.6858 -0.0497
 6746TIP3    H241654   5.419   3.400   5.201 -0.2344  0.5199 -0.3058
 6747TIP3   OH241655   0.518   3.650  16.965  0.0785 -0.3220 -0.1907
 6747TIP3    H141656   0.586   3.604  17.014 -1.7194 -0.7970  1.9898
 6747TIP3    H241657   0.507   3.733  17.011 -0.5077 -0.0599 -0.7860
 6748TIP3   OH241658   0.157   2.074  12.236 -0.1310  0.2082  0.1650
 6748TIP3    H141659   0.213   2.138  12.280  1.3277  0.1061 -1.4354
 6748TIP3    H241660   0.156   2.102  12.145  0.3101 -1.8686 -0.5213
 6749TIP3   OH241661   5.845   2.006   1.908  0.3580  0.3668 -0.3955
 6749TIP3    H141662   5.854   2.092   1.950  1.0692  0.5488 -0.8939
 6749TIP3    H241663   5.879   1.944   1.972 -1.5313  0.2617  0.5794
 6750TIP3   OH241664   4.859   5.066  15.439  0.2730 -0.0900  1.0605
 6750TIP3    H141665   4.881   5.057  15.346 -0.6144 -1.1719  0.9269
 6750TIP3    H241666   4.824   5.154  15.448  0.6926  0.1406  0.4334
 6751TIP3   OH241667   5.687   3.164  17.079 -0.4090  0.0719  0.2191
 6751TIP3    H141668   5.664   3.247  17.038  0.5506 -0.2618 -1.0838
 6751TIP3    H241669   5.783   3.162  17.075 -0.4206 -2.1723 -2.1877
 6752TIP3   OH241670   0.062   4.962   5.311  0.2737 -0.2764  0.1825
 6752TIP3    H141671   0.005   5.004   5.376  0.0508  0.3650 -0.4059
 6752TIP3    H241672   0.116   4.902   5.361 -0.2705 -0.1947  0.8864
 6753TIP3   OH241673   2.666   0.483  13.208  0.7520 -0.5765 -0.3972
 6753TIP3    H141674   2.759   0.499  13.197  0.5392  1.0931 -0.0715
 6753TIP3    H241675   2.661   0.403  13.260  1.9366 -1.9240 -2.2302
 6754TIP3   OH241676   1.234   2.939   1.437 -0.6128 -0.1860 -0.1766
 6754TIP3    H141677   1.193   2.874   1.494 -2.6301  1.8996  0.9119
 6754TIP3    H241678   1.300   2.981   1.491 -1.1437  0.4288  0.0126
 6755TIP3   OH241679   1.266   2.856  13.436 -0.0785 -0.0240  0.4160
 6755TIP3    H141680   1.233   2.879  13.523  1.7206 -1.0779  1.4383
 6755TIP3    H241681   1.200   2.798  13.400 -0.8307  0.3837  1.0828
 6756TIP3   OH241682   3.978   4.663  16.293  0.1732 -0.5494 -0.8193
 6756TIP3    H141683   3.884   4.645  16.292  0.0879 -0.1317 -2.0865
 6756TIP3    H241684   4.018   4.580  16.267  0.2819 -1.1557  1.0698
 6757TIP3   OH241685   0.090   4.406   0.714  0.2732  0.5728  0.9895
 6757TIP3    H141686   0.183   4.429   0.717  0.7873 -1.0343 -0.8337
 6757TIP3    H241687   0.049   4.482   0.672  0.7524  1.2246  1.6574
 6758TIP3   OH241688   6.371   5.308  16.944 -0.8154  0.1622  0.4323
 6758TIP3    H141689   6.427   5.333  17.016  1.0113 -0.6494 -0.6410
 6758TIP3    H241690   6.326   5.229  16.974 -1.4099  0.7999  1.2791
 6759TIP3   OH241691   3.936   5.718  13.605 -0.6793 -0.1560  0.0946
 6759TIP3    H141692   3.892   5.793  13.647 -1.8868 -0.8085  0.0512
 6759TIP3    H241693   4.012   5.756  13.561  0.2255  0.6645  2.2385
 6760TIP3   OH241694   6.504   6.457  11.215  0.5612 -0.8334 -0.5594
 6760TIP3    H141695   6.494   6.435  11.122 -1.4847 -1.2206 -0.2971
 6760TIP3    H241696   6.528   6.374  11.256 -1.1138 -1.2809 -0.4165
 6761TIP3   OH241697   0.813   0.707   1.777 -0.3422 -0.3981  0.6531
 6761TIP3    H141698   0.760   0.628   1.785 -1.8702  0.3820 -1.0750
 6761TIP3    H241699   0.866   0.693   1.699 -1.5094  0.7109 -0.3887
 6762TIP3   OH241700   6.566   1.268  11.807  0.3601 -0.0709 -0.2793
 6762TIP3    H141701   6.501   1.201  11.788 -0.0725  0.0197  0.8310
 6762TIP3    H241702   6.523   1.327  11.869  1.9683 -0.8792  1.7322
 6763TIP3   OH241703   1.511   1.376  12.153 -0.7884 -0.3464  0.2970
 6763TIP3    H141704   1.477   1.405  12.238 -2.5899  0.3657 -0.6170
 6763TIP3    H241705   1.476   1.287  12.142  0.6154 -1.0048  0.8865
 6764TIP3   OH241706   4.451   6.367  12.859 -0.0434  0.4766 -0.5397
 6764TIP3    H141707   4.500   6.375  12.941 -0.9740  1.6818 -0.0661
 6764TIP3    H241708   4.458   6.274  12.836  0.7649  0.2417  0.5641
 6765TIP3   OH241709   0.551   2.660   2.763  0.2131  0.2418  0.5724
 6765TIP3    H141710   0.612   2.726   2.798 -0.9381  1.5378  0.2365
 6765TIP3    H241711   0.511   2.703   2.687  2.5180 -2.4024 -2.3831
 6766TIP3   OH241712   6.242   6.257  14.852  0.1090  0.5733  0.5625
 6766TIP3    H141713   6.264   6.331  14.794  4.5240 -0.1648  0.8961
 6766TIP3    H241714   6.292   6.274  14.932 -0.5724 -1.6801  1.5493
 6767TIP3   OH241715   0.489   1.374  10.705  0.1650  0.5559 -0.1474
 6767TIP3    H141716   0.478   1.323  10.785  0.4497  1.8759  0.7683
 6767TIP3    H241717   0.583   1.377  10.690  0.0871 -0.2515 -0.9499
 6768TIP3   OH241718   4.787   5.222  13.566  0.3359 -0.1589  0.3073
 6768TIP3    H141719   4.721   5.291  13.560  0.3137 -0.2615 -0.9059
 6768TIP3    H241720   4.814   5.222  13.658 -0.6916  0.4984  0.6208
 6769TIP3   OH241721   2.695   2.138  15.145  0.5426  0.2338  0.0456
 6769TIP3    H141722   2.763   2.161  15.082  0.7365  1.2674  0.6055
 6769TIP3    H241723   2.645   2.219  15.157 -0.7301 -0.4859 -0.2826
 6770TIP3   OH241724   4.258   0.201   2.513 -0.6249  0.0177 -0.3921
 6770TIP3    H141725   4.202   0.235   2.583  1.5605 -0.2359  1.5817
 6770TIP3    H241726   4.344   0.240   2.529  0.3776 -1.4397 -1.8877
 6771TIP3   OH241727   2.804   2.873   1.818 -0.2994  0.6931 -0.0955
 6771TIP3    H141728   2.715   2.904   1.797 -0.0209  2.3181  0.9378
 6771TIP3    H241729   2.849   2.873   1.733 -1.0885  0.4976 -0.5288
 6772TIP3   OH241730   6.654   0.969  14.431  0.1130 -0.5165 -0.1256
 6772TIP3    H141731   6.705   1.035  14.384  1.4519 -1.4459 -0.0418
 6772TIP3    H241732   6.710   0.944  14.504 -1.3272 -0.1450  1.1466
 6773TIP3   OH241733   4.969   2.830   2.811  0.0322  0.4617 -0.5650
 6773TIP3    H141734   4.883   2.858   2.781 -0.8080 -0.1527  1.1320
 6773TIP3    H241735   5.014   2.912   2.833  0.0999  0.8154 -1.9392
 6774TIP3   OH241736   2.944   1.275   4.500  0.3580  0.2520  0.0466
 6774TIP3    H141737   2.886   1.287   4.424 -0.2314  1.2895  0.6322
 6774TIP3    H241738   2.884   1.268   4.574  0.9160 -1.1930  0.3768
 6775TIP3   OH241739   1.971   4.877  14.403 -0.0364 -0.3672  0.5306
 6775TIP3    H141740   1.923   4.953  14.436  0.4914 -0.6172  1.9453
 6775TIP3    H241741   2.063   4.901  14.412  0.1288 -1.0101  0.5835
 6776TIP3   OH241742   6.722   4.283  15.884  0.5932 -0.1351 -0.1870
 6776TIP3    H141743   6.749   4.371  15.911  0.3547 -0.3810  0.8929
 6776TIP3    H241744   6.788   4.256  15.820  1.5876  0.1868  0.6939
 6777TIP3   OH241745   6.584   1.188   5.155 -0.4511 -0.1975  0.4050
 6777TIP3    H141746   6.557   1.130   5.084 -3.7758  0.4356  0.9796
 6777TIP3    H241747   6.641   1.134   5.209 -0.7843 -1.8701 -0.8264
 6778TIP3   OH241748   3.209   4.527  13.936  0.0725  0.1538  0.3388
 6778TIP3    H141749   3.181   4.596  13.876 -1.2616 -0.7323 -0.1001
 6778TIP3    H241750   3.157   4.541  14.015 -0.8073 -0.8086 -0.0498
 6779TIP3   OH241751   2.074   1.326   2.510 -0.1607 -0.3326 -0.2295
 6779TIP3    H141752   2.053   1.346   2.601  0.9836 -1.7640  0.4060
 6779TIP3    H241753   2.163   1.360   2.498  1.3974 -3.6437  0.5533
 6780TIP3   OH241754   2.898   6.646  15.778  0.4353 -0.0552 -0.4260
 6780TIP3    H141755   2.991   6.659  15.759  0.2678  2.0578  0.0043
 6780TIP3    H241756   2.890   6.552  15.794  2.5250 -0.2573 -0.2858
 6781TIP3   OH241757   3.640   2.801   2.741  0.3045  0.4114 -0.7194
 6781TIP3    H141758   3.695   2.818   2.664  0.2673  2.0016 -0.4237
 6781TIP3    H241759   3.677   2.856   2.810  0.7745 -1.5115  0.6431
 6782TIP3   OH241760   6.288   2.120  15.330  0.3303 -0.0720  1.1512
 6782TIP3    H141761   6.242   2.200  15.307  1.0036 -0.2424 -1.0895
 6782TIP3    H241762   6.243   2.051  15.281  1.8109 -0.4977  0.3031
 6783TIP3   OH241763   6.585   6.640   5.939  0.3219 -0.2879  0.3154
 6783TIP3    H141764   6.655   6.669   5.997  0.0382  0.4575  0.2903
 6783TIP3    H241765   6.506   6.684   5.971  0.4594  1.6409 -1.6957
 6784TIP3   OH241766   0.850   4.869   3.790  0.2343 -0.0177  0.6733
 6784TIP3    H141767   0.786   4.912   3.733 -1.7780  1.1948  3.6161
 6784TIP3    H241768   0.873   4.789   3.744 -2.6147  0.0247 -1.0611
 6785TIP3   OH241769   5.501   1.541   3.924 -0.2358  0.5740 -0.3045
 6785TIP3    H141770   5.545   1.553   3.840 -0.0820  3.5498  0.0979
 6785TIP3    H241771   5.491   1.629   3.959 -1.2772 -0.4794  2.3308
 6786TIP3   OH241772   1.280   2.307  10.547  0.7243  0.2753 -0.2966
 6786TIP3    H141773   1.285   2.230  10.490 -1.9901 -0.1809 -0.0516
 6786TIP3    H241774   1.284   2.381  10.487  3.1220  0.0129 -0.5577
 6787TIP3   OH241775   6.009   6.143  15.347 -0.3734 -0.3668  0.2951
 6787TIP3    H141776   5.920   6.119  15.321 -0.5974  0.0615  0.6675
 6787TIP3    H241777   6.046   6.062  15.382  0.2748 -1.2552 -2.1643
 6788TIP3   OH241778   5.077   1.309   0.341  0.5516  0.0484  0.1027
 6788TIP3    H141779   5.064   1.401   0.364 -0.5805 -0.1387  0.2570
 6788TIP3    H241780   5.072   1.308   0.245  1.0546  0.2187  0.0747
 6789TIP3   OH241781   1.196   3.774  11.352  0.0239  0.0968 -0.4238
 6789TIP3    H141782   1.144   3.694  11.348  1.3490 -0.7525 -1.4148
 6789TIP3    H241783   1.152   3.828  11.418  0.2585 -2.3071  1.8502
 6790TIP3   OH241784   4.704   2.125   1.983 -0.1267  0.2234 -0.6366
 6790TIP3    H141785   4.755   2.089   1.911  0.8124  0.9192 -0.3392
 6790TIP3    H241786   4.747   2.092   2.062 -1.3736 -0.8479 -0.3709
 6791TIP3   OH241787   5.786   2.415  14.914 -0.5325 -0.0408 -0.1545
 6791TIP3    H141788   5.701   2.458  14.923  0.5408  2.0625  0.6233
 6791TIP3    H241789   5.807   2.385  15.003 -0.8037 -1.3333 -0.5030
 6792TIP3   OH241790   1.439   4.592  14.372 -0.1174 -0.2047  0.3040
 6792TIP3    H141791   1.509   4.548  14.323  0.1823  1.2850 -0.6915
 6792TIP3    H241792   1.398   4.523  14.423  2.6753 -1.0098  1.6752
 6793TIP3   OH241793   4.073   2.827   0.866 -0.1084  0.3873  0.3598
 6793TIP3    H141794   4.143   2.797   0.809  1.9611  2.9479  1.3463
 6793TIP3    H241795   4.104   2.808   0.955 -0.8839  1.1402  0.8106
 6794TIP3   OH241796   2.245   6.688  17.105 -0.2708 -0.5184 -0.1825
 6794TIP3    H141797   2.313   6.697  17.173  0.0169  0.1960 -0.5578
 6794TIP3    H241798   2.294   6.667  17.025 -0.6236 -1.5750 -0.1430
 6795TIP3   OH241799   5.553   1.096   4.699  0.0696 -0.5605 -0.0230
 6795TIP3    H141800   5.535   1.109   4.606 -1.0839  0.5613  0.3191
 6795TIP3    H241801   5.643   1.127   4.710 -0.2707  0.6958 -0.5328
 6796TIP3   OH241802   3.127   6.613  12.022  0.3949  0.1860  0.1213
 6796TIP3    H141803   3.124   6.678  12.092 -0.4781  0.6652 -0.3449
 6796TIP3    H241804   3.099   6.660  11.944 -1.2743 -0.9653 -0.0485
 6797TIP3   OH241805   3.388   1.708  14.493 -0.3334 -0.1995  0.2288
 6797TIP3    H141806   3.323   1.708  14.423  1.4742 -0.7518 -1.5488
 6797TIP3    H241807   3.444   1.632  14.474  0.5745 -0.0079  1.9350
 6798TIP3   OH241808   1.778   6.094  10.892  0.0686 -0.1686 -0.0233
 6798TIP3    H141809   1.864   6.089  10.932  0.0685  0.9049  0.1413
 6798TIP3    H241810   1.793   6.071  10.800  0.2339 -1.6304  0.3400
 6799TIP3   OH241811   5.660   0.105  12.072  0.0911 -0.0586  0.2070
 6799TIP3    H141812   5.606   0.030  12.047  1.3550 -0.8281 -0.3405
 6799TIP3    H241813   5.729   0.108  12.006  0.3625  1.2937  0.5169
 6800TIP3   OH241814   4.765   0.153   5.650 -0.1038 -0.1494 -0.2219
 6800TIP3    H141815   4.739   0.245   5.658  4.2100  1.3446 -0.5702
 6800TIP3    H241816   4.819   0.137   5.727  1.4627 -1.4607 -1.5259
 6801TIP3   OH241817   2.263   4.562   0.776 -0.5676 -1.0314  0.1189
 6801TIP3    H141818   2.266   4.569   0.871  2.0455 -2.5204  0.2266
 6801TIP3    H241819   2.246   4.651   0.746 -0.3493 -0.3378  1.9383
 6802TIP3   OH241820   2.281   3.213   1.798 -0.5300 -0.7228 -0.0753
 6802TIP3    H141821   2.355   3.194   1.855 -0.4090  0.8452  0.3164
 6802TIP3    H241822   2.319   3.258   1.723 -0.8295 -1.8557 -0.9425
 6803TIP3   OH241823   4.233   5.493  15.142  0.1623 -0.0278 -0.4568
 6803TIP3    H141824   4.147   5.532  15.123  0.4391  1.0537  0.3628
 6803TIP3    H241825   4.286   5.568  15.169  0.0736 -1.2125  3.5717
 6804TIP3   OH241826   5.869   5.947  14.327  0.1738  0.1933  0.4456
 6804TIP3    H141827   5.949   5.899  14.304  0.2418  0.1655  0.7390
 6804TIP3    H241828   5.892   6.039  14.317  1.2889  0.3890  3.7034
 6805TIP3   OH241829   0.452   4.434   0.191 -0.2082 -0.6821  0.1225
 6805TIP3    H141830   0.479   4.353   0.147 -1.7523 -1.0596 -0.2112
 6805TIP3    H241831   0.442   4.410   0.283  1.4788 -0.2918  0.4310
 6806TIP3   OH241832   1.398   3.242   4.045 -0.1055  0.2972 -0.1955
 6806TIP3    H141833   1.489   3.253   4.071 -0.2766  1.9948 -0.2276
 6806TIP3    H241834   1.402   3.199   3.959  0.5387 -2.3141  1.0346
 6807TIP3   OH241835   0.043   4.372  17.192 -0.5524  0.3080 -0.6118
 6807TIP3    H141836   0.090   4.420  17.261 -2.0721  0.4102  0.4100
 6807TIP3    H241837  -0.035   4.424  17.175 -2.1897 -1.6432  0.4269
 6808TIP3   OH241838   2.512   1.993   0.989 -0.4022  0.0525 -0.8441
 6808TIP3    H141839   2.520   1.901   1.015 -0.3882  0.2041 -0.2986
 6808TIP3    H241840   2.441   1.994   0.924 -1.1744 -0.1918 -0.0271
 6809TIP3   OH241841   3.355   1.022   0.543  0.0380 -0.6690 -0.0163
 6809TIP3    H141842   3.363   0.995   0.634  0.4829  0.3739  0.2692
 6809TIP3    H241843   3.323   1.112   0.548 -1.7168 -1.1872 -0.9266
 6810TIP3   OH241844   2.118   1.998   1.451  0.4191  0.2116  0.2722
 6810TIP3    H141845   2.042   2.056   1.458  1.0373  0.9764  0.8905
 6810TIP3    H241846   2.160   2.024   1.369  1.0411  1.0927  0.8540
 6811TIP3   OH241847   5.959   2.116  13.849 -0.3606  0.0856  0.1292
 6811TIP3    H141848   5.887   2.066  13.888 -0.5130  0.3076  0.1349
 6811TIP3    H241849   5.958   2.092  13.756 -0.3552 -0.0144  0.1551
 6812TIP3   OH241850   2.385   0.315   1.231  0.2934  0.0821  0.4100
 6812TIP3    H141851   2.446   0.250   1.267 -0.8855 -1.7252 -0.6858
 6812TIP3    H241852   2.438   0.365   1.169  0.8345 -1.0822 -0.1026
 6813TIP3   OH241853   5.027   4.330   3.988  0.2946  0.8627  0.2029
 6813TIP3    H141854   5.121   4.342   4.000  0.2236  0.7906  0.8714
 6813TIP3    H241855   4.995   4.303   4.074  0.0419 -1.5680 -0.5694
 6814TIP3   OH241856   2.245   4.884  14.120  0.0625 -0.2603 -0.1472
 6814TIP3    H141857   2.330   4.847  14.098  0.9736  0.5688  1.7495
 6814TIP3    H241858   2.263   4.947  14.190 -2.1555 -0.3065  0.5588
 6815TIP3   OH241859   2.456   5.838   2.930  0.1808  0.4368 -0.4663
 6815TIP3    H141860   2.515   5.773   2.968  0.2001  0.7202 -0.0089
 6815TIP3    H241861   2.514   5.898   2.882  0.1238 -0.1257 -1.2589
 6816TIP3   OH241862   2.284   4.249  10.538  0.1025  0.0438 -0.0639
 6816TIP3    H141863   2.367   4.261  10.492  0.5785 -1.2088  0.4294
 6816TIP3    H241864   2.306   4.196  10.614 -0.5741  2.4515  1.9554
 6817TIP3   OH241865   4.852   1.085  16.330  0.0339 -0.3662 -0.7619
 6817TIP3    H141866   4.943   1.099  16.304 -0.0369 -0.3594 -1.0089
 6817TIP3    H241867   4.858   1.042  16.416  0.2556  1.6477  0.2886
 6818TIP3   OH241868   2.065   4.257  16.659  0.1223 -0.3029 -0.6196
 6818TIP3    H141869   2.001   4.303  16.605  0.3944 -0.7395 -1.3415
 6818TIP3    H241870   2.073   4.310  16.738 -0.7425  0.0285 -0.7427
 6819TIP3   OH241871   2.201   1.127   4.163 -0.1786 -0.0849  0.4186
 6819TIP3    H141872   2.225   1.129   4.256  0.4157 -1.2338  0.3039
 6819TIP3    H241873   2.119   1.176   4.159 -0.8401 -1.0151  1.7386
 6820TIP3   OH241874   0.211   2.338  13.239 -0.9580  0.2556 -0.0734
 6820TIP3    H141875   0.218   2.276  13.312 -0.4067 -1.6149 -1.6133
 6820TIP3    H241876   0.117   2.345  13.223 -1.0239 -0.4142 -0.0389
 6821TIP3   OH241877   1.748   1.573   5.177  0.5375  0.3144  0.2619
 6821TIP3    H141878   1.829   1.621   5.197  0.2146  0.1024  2.3595
 6821TIP3    H241879   1.678   1.636   5.194  0.1142 -0.7169  2.9475
 6822TIP3   OH241880   2.441   2.601   3.457 -0.2452  0.2467  0.0153
 6822TIP3    H141881   2.472   2.666   3.520 -1.5398  0.8948  0.0242
 6822TIP3    H241882   2.352   2.630   3.435  0.0634 -0.1297 -1.8851
 6823TIP3   OH241883   1.236   4.226   2.458  0.1861 -0.2885  0.4521
 6823TIP3    H141884   1.236   4.142   2.504  0.2635 -0.1439  0.7214
 6823TIP3    H241885   1.262   4.205   2.369  0.4316 -0.5179  0.5766
 6824TIP3   OH241886   0.359   3.463  10.098 -0.4786 -0.0971  0.0630
 6824TIP3    H141887   0.274   3.438  10.134 -2.0805  0.4198 -3.0183
 6824TIP3    H241888   0.383   3.391  10.040  0.7018  0.2181  0.1330
 6825TIP3   OH241889   6.704   1.802   6.095  0.4645 -0.0690  0.1810
 6825TIP3    H141890   6.795   1.822   6.120  0.0518 -0.2534  1.9943
 6825TIP3    H241891   6.691   1.712   6.122  0.0141 -0.3767 -1.0050
 6826TIP3   OH241892   6.176   6.697   1.940  0.1437  0.6286 -0.4140
 6826TIP3    H141893   6.146   6.702   1.849  0.9931  1.3594 -0.6652
 6826TIP3    H241894   6.228   6.617   1.944 -0.5429  0.1772 -0.3662
 6827TIP3   OH241895   5.681   0.484   4.614 -0.0708 -0.2574 -0.4860
 6827TIP3    H141896   5.708   0.401   4.575 -0.9314 -1.0727  0.5775
 6827TIP3    H241897   5.750   0.545   4.591  0.8666 -1.4029 -0.8213
 6828TIP3   OH241898   3.137   6.699   5.908 -0.4070  0.1168 -0.1159
 6828TIP3    H141899   3.044   6.705   5.885 -0.5771 -1.7497 -0.0729
 6828TIP3    H241900   3.153   6.605   5.920  1.1838  0.4919  1.1513
 6829TIP3   OH241901   4.256   5.693   2.144  0.3351 -0.3354 -0.3576
 6829TIP3    H141902   4.228   5.603   2.125 -0.4941  0.0561 -1.0081
 6829TIP3    H241903   4.335   5.705   2.092  0.5931 -0.7566 -0.0809
 6830TIP3   OH241904   5.258   5.548   3.055  0.2207 -0.3763 -0.7075
 6830TIP3    H141905   5.221   5.462   3.077  1.2798 -0.4581  0.9484
 6830TIP3    H241906   5.346   5.546   3.093  0.5757  1.1383 -1.3811
 6831TIP3   OH241907   6.515   2.666  12.480 -0.3258 -0.2310  0.2758
 6831TIP3    H141908   6.424   2.691  12.463 -0.0679  0.5646  0.0364
 6831TIP3    H241909   6.542   2.618  12.402 -0.4972 -0.3462  0.2874
 6832TIP3   OH241910   4.764   2.671   4.387 -0.3271 -1.0194  0.0525
 6832TIP3    H141911   4.763   2.588   4.434 -0.8331 -0.7831  0.4743
 6832TIP3    H241912   4.851   2.676   4.348  0.4936 -0.7354  1.8284
 6833TIP3   OH241913   2.518   6.520  13.349  0.3212  0.3432 -0.2225
 6833TIP3    H141914   2.590   6.577  13.374  3.2686 -3.8505  2.2328
 6833TIP3    H241915   2.486   6.484  13.431 -0.5267 -2.3038 -1.5809
 6834TIP3   OH241916   3.360   2.308  13.931 -0.0963 -0.2443  0.2268
 6834TIP3    H141917   3.280   2.314  13.983  0.3005 -0.4750  0.8661
 6834TIP3    H241918   3.329   2.306  13.840 -0.7359  1.9775  0.3277
 6835TIP3   OH241919   6.335   2.687  15.127 -0.4944 -0.5742  0.4306
 6835TIP3    H141920   6.257   2.634  15.111 -1.3780  0.3294  1.5631
 6835TIP3    H241921   6.404   2.644  15.076 -1.8474 -1.0404 -1.0984
 6836TIP3   OH241922   5.428   6.773  13.274 -0.1690  0.0264  0.1054
 6836TIP3    H141923   5.403   6.834  13.204 -1.7525  0.7525  1.2416
 6836TIP3    H241924   5.473   6.702  13.228 -0.7534  0.6961 -1.5962
 6837TIP3   OH241925   0.716   3.508  13.050 -0.0306 -0.2248 -0.4685
 6837TIP3    H141926   0.692   3.492  13.142 -1.7693 -1.3411 -1.0618
 6837TIP3    H241927   0.687   3.597  13.033  0.5203  0.0781  0.1104
 6838TIP3   OH241928   4.412   4.713   5.198 -0.2241 -0.5537 -0.3050
 6838TIP3    H141929   4.500   4.676   5.195  0.7229  1.5821 -0.9540
 6838TIP3    H241930   4.398   4.751   5.111 -1.4018 -0.0588  0.0715
 6839TIP3   OH241931   1.760   3.284   3.629  0.7156 -0.5051 -0.2255
 6839TIP3    H141932   1.848   3.259   3.654 -0.1899 -0.4712  3.5863
 6839TIP3    H241933   1.749   3.373   3.664 -0.7022 -0.3178 -1.0403
 6840TIP3   OH241934   1.765   1.086   4.195 -0.1269 -0.1883 -0.2640
 6840TIP3    H141935   1.790   1.012   4.140  0.4704  1.0984 -1.7609
 6840TIP3    H241936   1.686   1.121   4.154 -0.3514  0.0830  0.3850
 6841TIP3   OH241937   0.931   4.733   5.101  0.1890 -0.2784  0.1394
 6841TIP3    H141938   0.840   4.717   5.076  0.1175  0.3771 -0.0352
 6841TIP3    H241939   0.967   4.785   5.029  0.4480  0.2068  0.6116
 6842TIP3   OH241940   6.560   5.098   0.173 -0.2610 -0.3133 -0.1207
 6842TIP3    H141941   6.595   5.180   0.208 -2.2345  0.6889 -0.3399
 6842TIP3    H241942   6.626   5.032   0.195  0.0279  0.7784  2.8132
 6843TIP3   OH241943   1.044   4.964   0.835 -0.3538  0.2652 -0.0911
 6843TIP3    H141944   1.104   5.036   0.813 -0.7362  0.3110 -1.0581
 6843TIP3    H241945   1.032   4.917   0.752 -0.7207 -0.4502  0.3590
 6844TIP3   OH241946   6.695   5.690  14.763  0.6330 -0.3386  0.1606
 6844TIP3    H141947   6.771   5.746  14.747  1.6412 -1.5682  0.4753
 6844TIP3    H241948   6.719   5.606  14.725 -1.2791 -0.3114 -1.2530
 6845TIP3   OH241949   1.578   0.795   4.825  0.2639 -0.3262 -0.2434
 6845TIP3    H141950   1.632   0.812   4.902 -0.8108 -2.2648  1.0162
 6845TIP3    H241951   1.638   0.806   4.751  1.4137  1.2098  0.8450
 6846TIP3   OH241952   5.584   4.310   1.114 -0.4389  0.5585 -0.3624
 6846TIP3    H141953   5.598   4.342   1.024 -1.1851  0.3838 -0.5465
 6846TIP3    H241954   5.652   4.244   1.126 -0.3120  0.6028 -0.7920
 6847TIP3   OH241955   0.444   2.300  16.186  0.0121 -0.3089 -0.4677
 6847TIP3    H141956   0.358   2.323  16.221  0.6494  2.6147 -0.5344
 6847TIP3    H241957   0.425   2.237  16.116 -2.6981  3.3007 -3.4375
 6848TIP3   OH241958   4.394   5.098  10.485 -0.6913  0.2595  0.0403
 6848TIP3    H141959   4.368   5.183  10.520 -0.4813  0.5988 -0.6031
 6848TIP3    H241960   4.396   5.040  10.561 -0.0216  1.0255  0.6303
 6849TIP3   OH241961   4.038   5.577   4.485 -0.2333 -0.2736  0.5693
 6849TIP3    H141962   4.101   5.526   4.434 -1.0721 -1.6635  0.8580
 6849TIP3    H241963   3.953   5.551   4.450 -0.7825 -0.6826  2.1509
 6850TIP3   OH241964   3.237   5.611  13.517  0.2465 -0.2815  0.2425
 6850TIP3    H141965   3.168   5.563  13.471  1.2725 -0.2731 -1.3872
 6850TIP3    H241966   3.191   5.666  13.581 -1.2482 -0.2441 -0.8390
 6851TIP3   OH241967   2.812   4.580  15.160 -0.4989 -0.0273 -0.0788
 6851TIP3    H141968   2.844   4.603  15.247  0.2686 -0.7120 -0.1658
 6851TIP3    H241969   2.719   4.603  15.161 -0.8765 -1.4618  1.4506
 6852TIP3   OH241970   1.596   4.145   0.433 -0.8149  0.3170 -0.1993
 6852TIP3    H141971   1.518   4.193   0.461 -1.3031 -0.1064 -0.8168
 6852TIP3    H241972   1.667   4.186   0.481 -1.2881  1.3392 -0.3398
 6853TIP3   OH241973   0.944   3.085   2.577  0.1932 -0.2336  0.1764
 6853TIP3    H141974   0.914   3.136   2.502  1.2614  0.4071  0.1527
 6853TIP3    H241975   1.040   3.084   2.568  0.4645  1.0353  2.2392
 6854TIP3   OH241976   0.162   2.087  16.788 -0.5766 -0.5320  0.3530
 6854TIP3    H141977   0.251   2.092  16.751 -0.1559 -2.7242  0.9177
 6854TIP3    H241978   0.141   2.178  16.811  1.0730  0.2026 -0.7735
 6855TIP3   OH241979   0.647   3.407   3.334 -0.0198  0.2765  0.1942
 6855TIP3    H141980   0.702   3.334   3.305 -0.6431 -0.7161  1.4332
 6855TIP3    H241981   0.584   3.418   3.263 -0.3547 -0.8758  0.2868
 6856TIP3   OH241982   5.755   3.743   1.772  0.3883 -0.4787  0.3607
 6856TIP3    H141983   5.731   3.802   1.844  1.0626  1.1510 -0.6733
 6856TIP3    H241984   5.844   3.771   1.747  0.4170 -1.4198 -0.6943
 6857TIP3   OH241985   2.046   0.419   2.271 -0.4476  0.0282  0.1279
 6857TIP3    H141986   1.966   0.369   2.287 -0.2219 -0.7471 -1.0231
 6857TIP3    H241987   2.072   0.394   2.182  0.6088  0.9169  0.1690
 6858TIP3   OH241988   0.190   6.672  11.188  1.0050 -0.2518  0.2304
 6858TIP3    H141989   0.199   6.732  11.115  0.3074  0.1905  0.4995
 6858TIP3    H241990   0.146   6.595  11.151 -0.2309  0.3583  0.3672
 6859TIP3   OH241991   5.081   1.776  14.482 -0.0419 -0.7506  0.0040
 6859TIP3    H141992   5.063   1.696  14.433 -0.0801 -0.0490 -1.1798
 6859TIP3    H241993   5.088   1.844  14.414  2.0863 -0.1058  0.8003
 6860TIP3   OH241994   6.093   1.016   5.281 -0.6211  0.6940  0.5936
 6860TIP3    H141995   6.070   0.945   5.340 -1.7303 -0.0320 -0.6691
 6860TIP3    H241996   6.059   0.989   5.196 -0.4773  2.4362 -0.0584
 6861TIP3   OH241997   6.101   2.794  14.686 -0.1238 -0.1979 -0.4312
 6861TIP3    H141998   6.048   2.874  14.681 -2.6017 -1.5700  1.3221
 6861TIP3    H241999   6.038   2.723  14.674  1.4250 -1.9380  1.0581
 6862TIP3   OH242000   0.383   3.482   2.031 -0.0432 -0.3619  0.2742
 6862TIP3    H142001   0.456   3.421   2.021 -0.6164 -0.8258 -1.3716
 6862TIP3    H242002   0.358   3.504   1.942 -1.0246  0.8770  0.8306
 6863TIP3   OH242003   4.782   0.954  16.089  0.2699 -0.3873  0.2256
 6863TIP3    H142004   4.749   0.876  16.132 -1.3213  0.2043  0.1389
 6863TIP3    H242005   4.784   1.021  16.158 -0.3309  0.0191 -0.1389
 6864TIP3   OH242006   5.913   0.748   2.632  0.3195 -0.2959  0.4582
 6864TIP3    H142007   5.898   0.842   2.643 -1.5227 -0.6777  1.7264
 6864TIP3    H242008   5.978   0.725   2.698  2.4828  0.4050 -1.3065
 6865TIP3   OH242009   2.828   2.729  15.340  0.1477  0.1923 -0.4299
 6865TIP3    H142010   2.846   2.670  15.267 -2.2641 -0.9868 -0.1414
 6865TIP3    H242011   2.841   2.816  15.304  0.3885 -0.4065 -1.8427
 6866TIP3   OH242012   3.571   1.639   0.230  0.5439  0.2598  0.1352
 6866TIP3    H142013   3.660   1.642   0.266  0.6907  0.5996 -0.2413
 6866TIP3    H242014   3.532   1.561   0.268  1.0410  0.0523  0.2244
 6867TIP3   OH242015   3.187   1.036   3.844 -0.1690  0.2183 -0.0261
 6867TIP3    H142016   3.217   1.055   3.933  0.4660 -1.0028  0.0477
 6867TIP3    H242017   3.261   1.057   3.788 -0.4927  0.7745 -0.2563
 6868TIP3   OH242018   0.623   3.131  10.887 -0.1569  0.6414 -0.1669
 6868TIP3    H142019   0.696   3.149  10.827  0.2194 -0.8714 -0.1891
 6868TIP3    H242020   0.657   3.154  10.973  0.0584  0.7502 -0.2793
 6869TIP3   OH242021   5.900   4.283  11.562 -0.8385  0.0309 -0.0035
 6869TIP3    H142022   5.948   4.293  11.480  0.8363  0.9860  1.0336
 6869TIP3    H242023   5.898   4.371  11.600 -0.9825 -0.5000  1.2723
 6870TIP3   OH242024   3.719   1.022  16.895 -0.3359  0.5158  0.6639
 6870TIP3    H142025   3.689   1.095  16.840 -0.5469 -0.1758 -0.1564
 6870TIP3    H242026   3.733   1.062  16.981 -2.1809  1.1725  0.7044
 6871TIP3   OH242027   1.394   2.800   4.918 -0.0069 -0.1204 -0.1706
 6871TIP3    H142028   1.391   2.722   4.863  0.5176  0.1365 -0.5795
 6871TIP3    H242029   1.366   2.771   5.004  1.6582 -1.1159  0.0748
 6872TIP3   OH242030   6.188   5.970   1.563  0.0504 -0.3873 -0.1614
 6872TIP3    H142031   6.155   6.043   1.615 -2.7222 -1.6616  0.0764
 6872TIP3    H242032   6.183   6.000   1.472 -0.3054 -0.0184 -0.0192
 6873TIP3   OH242033   5.187   0.933  15.452  0.2607 -0.2268 -0.4344
 6873TIP3    H142034   5.271   0.954  15.492 -0.5636  0.0257  1.2664
 6873TIP3    H242035   5.210   0.884  15.373  1.9933 -2.1411  1.1225
 6874TIP3   OH242036   3.568   4.924  14.714  0.4249  0.1138 -0.2652
 6874TIP3    H142037   3.657   4.938  14.684 -0.0773  2.1118 -0.9831
 6874TIP3    H242038   3.561   4.976  14.794  0.3503 -1.3838  0.7611
 6875TIP3   OH242039   5.577   5.463  14.520  0.0647 -0.2716  0.4559
 6875TIP3    H142040   5.550   5.375  14.545 -0.8222  0.0226  0.5389
 6875TIP3    H242041   5.550   5.472  14.429  3.1912 -1.3017 -0.7181
 6876TIP3   OH242042   4.081   4.800   3.538 -0.0377 -0.4053 -0.0926
 6876TIP3    H142043   4.009   4.831   3.483 -0.3621  0.3590  0.7279
 6876TIP3    H242044   4.149   4.866   3.526  1.4384 -2.2104 -2.5420
 6877TIP3   OH242045   0.316   5.643  11.177 -0.1136 -0.1051  0.3769
 6877TIP3    H142046   0.277   5.620  11.092 -2.6535 -0.3856  1.5264
 6877TIP3    H242047   0.322   5.559  11.223  1.7944 -0.0407  0.3262
 6878TIP3   OH242048   2.007   4.862   1.986 -0.2546 -0.1506 -0.4639
 6878TIP3    H142049   2.005   4.777   2.029 -1.0371  0.4102  0.6555
 6878TIP3    H242050   2.014   4.925   2.058  0.5689  0.7310 -1.2844
 6879TIP3   OH242051   6.510   1.705  15.543 -0.2246 -0.2295 -0.0436
 6879TIP3    H142052   6.467   1.791  15.547 -0.8610 -0.5798  1.3463
 6879TIP3    H242053   6.517   1.686  15.450 -1.3057  0.7304 -0.3498
 6880TIP3   OH242054   3.141   5.793  16.684 -0.3698  0.0822  0.0463
 6880TIP3    H142055   3.063   5.745  16.709 -0.0612 -0.4931 -0.0757
 6880TIP3    H242056   3.206   5.771  16.751  0.3636 -1.2179 -1.0399
 6881TIP3   OH242057   4.004   3.035  13.748  0.4786  0.2585 -0.0854
 6881TIP3    H142058   3.968   3.054  13.661 -0.6932 -0.4489  0.2286
 6881TIP3    H242059   3.967   3.103  13.804  1.4548  0.8816 -0.1716
 6882TIP3   OH242060   0.713   0.922  16.123 -0.1294 -0.6103 -0.0902
 6882TIP3    H142061   0.624   0.951  16.103  0.0256  0.7759  0.9993
 6882TIP3    H242062   0.709   0.895  16.215  0.8730  0.9702  0.4584
 6883TIP3   OH242063   1.550   6.182   3.006 -0.2842  0.1227  0.0788
 6883TIP3    H142064   1.482   6.116   2.991 -0.9865  0.5017  1.4361
 6883TIP3    H242065   1.505   6.266   3.000  0.7299  0.5852 -2.2976
 6884TIP3   OH242066   1.989   6.727  13.307 -0.2574 -0.0646  0.1087
 6884TIP3    H142067   1.977   6.633  13.321 -0.7433 -0.2849 -1.6253
 6884TIP3    H242068   2.051   6.734  13.235 -1.7805  0.8904 -1.1745
 6885TIP3   OH242069   3.094   1.627   3.408  0.3339 -0.0947  0.4769
 6885TIP3    H142070   3.083   1.722   3.401  0.6093 -0.1219 -0.4516
 6885TIP3    H242071   3.046   1.603   3.487  1.0600  0.9473  1.2585
 6886TIP3   OH242072   0.397   6.634  15.269 -0.4797  0.0119  0.0298
 6886TIP3    H142073   0.377   6.570  15.338 -0.2009  0.6914  0.7684
 6886TIP3    H242074   0.455   6.587  15.209  1.1207  0.0386  1.4697
 6887TIP3   OH242075   4.226   2.978  16.332  0.8245  0.0435  0.5425
 6887TIP3    H142076   4.184   2.984  16.418 -0.0893  0.1166  0.1049
 6887TIP3    H242077   4.254   2.887  16.325 -1.8050 -0.7856 -0.2716
 6888TIP3   OH242078   1.976   1.842   4.120  0.0862 -0.1554  1.2641
 6888TIP3    H142079   1.992   1.924   4.167  0.4344 -0.2644  1.3415
 6888TIP3    H242080   2.064   1.810   4.099 -0.0276  0.7561 -0.9702
 6889TIP3   OH242081   4.740   1.096   5.306  0.2316 -0.2006  0.5910
 6889TIP3    H142082   4.717   1.046   5.227 -2.0344 -1.8809  2.1991
 6889TIP3    H242083   4.666   1.082   5.365  0.7850  2.9110  2.1932
 6890TIP3   OH242084   1.991   2.645   0.214  0.0789 -0.3036  0.5873
 6890TIP3    H142085   1.896   2.658   0.220 -0.0414 -1.5343  1.9020
 6890TIP3    H242086   2.008   2.568   0.268  1.5876 -1.3154 -1.2074
 6891TIP3   OH242087   2.299   0.554  12.725 -0.1803  0.4338 -0.7120
 6891TIP3    H142088   2.242   0.593  12.659  0.1420  1.3041 -0.4906
 6891TIP3    H242089   2.335   0.476  12.683 -1.6089 -0.1962 -0.8141
 6892TIP3   OH242090   6.315   1.522  16.120  0.5751 -0.2649  0.2512
 6892TIP3    H142091   6.284   1.551  16.035 -1.3458 -0.4567  0.8353
 6892TIP3    H242092   6.331   1.603  16.169  4.0831 -0.0508 -0.9848
 6893TIP3   OH242093   6.439   2.673   3.624  0.5537  0.1347  0.0900
 6893TIP3    H142094   6.430   2.674   3.528 -0.9983  1.9696  0.1853
 6893TIP3    H242095   6.458   2.764   3.647 -0.2021 -0.0589  1.6047
 6894TIP3   OH242096   2.632   4.250  11.013 -0.5686 -0.2142 -0.2817
 6894TIP3    H142097   2.682   4.296  10.945  0.2443 -0.0980  0.3829
 6894TIP3    H242098   2.697   4.226  11.079 -1.0351 -1.9362 -0.3977
 6895TIP3   OH242099   4.699   4.286   0.364  0.5482  0.0638  0.1603
 6895TIP3    H142100   4.761   4.241   0.307 -0.3647 -1.2572  0.1738
 6895TIP3    H242101   4.752   4.351   0.411  2.0266 -1.3585  0.5459
 6896TIP3   OH242102   3.075   2.260  12.015 -0.5278 -0.4117  0.1081
 6896TIP3    H142103   3.127   2.182  11.994 -0.7574 -0.5362 -0.0041
 6896TIP3    H242104   2.989   2.242  11.977 -0.5310 -0.0289 -0.0674
 6897TIP3   OH242105   2.045   0.241  14.280 -0.1098 -0.7939  0.2296
 6897TIP3    H142106   1.992   0.321  14.277  0.2901 -0.5633 -2.2644
 6897TIP3    H242107   2.131   0.269  14.248  0.5928 -1.8638  1.1223
 6898TIP3   OH242108   2.544   3.986  15.922  0.3080  0.1474 -0.0802
 6898TIP3    H142109   2.479   3.966  15.989 -1.1954 -0.3484 -1.6097
 6898TIP3    H242110   2.546   3.907  15.867  0.8691  0.8545 -1.0911
 6899TIP3   OH242111   3.057   6.759   3.049  0.0198 -0.3286 -0.9006
 6899TIP3    H142112   3.123   6.812   3.094  1.2279 -1.9312 -0.6764
 6899TIP3    H242113   3.055   6.792   2.959  1.7656 -0.7945 -1.1332
 6900TIP3   OH242114   3.587   5.437   5.028 -0.6621 -0.0529  0.1064
 6900TIP3    H142115   3.650   5.407   5.093 -1.3402  1.0006  1.2857
 6900TIP3    H242116   3.575   5.361   4.970  1.3334 -0.4281  0.0835
 6901TIP3   OH242117   6.683   4.733   1.376 -0.2048 -0.3587 -0.2225
 6901TIP3    H142118   6.724   4.667   1.320 -1.8700 -1.6969  0.0258
 6901TIP3    H242119   6.689   4.697   1.464 -0.8095 -0.0222 -0.0310
 6902TIP3   OH242120   5.387   2.583  11.826 -0.3100  0.9702 -0.3774
 6902TIP3    H142121   5.317   2.522  11.849  1.7694 -2.8166 -3.0219
 6902TIP3    H242122   5.454   2.567  11.892  0.8163 -0.8658 -1.8779
 6903TIP3   OH242123   4.316   4.224   5.900  1.1010 -0.3665  0.5256
 6903TIP3    H142124   4.379   4.232   5.828 -0.7463  1.0007 -1.0176
 6903TIP3    H242125   4.335   4.298   5.958  1.1513 -0.1665  0.2539
 6904TIP3   OH242126   4.734   2.212  13.716  0.3846 -0.2595 -0.0369
 6904TIP3    H142127   4.810   2.167  13.754 -0.3404 -0.2010  1.5444
 6904TIP3    H242128   4.671   2.142  13.699  0.0933 -0.0921  0.3656
 6905TIP3   OH242129   5.639   5.092  15.228  0.1268  1.0701 -1.0111
 6905TIP3    H142130   5.592   5.133  15.300 -0.2742  0.7969 -1.1142
 6905TIP3    H242131   5.572   5.044  15.179  0.4979  0.7298 -1.1986
 6906TIP3   OH242132   3.446   6.362  16.732 -0.2961 -0.2589 -0.3768
 6906TIP3    H142133   3.412   6.381  16.819  1.5600 -0.9169  0.5542
 6906TIP3    H242134   3.417   6.435  16.678 -0.0575  1.0447  1.1916
 6907TIP3   OH242135   6.770   2.874  15.993  0.0484 -0.2410 -0.5668
 6907TIP3    H142136   6.793   2.959  15.957 -1.1618  0.9873  1.3845
 6907TIP3    H242137   6.818   2.869  16.076  1.6691 -2.3788 -1.5206
 6908TIP3   OH242138   6.661   3.992  10.739 -0.1878  0.3998  0.2629
 6908TIP3    H142139   6.631   4.061  10.680  1.9748  0.9988 -0.2106
 6908TIP3    H242140   6.748   3.970  10.708  0.6467  0.0544  2.6635
 6909TIP3   OH242141   1.500   6.175   4.909 -0.0006 -0.2948  0.2521
 6909TIP3    H142142   1.464   6.105   4.854 -2.0705  1.0706 -0.2443
 6909TIP3    H242143   1.425   6.205   4.962  1.1281  0.7486  1.3178
 6910TIP3   OH242144   3.433   0.618   1.866  0.1870 -0.1895 -0.3557
 6910TIP3    H142145   3.450   0.561   1.941 -0.7726 -0.2151 -0.1455
 6910TIP3    H242146   3.475   0.573   1.792  0.8211 -0.3467  0.0870
 6911TIP3   OH242147   3.734   5.459   4.669 -0.3399  0.2195  0.0807
 6911TIP3    H142148   3.763   5.540   4.627  0.5461 -0.5355 -0.7915
 6911TIP3    H242149   3.815   5.415   4.695 -0.6034 -1.7821 -2.1166
 6912TIP3   OH242150   0.333   4.850  12.705  0.0498 -0.0068  0.1073
 6912TIP3    H142151   0.262   4.789  12.726 -0.3837 -0.2535 -1.9126
 6912TIP3    H242152   0.288   4.933  12.688  0.1341 -0.3108 -1.7741
 6913TIP3   OH242153   5.147   2.768  11.723 -0.3599 -0.4246 -0.5987
 6913TIP3    H142154   5.099   2.813  11.653  1.2622  0.4271 -1.2266
 6913TIP3    H242155   5.232   2.749  11.685  0.9570  1.0054  1.4350
 6914TIP3   OH242156   1.746   6.023  13.083  0.3852  0.3105  0.4056
 6914TIP3    H142157   1.800   5.944  13.080 -0.9943 -0.9587  4.0677
 6914TIP3    H242158   1.665   6.000  13.038  0.2548 -0.1330  0.8665
 6915TIP3   OH242159   5.997   3.932  17.101 -0.4252  0.1496 -0.5565
 6915TIP3    H142160   5.944   3.920  17.180  0.9780  1.6534  0.6748
 6915TIP3    H242161   6.073   3.876  17.115 -1.0582 -1.1230 -1.8130
 6916TIP3   OH242162   4.360   6.714   3.992  0.2465  0.0478 -0.0771
 6916TIP3    H142163   4.318   6.782   4.044  0.2150 -1.4167  1.8943
 6916TIP3    H242164   4.429   6.761   3.944 -0.5126  1.6454  0.2965
 6917TIP3   OH242165   5.406   3.405  12.425  0.7322 -0.1378  1.1485
 6917TIP3    H142166   5.438   3.334  12.369 -0.7491  0.8404 -1.0696
 6917TIP3    H242167   5.476   3.470  12.425  0.7835 -0.1866  0.4763
 6918TIP3   OH242168   3.090   5.014  14.629 -0.2159 -0.1342 -0.3371
 6918TIP3    H142169   3.027   4.990  14.561 -0.8440  1.2611 -0.2884
 6918TIP3    H242170   3.049   4.985  14.710  1.4559 -3.7252 -0.5843
 6919TIP3   OH242171   4.226   2.894  13.973  0.6513  0.7396  0.2703
 6919TIP3    H142172   4.284   2.885  14.049 -0.4600 -0.4074  1.0257
 6919TIP3    H242173   4.145   2.931  14.009 -0.0113 -0.1427 -0.2906
 6920TIP3   OH242174   0.803   4.774  14.304  0.3446 -0.6676 -0.4904
 6920TIP3    H142175   0.837   4.765  14.393 -0.9788 -0.9752  0.0113
 6920TIP3    H242176   0.714   4.806  14.315  0.7728  1.1617 -1.8052
 6921TIP3   OH242177   5.338   5.449   0.236  0.5280 -0.0574 -0.4778
 6921TIP3    H142178   5.345   5.445   0.140 -2.2236 -1.0641 -0.7253
 6921TIP3    H242179   5.253   5.491   0.251  0.6402 -0.4944  1.5316
 6922TIP3   OH242180   0.816   6.025  12.931  0.1092 -1.3792  0.4312
 6922TIP3    H142181   0.760   6.060  13.001 -0.6488 -1.1113 -0.3012
 6922TIP3    H242182   0.855   5.947  12.970 -0.1670 -1.1382  1.2199
 6923TIP3   OH242183   4.357   3.356  13.714  0.2003  0.0515  0.2871
 6923TIP3    H142184   4.273   3.346  13.671  0.1917 -1.1710  0.5503
 6923TIP3    H242185   4.420   3.368  13.643 -0.2542  1.5422  0.1175
 6924TIP3   OH242186   3.909   0.773   3.822 -0.0847 -0.2575 -0.7386
 6924TIP3    H142187   3.926   0.682   3.795  0.9018  0.1266 -1.4652
 6924TIP3    H242188   3.949   0.826   3.753 -0.6144  0.7406 -0.2952
 6925TIP3   OH242189   3.673   1.682  16.307  0.2331 -0.1799 -0.1052
 6925TIP3    H142190   3.727   1.735  16.249 -0.0044 -1.0657 -1.1572
 6925TIP3    H242191   3.720   1.599  16.315 -0.4931 -0.6227 -0.2893
 6926TIP3   OH242192   6.774   4.194  13.298  0.0006 -0.2438 -0.4149
 6926TIP3    H142193   6.852   4.221  13.250  2.1271  0.3862  3.0683
 6926TIP3    H242194   6.708   4.260  13.274  2.0799  2.2386  0.2338
 6927TIP3   OH242195   6.267   3.336   5.698 -0.5392  0.9707  0.1102
 6927TIP3    H142196   6.323   3.259   5.691 -1.6284  0.2956 -2.5384
 6927TIP3    H242197   6.182   3.302   5.727 -0.7770  1.2838 -0.1995
 6928TIP3   OH242198   1.482   0.144   1.483 -0.1520  0.0487  0.6045
 6928TIP3    H142199   1.480   0.218   1.423 -3.0097  0.4409  1.0201
 6928TIP3    H242200   1.391   0.132   1.510  0.0221 -4.0432  0.0990
 6929TIP3   OH242201   6.373   3.134   2.795  0.2102  0.0235 -0.2500
 6929TIP3    H142202   6.395   3.098   2.881 -0.3151 -0.1175 -0.1709
 6929TIP3    H242203   6.405   3.224   2.798 -1.1926  0.5338  0.6928
 6930TIP3   OH242204   6.335   1.179   1.521  0.2504  0.0639  0.0010
 6930TIP3    H142205   6.423   1.180   1.484 -0.3015 -0.8535 -1.4064
 6930TIP3    H242206   6.336   1.107   1.584  0.7955  0.7262  0.7591
 6931TIP3   OH242207   2.549   1.211   2.167  0.1220 -0.1589  0.2081
 6931TIP3    H142208   2.468   1.207   2.219 -0.4912  0.5551 -0.6616
 6931TIP3    H242209   2.613   1.250   2.225 -0.5183  0.5147  0.4745
 6932TIP3   OH242210   4.384   0.838  11.598  0.5086  0.2217  0.3659
 6932TIP3    H142211   4.391   0.917  11.651  0.9777  0.4753 -0.0731
 6932TIP3    H242212   4.303   0.796  11.628 -0.0693  1.1773  0.1803
 6933TIP3   OH242213   1.926   5.652   3.513  0.3617 -0.5922 -0.4123
 6933TIP3    H142214   2.016   5.674   3.537  0.1520  0.5397 -0.6009
 6933TIP3    H242215   1.873   5.716   3.559 -0.1537  0.6481 -2.5704
 6934TIP3   OH242216   3.322   3.785  15.314  0.2951  0.6060 -0.3814
 6934TIP3    H142217   3.308   3.700  15.270  1.6860  0.2230 -0.1543
 6934TIP3    H242218   3.234   3.815  15.337 -0.1676 -1.8606  1.5713
 6935TIP3   OH242219   1.137   6.188   2.656  0.4759  0.0243 -0.1693
 6935TIP3    H142220   1.101   6.261   2.606  0.0941 -0.4590 -0.6105
 6935TIP3    H242221   1.136   6.218   2.747 -2.0092 -0.3425 -0.0265
 6936TIP3   OH242222   5.492   1.135  15.043 -0.3968  0.1073 -0.0072
 6936TIP3    H142223   5.587   1.143  15.049 -0.3129  2.7252 -2.5690
 6936TIP3    H242224   5.458   1.212  15.088 -1.0852  0.9266 -1.8291
 6937TIP3   OH242225   3.549   5.245  15.130 -0.3257  0.0963 -0.4452
 6937TIP3    H142226   3.539   5.339  15.115 -0.0576  0.1894 -0.0455
 6937TIP3    H242227   3.498   5.227  15.209 -0.4001 -0.1033 -0.5371
 6938TIP3   OH242228   2.278   4.899  10.448  0.2438  0.1494 -0.0498
 6938TIP3    H142229   2.367   4.926  10.470  0.4494  0.5825 -1.3207
 6938TIP3    H242230   2.288   4.818  10.397 -0.1223 -0.1085  0.2797
 6939TIP3   OH242231   1.701   3.472  15.933  0.3259 -0.5376  0.1559
 6939TIP3    H142232   1.723   3.408  15.866  0.5035  0.9480 -1.2462
 6939TIP3    H242233   1.606   3.460  15.947  0.1724 -0.4515 -0.7920
 6940TIP3   OH242234   1.367   4.026  12.599 -0.0799  0.2054  0.0617
 6940TIP3    H142235   1.378   4.089  12.528  2.4382 -0.2973 -0.0582
 6940TIP3    H242236   1.440   4.043  12.658 -0.1903 -1.6366  0.7923
 6941TIP3   OH242237   5.281   1.639  16.060  0.0045  0.4844  0.2482
 6941TIP3    H142238   5.310   1.684  16.139  1.2002  1.6158 -0.7936
 6941TIP3    H242239   5.187   1.659  16.054 -0.3101 -0.3822  1.8315
 6942TIP3   OH242240   6.092   0.398  11.277  0.3975  0.1741 -1.3291
 6942TIP3    H142241   6.046   0.463  11.223  0.3682  0.9386 -0.4203
 6942TIP3    H242242   6.154   0.357  11.217  1.2811  1.9162 -1.6826
 6943TIP3   OH242243   2.552   0.885  10.403  0.1703  0.3809  0.0977
 6943TIP3    H142244   2.596   0.835  10.333 -1.3253 -0.4805 -0.2663
 6943TIP3    H242245   2.486   0.937  10.357 -0.5098  0.1623  0.8154
 6944TIP3   OH242246   6.484   2.723   5.308  0.1096 -0.4488  0.8787
 6944TIP3    H142247   6.401   2.771   5.305  1.2978  1.8592  1.7290
 6944TIP3    H242248   6.511   2.730   5.400  2.4057  1.1339  0.1712
 6945TIP3   OH242249   1.113   1.749   1.906 -0.0655  0.4126 -0.3887
 6945TIP3    H142250   1.144   1.681   1.846 -0.4472 -0.6270  0.5437
 6945TIP3    H242251   1.038   1.709   1.950  0.5755  0.8851  1.2180
 6946TIP3   OH242252   3.759   2.201  12.522  0.2140 -0.0794  0.0009
 6946TIP3    H142253   3.784   2.149  12.598 -1.2659 -1.0315 -0.1155
 6946TIP3    H242254   3.721   2.138  12.460 -1.5140  1.0764 -0.1978
 6947TIP3   OH242255   4.616   1.433   3.123 -0.3967 -0.5282  0.0815
 6947TIP3    H142256   4.658   1.486   3.191 -0.5194 -0.1697 -0.1183
 6947TIP3    H242257   4.664   1.350   3.124  0.3288 -0.1276 -0.1414
 6948TIP3   OH242258   0.445   3.740   0.838 -0.0673  0.6453 -0.2361
 6948TIP3    H142259   0.445   3.831   0.867  1.2108  0.1239  1.5477
 6948TIP3    H242260   0.375   3.699   0.887 -0.1533  0.4943 -0.4834
 6949TIP3   OH242261   5.227   4.456   5.862 -0.0499 -0.1509  0.0696
 6949TIP3    H142262   5.215   4.520   5.932  0.3957 -0.1697  0.1705
 6949TIP3    H242263   5.152   4.468   5.804 -0.7689 -0.5886  0.8945
 6950TIP3   OH242264   5.319   0.523   5.936 -0.0472  0.5592  0.7676
 6950TIP3    H142265   5.236   0.527   5.890  0.8375 -0.1120 -0.9805
 6950TIP3    H242266   5.359   0.440   5.907  1.8173  1.5049  0.4531
 6951TIP3   OH242267   6.738   4.224   3.964  1.2095  0.2657 -0.1807
 6951TIP3    H142268   6.676   4.228   4.037  0.8755 -0.8195 -0.3795
 6951TIP3    H242269   6.791   4.146   3.982  1.6771  0.4648 -0.6688
 6952TIP3   OH242270   3.689   4.807  16.549  0.0762 -0.2192  0.3795
 6952TIP3    H142271   3.623   4.875  16.554  1.2034  0.9283  0.1547
 6952TIP3    H242272   3.680   4.771  16.460 -0.0783  0.1076  0.2637
 6953TIP3   OH242273   1.153   2.425   4.382 -0.1126 -0.6564  0.3174
 6953TIP3    H142274   1.221   2.422   4.314  0.9538 -1.8303  1.3792
 6953TIP3    H242275   1.150   2.517   4.409  2.3967 -0.8189  1.4938
 6954TIP3   OH242276   6.492   0.817   5.976  0.9795  0.3051 -0.0695
 6954TIP3    H142277   6.410   0.769   5.968  0.6366  0.8564  0.0172
 6954TIP3    H242278   6.560   0.751   5.968  0.7008  0.2631 -4.0748
 6955TIP3   OH242279   6.342   0.386   0.255  0.7693 -0.5846 -0.1062
 6955TIP3    H142280   6.330   0.350   0.343  0.0234 -0.4444 -0.1463
 6955TIP3    H242281   6.421   0.440   0.262  0.8455 -0.7625  0.4164
 6956TIP3   OH242282   5.749   1.677   1.383 -0.0738  0.4204  0.1307
 6956TIP3    H142283   5.664   1.713   1.408 -0.2730  2.8908 -3.3717
 6956TIP3    H242284   5.813   1.741   1.414  0.2530  0.0430  0.2472
 6957TIP3   OH242285   4.456   0.536   6.551  0.3306 -0.2113  0.3030
 6957TIP3    H142286   4.385   0.475   6.569  2.0533 -1.5495  3.1773
 6957TIP3    H242287   4.536   0.488   6.572  1.8681  2.4304  1.0021
 6958TIP3   OH242288   6.204   4.240   2.357  0.0958 -0.6134  0.0231
 6958TIP3    H142289   6.111   4.260   2.342 -0.2272 -2.1493 -0.1347
 6958TIP3    H242290   6.242   4.325   2.380 -1.8382 -0.3427  2.7447
 6959TIP3   OH242291   2.271   5.935   4.739 -0.1516 -0.0257  0.1873
 6959TIP3    H142292   2.345   5.986   4.703 -0.1381 -0.7606 -0.8615
 6959TIP3    H242293   2.309   5.887   4.812  0.9502 -1.9333 -1.5449
 6960TIP3   OH242294   1.922   4.960  11.221 -0.2276 -0.7106  0.0555
 6960TIP3    H142295   1.991   5.023  11.197 -0.2326  0.5004  2.8691
 6960TIP3    H242296   1.967   4.895  11.275 -1.0800 -0.4278  1.1387
 6961TIP3   OH242297   5.800   2.910   0.939 -0.3134 -0.3921 -0.1995
 6961TIP3    H142298   5.730   2.963   0.977 -2.0318 -2.3595 -0.4091
 6961TIP3    H242299   5.763   2.877   0.857  0.8877 -1.4386 -0.3544
 6962TIP3   OH242300   4.112   5.219   5.538 -0.0864  0.3114  0.1333
 6962TIP3    H142301   4.033   5.218   5.484 -0.2536 -0.3373  0.3825
 6962TIP3    H242302   4.087   5.171   5.617  1.1844 -1.8115 -0.6789
 6963TIP3   OH242303   1.496   2.093   4.610 -0.0121 -0.2856  0.4749
 6963TIP3    H142304   1.483   2.007   4.571  2.1899 -0.2328 -0.4791
 6963TIP3    H242305   1.589   2.097   4.632 -0.5891  0.7632  3.2463
 6964TIP3   OH242306   4.844   2.446  13.843 -0.6077 -0.2745  0.0796
 6964TIP3    H142307   4.829   2.362  13.800  0.4949  0.0406 -0.9510
 6964TIP3    H242308   4.889   2.499  13.778  2.4932 -0.2647  2.0452
 6965TIP3   OH242309   4.257   1.058  12.694  0.4985 -0.1142 -0.4049
 6965TIP3    H142310   4.325   1.118  12.664  0.5477  0.2905  0.4807
 6965TIP3    H242311   4.270   1.052  12.789 -0.6572 -0.0788 -0.2282
 6966TIP3   OH242312   1.411   1.416   4.030  0.3388  0.4811  0.0219
 6966TIP3    H142313   1.349   1.395   4.100 -0.3927  0.2009 -0.6922
 6966TIP3    H242314   1.355   1.434   3.953  1.1513 -2.6979 -1.4623
 6967TIP3   OH242315   4.108   2.436   3.719  0.2245  0.3208 -0.7295
 6967TIP3    H142316   4.173   2.413   3.653 -0.5134 -0.0191 -1.3601
 6967TIP3    H242317   4.110   2.531   3.725  2.0171  0.2541  0.5583
 6968TIP3   OH242318   1.693   6.541  14.365  0.3488  0.0302 -0.4630
 6968TIP3    H142319   1.740   6.527  14.282  0.3483 -1.8981 -0.1770
 6968TIP3    H242320   1.751   6.504  14.432  0.0488  0.9778  0.3591
 6969TIP3   OH242321   0.091   2.175  14.792  0.2143  0.2357  0.3752
 6969TIP3    H142322   0.169   2.229  14.803  0.7000 -0.6342  1.4132
 6969TIP3    H242323   0.102   2.133  14.706 -0.7916  2.6882 -1.0530
 6970TIP3   OH242324   5.704   6.571   4.323  0.2426 -0.7503  0.1139
 6970TIP3    H142325   5.684   6.544   4.412  0.1754 -0.3504  0.2236
 6970TIP3    H242326   5.640   6.640   4.303  0.3305 -0.7538 -0.1995
 6971TIP3   OH242327   4.632   1.885   3.046  0.3420  0.1015  0.7817
 6971TIP3    H142328   4.641   1.937   2.966 -1.1032  0.7873  1.0283
 6971TIP3    H242329   4.679   1.935   3.112 -1.4552  1.4643  1.1365
 6972TIP3   OH242330   0.429   5.085   5.439  0.8568  0.3476 -0.1418
 6972TIP3    H142331   0.405   5.016   5.377 -0.7594  0.0741  0.7349
 6972TIP3    H242332   0.361   5.083   5.505  1.8236  1.5279  0.9487
 6973TIP3   OH242333   2.930   4.846   3.168  0.2058  0.1446  0.3013
 6973TIP3    H142334   2.918   4.784   3.240 -0.9689 -0.5515 -0.4514
 6973TIP3    H242335   2.966   4.925   3.209 -1.4156  0.1434  1.8206
 6974TIP3   OH242336   4.897   3.076  13.258 -0.3481 -0.3357  0.4488
 6974TIP3    H142337   4.823   3.040  13.208  0.6557 -0.7432 -0.7852
 6974TIP3    H242338   4.967   3.013  13.245  0.4903  0.4911  0.8874
 6975TIP3   OH242339   5.432   1.160   3.352  0.4473  0.4215 -0.1274
 6975TIP3    H142340   5.408   1.247   3.320 -0.4623 -0.1824 -1.1688
 6975TIP3    H242341   5.450   1.173   3.446  1.0477  1.8454 -0.4156
 6976TIP3   OH242342   1.357   2.283   3.173 -0.2589 -0.3759  0.0982
 6976TIP3    H142343   1.266   2.262   3.196 -0.4353  0.7810  0.5093
 6976TIP3    H242344   1.357   2.377   3.159  1.3063 -0.0182  2.1215
 6977TIP3   OH242345   1.247   1.447   4.903 -0.0758 -0.3311 -0.1703
 6977TIP3    H142346   1.174   1.479   4.957  0.7655  1.8795 -0.2437
 6977TIP3    H242347   1.324   1.487   4.943  1.2152 -3.0655  0.2404
 6978TIP3   OH242348   6.571   2.059   1.963  0.6430  0.0319 -0.4590
 6978TIP3    H142349   6.553   2.108   1.882  0.6870 -0.3695 -0.7126
 6978TIP3    H242350   6.562   1.967   1.938 -0.6698 -0.0746  0.3058
 6979TIP3   OH242351   6.125   0.584   1.504 -0.9850  0.0246 -0.0459
 6979TIP3    H142352   6.157   0.613   1.590 -0.6446 -0.6506  0.0635
 6979TIP3    H242353   6.079   0.502   1.522 -0.5297 -0.3509 -0.5627
 6980TIP3   OH242354   1.536   0.476  16.455  0.0429  0.5291 -0.0346
 6980TIP3    H142355   1.626   0.507  16.464  0.4525 -0.6654  0.1890
 6980TIP3    H242356   1.482   0.544  16.495  0.8416  1.2879 -0.2365
 6981TIP3   OH242357   3.557   2.534  13.195  0.1902  0.4021 -0.4258
 6981TIP3    H142358   3.627   2.599  13.192  1.8482 -1.2702  0.1096
 6981TIP3    H242359   3.569   2.489  13.279  0.1634 -1.6733 -1.4513
 6982TIP3   OH242360   2.998   3.821   5.113 -0.1282  0.3049 -0.1059
 6982TIP3    H142361   3.081   3.774   5.108 -0.4445 -0.8622  3.1387
 6982TIP3    H242362   3.010   3.897   5.056  2.5126 -0.6987 -1.0427
 6983TIP3   OH242363   1.227   4.608   2.294 -0.6938  0.2341 -0.3073
 6983TIP3    H142364   1.146   4.637   2.334  1.3800  2.6988  2.5985
 6983TIP3    H242365   1.275   4.565   2.365  0.2214 -2.0870 -2.1842
 6984TIP3   OH242366   6.240   3.578  15.744  0.1335 -0.4468  0.2859
 6984TIP3    H142367   6.188   3.498  15.748 -1.7720  0.7496  0.6264
 6984TIP3    H242368   6.257   3.600  15.836  0.4362 -0.3133  0.1994
 6985TIP3   OH242369   0.463   4.952   3.340  0.6608  0.2971  0.4086
 6985TIP3    H142370   0.372   4.963   3.313  0.8370 -0.8586 -0.7533
 6985TIP3    H242371   0.514   4.974   3.263  1.2625 -0.9953  0.4040
 6986TIP3   OH242372   0.030   5.091   1.602 -0.2304 -0.3325  0.4453
 6986TIP3    H142373   0.028   5.171   1.654 -0.3460 -1.6130  2.5451
 6986TIP3    H242374  -0.045   5.040   1.633 -0.4194 -1.0952 -1.1525
 6987TIP3   OH242375   3.373   3.218   1.448 -0.2766  0.6314 -0.4298
 6987TIP3    H142376   3.369   3.170   1.365  1.9018 -0.7046  0.1470
 6987TIP3    H242377   3.357   3.152   1.515  0.2483  1.2239  0.2943
 6988TIP3   OH242378   0.498   6.363   1.757  0.5255 -0.4657 -0.7573
 6988TIP3    H142379   0.559   6.305   1.711 -0.2164 -1.0747 -0.9886
 6988TIP3    H242380   0.426   6.376   1.696  0.1971 -0.1278 -0.3047
 6989TIP3   OH242381   1.710   3.861   4.642  0.7231  0.5430  0.0873
 6989TIP3    H142382   1.667   3.802   4.581  0.6865  1.6488 -0.9906
 6989TIP3    H242383   1.744   3.804   4.711 -0.2620 -0.5991 -0.3476
 6990TIP3   OH242384   6.184   1.733  14.168  0.1511 -0.0732  0.3527
 6990TIP3    H142385   6.174   1.638  14.160 -0.5004 -0.0200  0.4775
 6990TIP3    H242386   6.212   1.746  14.259 -1.8705 -0.0168  1.0290
 6991TIP3   OH242387   2.677   0.884   5.103 -0.1950  0.0404  0.4249
 6991TIP3    H142388   2.608   0.875   5.169 -0.0023 -0.6567  0.5333
 6991TIP3    H242389   2.633   0.925   5.028 -0.6123  0.0483  0.6727
 6992TIP3   OH242390   0.866   2.566   5.262 -0.5339  0.8169 -0.1478
 6992TIP3    H142391   0.799   2.551   5.328  0.4255 -0.4207  0.5971
 6992TIP3    H242392   0.881   2.479   5.223  0.8813  0.9716 -0.0229
 6993TIP3   OH242393   4.489   2.172   5.469 -0.3536 -0.6780 -0.3140
 6993TIP3    H142394   4.516   2.125   5.548 -0.1493 -1.2886 -0.7301
 6993TIP3    H242395   4.425   2.236   5.499 -0.2020 -0.8327  0.3578
 6994TIP3   OH242396   5.103   3.876   0.775 -0.3013  0.2606  0.3179
 6994TIP3    H142397   5.123   3.785   0.755  0.2996  0.4402  0.0961
 6994TIP3    H242398   5.080   3.876   0.868  0.1172 -0.0427  0.4208
 6995TIP3   OH242399   0.850   0.397  11.788  0.5801 -0.0759  0.2398
 6995TIP3    H142400   0.779   0.410  11.726 -1.2488 -2.1187  1.7830
 6995TIP3    H242401   0.896   0.481  11.789 -1.7862  1.3382 -0.8316
 6996TIP3   OH242402   3.033   6.158  12.508 -0.2336  0.8482  0.3486
 6996TIP3    H142403   3.010   6.111  12.589 -0.8965 -1.1638 -0.9232
 6996TIP3    H242404   2.953   6.155  12.456  0.4173  1.4062 -0.6999
 6997TIP3   OH242405   2.577   5.743   2.376 -0.1339 -0.7057 -0.4382
 6997TIP3    H142406   2.483   5.738   2.396  0.1695 -1.1649  1.0219
 6997TIP3    H242407   2.615   5.667   2.421  0.9301 -0.5921 -1.1064
 6998TIP3   OH242408   2.960   3.259  11.562  0.1606 -0.2029 -0.1562
 6998TIP3    H142409   3.051   3.283  11.576 -0.1281  1.2288 -0.5112
 6998TIP3    H242410   2.912   3.341  11.572 -0.6513 -0.0244 -3.9315
 6999TIP3   OH242411   5.242   3.649  14.207  0.0909  0.6377  0.2096
 6999TIP3    H142412   5.327   3.673  14.170  0.4247  0.9613  1.1686
 6999TIP3    H242413   5.253   3.659  14.302 -0.9517  0.4694  0.3586
 7000TIP3   OH242414   4.091   3.888  12.481  0.6641 -0.1306  0.1158
 7000TIP3    H142415   4.156   3.818  12.477  1.3433  0.4830  0.1509
 7000TIP3    H242416   4.110   3.942  12.404 -1.6181 -1.4797 -1.5269
 7001TIP3   OH242417   5.723   5.729  16.594 -0.4236 -0.5214  0.3497
 7001TIP3    H142418   5.660   5.735  16.666  2.7586 -0.3531  3.4538
 7001TIP3    H242419   5.786   5.663  16.624  1.2407 -0.2137 -2.1832
 7002TIP3   OH242420   4.998   0.945  14.363  0.0267 -0.2868 -1.0300
 7002TIP3    H142421   4.916   0.924  14.408  0.3902 -1.3349 -0.8209
 7002TIP3    H242422   5.007   0.875  14.298 -0.0373  0.7085 -2.1363
 7003TIP3   OH242423   3.971   5.477   5.498  0.4159 -0.2630  0.4582
 7003TIP3    H142424   4.021   5.453   5.576  0.3315 -2.3005 -0.0597
 7003TIP3    H242425   4.036   5.512   5.437  0.3399  2.3793  1.7435
 7004TIP3   OH242426   3.777   1.991   2.045 -0.0545  0.1071 -0.2672
 7004TIP3    H142427   3.834   1.924   2.084 -1.8546 -0.5036  1.5348
 7004TIP3    H242428   3.821   2.074   2.063  0.4500 -0.3670  0.7539
 7005TIP3   OH242429   1.083   0.397  12.908  0.3050 -0.3727 -0.2355
 7005TIP3    H142430   1.090   0.351  12.992  1.1749 -0.6720 -0.4622
 7005TIP3    H242431   1.073   0.489  12.932 -0.8122 -0.5893  0.2111
 7006TIP3   OH242432   3.827   6.416  10.816 -0.0412  0.5229 -0.1737
 7006TIP3    H142433   3.851   6.355  10.747 -1.1867  0.9561 -1.0001
 7006TIP3    H242434   3.910   6.449  10.850  0.5709  1.2720 -2.2537
 7007TIP3   OH242435   0.642   3.592  12.022 -0.0108 -0.1551  0.1634
 7007TIP3    H142436   0.732   3.576  12.050  0.3680  2.8291  1.0233
 7007TIP3    H242437   0.589   3.556  12.093  0.5596 -0.4395  0.4554
 7008TIP3   OH242438   2.388   5.166  12.772  0.2357 -0.3526  0.6880
 7008TIP3    H142439   2.295   5.148  12.756 -0.1438  0.5573  1.7432
 7008TIP3    H242440   2.434   5.091  12.733 -0.9411 -0.8710  0.2475
 7009TIP3   OH242441   3.636   6.083   2.534 -0.0410  0.4689  0.4528
 7009TIP3    H142442   3.612   6.077   2.626  0.4195 -1.3775  0.4869
 7009TIP3    H242443   3.729   6.062   2.532 -0.1242  0.1525 -0.4633
 7010TIP3   OH242444   6.641   2.637   1.867  0.2019 -0.2962 -0.0360
 7010TIP3    H142445   6.655   2.557   1.917  1.4248 -1.2273 -1.7708
 7010TIP3    H242446   6.724   2.685   1.872 -0.1586  0.3331  0.0725
 7011TIP3   OH242447   0.661   3.302  15.887 -0.4477 -0.9176 -0.5458
 7011TIP3    H142448   0.662   3.207  15.882  0.6837 -0.9230 -0.5807
 7011TIP3    H242449   0.682   3.330  15.798  2.0880 -0.7068  0.0549
 7012TIP3   OH242450   0.391   2.303  13.042  0.3287  0.1787 -0.5787
 7012TIP3    H142451   0.334   2.319  13.118 -0.7437 -1.9244 -0.8588
 7012TIP3    H242452   0.378   2.379  12.986 -1.2082  0.3768 -0.0084
 7013TIP3   OH242453   2.649   5.179   3.766  0.0329  0.4323  0.0712
 7013TIP3    H142454   2.611   5.243   3.706 -1.2714  1.8976  2.3076
 7013TIP3    H242455   2.607   5.096   3.742 -1.1136  1.1545 -0.5267
 7014TIP3   OH242456   3.067   0.350  11.416  0.2734 -0.3986 -0.4325
 7014TIP3    H142457   3.012   0.427  11.432  0.2785 -0.4695 -0.0839
 7014TIP3    H242458   3.023   0.304  11.344 -0.0664 -0.3968 -0.2273
 7015TIP3   OH242459   5.038   6.655  12.338  0.1574  0.0453 -0.2053
 7015TIP3    H142460   5.007   6.743  12.319  1.7673  0.5316 -0.7762
 7015TIP3    H242461   5.041   6.651  12.434 -1.6827 -0.0680 -0.1265
 7016TIP3   OH242462   4.520   1.047  15.975  0.0181  0.7612 -0.5939
 7016TIP3    H142463   4.603   1.020  16.013  1.1858  0.7548 -2.9876
 7016TIP3    H242464   4.484   1.110  16.037  1.8309  0.8015  0.4640
 7017TIP3   OH242465   5.553   1.276   3.878  0.3423 -0.5864 -0.0071
 7017TIP3    H142466   5.630   1.266   3.935  1.2730  0.8992 -0.9351
 7017TIP3    H242467   5.512   1.358   3.908 -0.7684 -1.2394  0.3175
 7018TIP3   OH242468   6.674   0.479   1.925 -0.2118 -0.7191  0.6293
 7018TIP3    H142469   6.728   0.492   2.003  0.2135  0.9959  0.0824
 7018TIP3    H242470   6.632   0.563   1.910  0.4097 -0.7264 -1.4908
 7019TIP3   OH242471   6.152   2.074   0.394  0.1568 -0.1902  0.0795
 7019TIP3    H142472   6.136   2.028   0.311 -0.1683 -1.1014  0.6270
 7019TIP3    H242473   6.197   2.009   0.449  0.6831  0.5154  0.5013
 7020TIP3   OH242474   0.386   4.855   1.914  0.3187  0.1041 -0.4799
 7020TIP3    H142475   0.390   4.948   1.936  1.0678 -0.1737  0.6796
 7020TIP3    H242476   0.320   4.819   1.973  0.9090 -0.3108 -0.0671
 7021TIP3   OH242477   0.317   1.690  11.597  0.2590  0.3414  0.6603
 7021TIP3    H142478   0.255   1.699  11.669 -0.9161  0.0811 -0.2748
 7021TIP3    H242479   0.276   1.738  11.525  0.3877 -1.1194 -0.4316
 7022TIP3   OH242480   5.851   4.806   1.352 -0.0748 -0.1938  0.0402
 7022TIP3    H142481   5.852   4.899   1.375  1.1636 -0.4095  0.9688
 7022TIP3    H242482   5.809   4.764   1.427  2.3110 -0.6981  1.2074
 7023TIP3   OH242483   4.438   6.729  15.639  0.0460  0.1219  0.3928
 7023TIP3    H142484   4.499   6.741  15.711 -0.0311  0.5870  0.3825
 7023TIP3    H242485   4.356   6.703  15.681 -0.1628  0.9634  0.5242
 7024TIP3   OH242486   1.817   3.253   2.491 -0.2285  0.1252 -0.2297
 7024TIP3    H142487   1.905   3.263   2.528  0.4440  0.0533 -1.7617
 7024TIP3    H242488   1.774   3.336   2.513  1.0379  1.1813 -1.5466
 7025TIP3   OH242489   1.883   2.476   2.035 -0.3798  0.3919  0.4870
 7025TIP3    H142490   1.829   2.492   2.112 -0.1224  1.5497  0.4536
 7025TIP3    H242491   1.973   2.487   2.066 -0.2059 -0.3973  0.2923
 7026TIP3   OH242492   5.965   1.164  14.094  0.1120 -0.0123 -0.5049
 7026TIP3    H142493   5.890   1.136  14.146 -1.4835  1.2057 -2.0297
 7026TIP3    H242494   6.035   1.176  14.158  0.4594 -5.2379  0.5629
 7027TIP3   OH242495   3.546   5.965   5.298  0.0076 -0.2091  0.4302
 7027TIP3    H142496   3.612   6.008   5.243 -0.1270 -0.0008  0.4309
 7027TIP3    H242497   3.597   5.925   5.368  0.0192  1.3821  1.3834
 7028TIP3   OH242498   3.987   6.503  14.770 -0.0519  0.8194  0.1812
 7028TIP3    H142499   3.995   6.568  14.840  0.7852 -1.5000  2.3948
 7028TIP3    H242500   4.075   6.464  14.763 -0.5020 -0.0346 -1.1155
 7029TIP3   OH242501   6.491   0.700  14.369  0.1116 -0.1512  0.3388
 7029TIP3    H142502   6.401   0.669  14.356  0.2485 -0.0455 -1.0981
 7029TIP3    H242503   6.503   0.701  14.463 -0.8018 -1.8794  0.5158
 7030TIP3   OH242504   4.773   1.178  11.154 -0.1489 -0.4970 -0.0887
 7030TIP3    H142505   4.763   1.273  11.161 -0.6868 -0.6206  1.2750
 7030TIP3    H242506   4.695   1.150  11.108  0.6991 -0.1663 -1.7954
 7031TIP3   OH242507   5.589   1.156  14.438  0.3127 -0.5824  0.6087
 7031TIP3    H142508   5.544   1.097  14.499  1.6421 -0.8360  1.3896
 7031TIP3    H242509   5.626   1.098  14.371 -1.2188 -0.2957 -0.5369
 7032TIP3   OH242510   3.557   4.660  13.779  0.4220  0.4432 -0.3089
 7032TIP3    H142511   3.624   4.615  13.728 -0.9811  0.6482 -2.4966
 7032TIP3    H242512   3.496   4.591  13.805  0.0890  0.6047 -0.6514
 7033TIP3   OH242513   5.234   0.171   2.021  0.1453  0.5995 -0.7839
 7033TIP3    H142514   5.212   0.186   2.113  0.5180  2.9953 -1.0273
 7033TIP3    H242515   5.241   0.076   2.014  0.8893  0.3750  1.8482
 7034TIP3   OH242516   1.163   1.480  11.981 -0.2644 -0.2540 -0.7582
 7034TIP3    H142517   1.128   1.413  11.922 -0.4681  0.1243 -1.0686
 7034TIP3    H242518   1.127   1.562  11.948 -0.7196 -0.0834  0.1471
 7035TIP3   OH242519   1.162   3.409  16.699  0.3371  0.2197  0.0816
 7035TIP3    H142520   1.160   3.505  16.694  0.5272  0.2493  0.4869
 7035TIP3    H242521   1.078   3.381  16.662  1.1596  0.4314 -2.0449
 7036TIP3   OH242522   6.753   3.990   1.916  0.3959 -0.2750  0.4664
 7036TIP3    H142523   6.703   3.939   1.979  1.1217 -2.8177 -0.8771
 7036TIP3    H242524   6.687   4.029   1.858 -0.2917  2.2996  2.7791
 7037TIP3   OH242525   2.237   6.224   5.999 -0.3116  0.2678 -0.7613
 7037TIP3    H142526   2.219   6.130   6.008 -1.3511  0.4874 -0.3381
 7037TIP3    H242527   2.325   6.235   6.035 -0.5642 -0.4079  0.1196
 7038TIP3   OH242528   6.690   4.300   5.983  0.2031  0.9202 -0.0133
 7038TIP3    H142529   6.653   4.311   5.896  0.2768  3.1626  0.1717
 7038TIP3    H242530   6.669   4.382   6.029  1.9525  0.6670  1.3815
 7039TIP3   OH242531   6.418   4.486  10.497  0.1034  0.0265 -1.1203
 7039TIP3    H142532   6.493   4.532  10.533 -0.8497  0.6871  0.1248
 7039TIP3    H242533   6.343   4.541  10.519 -0.8873 -1.2476 -1.1474
 7040TIP3   OH242534   4.351   1.580  15.562 -0.0629  0.1196  0.2029
 7040TIP3    H142535   4.402   1.627  15.628 -0.1838  1.5152 -0.6513
 7040TIP3    H242536   4.389   1.608  15.478 -3.0657  2.3784 -0.5757
 7041TIP3   OH242537   3.759   3.370  13.380 -0.2484 -0.1677 -0.1188
 7041TIP3    H142538   3.747   3.464  13.385  1.2254  0.0175  0.6148
 7041TIP3    H242539   3.698   3.341  13.312 -0.3226  1.3805 -0.7485
 7042TIP3   OH242540   6.213   4.048   5.553 -0.1037  0.0357  0.1742
 7042TIP3    H142541   6.245   4.073   5.640 -0.8770 -2.2795  1.2262
 7042TIP3    H242542   6.291   4.047   5.498  1.0586 -1.7598  1.7216
 7043TIP3   OH242543   2.538   0.177  12.727 -0.5108 -0.3654  0.0934
 7043TIP3    H142544   2.595   0.248  12.755 -2.6926  1.1243  1.0425
 7043TIP3    H242545   2.507   0.204  12.640 -0.3302 -0.7899 -0.1023
 7044TIP3   OH242546   4.900   0.261  14.926 -0.0110  0.1440 -0.3230
 7044TIP3    H142547   4.806   0.270  14.908 -0.0748  1.3308  0.4816
 7044TIP3    H242548   4.911   0.168  14.948 -0.6960 -0.3665 -1.9418
 7045TIP3   OH242549   2.434   4.576  16.459 -0.2182 -0.0490 -0.1418
 7045TIP3    H142550   2.508   4.583  16.398 -0.7911  2.0911 -0.6556
 7045TIP3    H242551   2.357   4.575  16.402 -0.8719  3.6286  0.4391
 7046TIP3   OH242552   5.802   0.310  14.834 -0.3042 -0.1614 -0.1952
 7046TIP3    H142553   5.836   0.306  14.745 -0.0393  0.0696 -0.1049
 7046TIP3    H242554   5.733   0.376  14.831  0.5553  0.7672  0.0470
 7047TIP3   OH242555   4.051   1.033  15.164  0.2824  0.0580 -0.2001
 7047TIP3    H142556   3.977   1.055  15.220  0.7188  0.4756  0.2186
 7047TIP3    H242557   4.062   1.110  15.108  1.0555  0.4237  0.4478
 7048TIP3   OH242558   1.273   5.776  10.912  0.2981 -0.3379 -0.4421
 7048TIP3    H142559   1.230   5.861  10.906 -1.5210 -1.2454 -0.8959
 7048TIP3    H242560   1.206   5.713  10.885  2.5201 -1.6892 -3.4729
 7049TIP3   OH242561   2.277   0.773  10.761  0.0486 -0.3003 -0.0588
 7049TIP3    H142562   2.368   0.791  10.736 -0.0859  0.1276 -0.2431
 7049TIP3    H242563   2.285   0.710  10.833  0.4432 -1.3490 -0.9874
 7050TIP3   OH242564   0.224   5.393   0.429 -0.3718 -0.2175  0.5120
 7050TIP3    H142565   0.246   5.337   0.504  1.6093 -1.4015 -0.8494
 7050TIP3    H242566   0.305   5.439   0.410 -0.1699 -1.4545 -2.0900
 7051TIP3   OH242567   1.218   0.920  16.421 -0.0460 -0.0004  0.1156
 7051TIP3    H142568   1.195   0.827  16.429 -0.8088 -0.0135 -1.7634
 7051TIP3    H242569   1.174   0.949  16.341  0.9715  1.7462  0.1414
 7052TIP3   OH242570   6.303   2.264   3.854 -0.1092  0.4220 -0.0907
 7052TIP3    H142571   6.277   2.320   3.781  0.6389  1.2987  0.2952
 7052TIP3    H242572   6.330   2.325   3.923 -0.0074 -0.4034  0.6188
 7053TIP3   OH242573   6.065   4.676   3.834 -0.3431  0.6389  0.3340
 7053TIP3    H142574   6.063   4.655   3.927  0.6060  0.6657  0.3633
 7053TIP3    H242575   5.987   4.633   3.799 -0.9560  1.0044  1.2098
 7054TIP3   OH242576   6.456   5.739   4.754  0.5752  0.1682  0.0701
 7054TIP3    H142577   6.450   5.765   4.846 -1.1159 -0.0139  0.0340
 7054TIP3    H242578   6.448   5.821   4.705 -1.8184 -0.0214  0.0356
 7055TIP3   OH242579   5.960   5.524  11.575  0.0023 -0.1141 -0.0905
 7055TIP3    H142580   6.021   5.487  11.640  1.6524  0.5553 -1.1843
 7055TIP3    H242581   5.990   5.487  11.491 -0.2144  1.3283 -0.8253
 7056TIP3   OH242582   3.082   3.926  16.958 -0.1973  0.2000 -0.0938
 7056TIP3    H142583   3.076   4.000  16.896  3.3989  0.0730 -0.8336
 7056TIP3    H242584   3.071   3.966  17.044  2.6635  1.9482 -0.4008
 7057TIP3   OH242585   1.385   1.394   3.687  0.0545 -0.0628  0.0511
 7057TIP3    H142586   1.293   1.375   3.667  0.0826 -0.6183  0.4109
 7057TIP3    H242587   1.420   1.310   3.716  0.5885  0.2282  0.2495
 7058TIP3   OH242588   5.582   3.684   6.259 -0.1802 -0.0163 -0.0786
 7058TIP3    H142589   5.501   3.729   6.234 -1.6667 -1.1643  2.3624
 7058TIP3    H242590   5.642   3.755   6.283 -1.0329  0.7914 -0.2489
 7059TIP3   OH242591   4.387   0.778  10.834 -0.5146  0.6672 -0.0400
 7059TIP3    H142592   4.453   0.751  10.898 -2.0385 -2.2203  0.4416
 7059TIP3    H242593   4.378   0.704  10.774 -2.6171  1.3325 -0.6526
 7060TIP3   OH242594   2.081   5.901  14.599  0.1675  0.2860  0.5732
 7060TIP3    H142595   2.076   5.924  14.692 -0.8402 -1.1107  0.8980
 7060TIP3    H242596   2.173   5.882  14.584  0.7572  2.7212  0.6863
 7061TIP3   OH242597   5.175   3.844  14.816 -0.0229  0.1756  0.3892
 7061TIP3    H142598   5.218   3.763  14.790  0.5324  0.4850  0.3211
 7061TIP3    H242599   5.192   3.851  14.910 -1.3451 -0.5362  0.7019
 7062TIP3   OH242600   4.819   6.633  13.648  0.2038 -0.0355  0.6409
 7062TIP3    H142601   4.734   6.653  13.608 -0.3424 -0.5472  1.5071
 7062TIP3    H242602   4.834   6.541  13.626 -1.0648 -0.9505  3.2019
 7063TIP3   OH242603   5.344   2.428   1.159  0.1404 -0.0314 -0.3048
 7063TIP3    H142604   5.429   2.469   1.173  1.7310 -3.2535  0.6000
 7063TIP3    H242605   5.309   2.413   1.247  1.0131 -3.0210 -0.3605
 7064TIP3   OH242606   5.735   2.523  12.485  0.4987  0.5065 -0.2882
 7064TIP3    H142607   5.830   2.527  12.476  0.5467  0.1250 -0.0209
 7064TIP3    H242608   5.708   2.613  12.500  0.8391  0.5977 -0.2077
 7065TIP3   OH242609   5.343   4.613   0.002 -0.4340  0.0151 -0.3138
 7065TIP3    H142610   5.275   4.547  -0.014  0.3224 -0.3054 -2.5173
 7065TIP3    H242611   5.420   4.562   0.028 -0.1678  0.1203 -0.8945
 7066TIP3   OH242612   1.661   4.877  13.328  0.1034 -0.5139  0.3801
 7066TIP3    H142613   1.599   4.947  13.306 -0.1514 -0.6383  0.6976
 7066TIP3    H242614   1.745   4.908  13.294 -0.1413 -0.3732 -0.1127
 7067TIP3   OH242615   4.108   3.621  14.091 -1.0319 -0.4144  0.4615
 7067TIP3    H142616   4.170   3.557  14.055  1.1629  0.9198  1.5978
 7067TIP3    H242617   4.106   3.601  14.185 -0.5050  0.9714  0.7892
 7068TIP3   OH242618   4.983   5.850   1.224  0.4300 -0.1734  0.1025
 7068TIP3    H142619   4.952   5.914   1.160  1.2569  0.2036  0.0677
 7068TIP3    H242620   4.919   5.854   1.296 -0.6295 -0.7466 -0.7631
 7069TIP3   OH242621   0.220   5.477   2.242 -0.3655  0.1836  0.1733
 7069TIP3    H142622   0.303   5.521   2.261  0.5859 -1.3772 -0.2085
 7069TIP3    H242623   0.192   5.515   2.159 -1.2478  2.3481  1.3531
 7070TIP3   OH242624   0.058   4.234  14.579  0.3428  0.1093 -0.1759
 7070TIP3    H142625   0.005   4.252  14.656  0.2811  1.2742 -0.4738
 7070TIP3    H242626   0.049   4.140  14.566 -2.1805  0.3238 -0.5716
 7071TIP3   OH242627   1.339   2.697   6.164 -0.1241  0.8148  0.6474
 7071TIP3    H142628   1.391   2.668   6.088 -0.3833  0.3380  0.6491
 7071TIP3    H242629   1.375   2.784   6.185  0.9142  0.3482  0.8719
 7072TIP3   OH242630   4.786   2.813  13.392  0.1205  0.7413  0.3294
 7072TIP3    H142631   4.868   2.849  13.360  0.8526 -0.9272  0.2473
 7072TIP3    H242632   4.741   2.782  13.314  0.0351  0.4174  0.5063
 7073TIP3   OH242633   4.986   0.944   0.224 -0.1262 -0.4341  0.9571
 7073TIP3    H142634   5.069   0.902   0.199  0.7170  0.7492  1.6226
 7073TIP3    H242635   4.921   0.875   0.217  0.9137 -1.3945  0.3663
 7074TIP3   OH242636   6.197   2.198   2.375  0.2916  0.1695 -0.0854
 7074TIP3    H142637   6.276   2.162   2.335  1.2251  2.5594 -0.5847
 7074TIP3    H242638   6.174   2.135   2.444  2.4711 -0.7460 -0.1072
 7075TIP3   OH242639   4.349   6.128   5.048  0.6570 -0.0819  0.1724
 7075TIP3    H142640   4.380   6.157   4.963  1.8239  0.9590  0.9093
 7075TIP3    H242641   4.367   6.034   5.051 -1.2971 -0.5742 -1.4789
 7076TIP3   OH242642   3.530   1.389  12.881  0.4072  0.1664 -0.2960
 7076TIP3    H142643   3.471   1.319  12.852  0.2429 -0.6192  1.7382
 7076TIP3    H242644   3.615   1.346  12.892  0.9728  0.9077 -1.5338
 7077TIP3   OH242645   6.568   6.663  12.303  0.1963  0.0220  0.1867
 7077TIP3    H142646   6.484   6.663  12.349  0.2654  1.1533  0.3285
 7077TIP3    H242647   6.589   6.570  12.292 -1.8733 -0.3259 -1.3602
 7078TIP3   OH242648   5.840   4.237  14.040 -0.6957  0.0947  1.0540
 7078TIP3    H142649   5.873   4.150  14.016 -0.5737  0.5184 -0.3812
 7078TIP3    H242650   5.889   4.297  13.985 -0.8342  1.0797  1.9891
 7079TIP3   OH242651   5.625   4.494   5.046 -0.2551 -0.0479  0.0363
 7079TIP3    H142652   5.706   4.454   5.077 -1.5863 -1.3494  2.0443
 7079TIP3    H242653   5.593   4.546   5.119 -1.0590  0.7675 -0.8544
 7080TIP3   OH242654   3.868   1.956   2.703 -0.7643 -0.1690  0.1768
 7080TIP3    H142655   3.904   1.879   2.660 -1.3372 -0.1855 -0.2882
 7080TIP3    H242656   3.802   1.921   2.763 -0.6857 -0.0714  0.3223
 7081TIP3   OH242657   1.674   3.206  15.429  0.2147 -0.3230  0.3893
 7081TIP3    H142658   1.584   3.237  15.434  0.4033  0.7631 -1.7884
 7081TIP3    H242659   1.726   3.277  15.465  0.3341 -0.0474 -0.3172
 7082TIP3   OH242660   6.565   3.915  16.777  0.7466  0.3914 -0.1707
 7082TIP3    H142661   6.499   3.968  16.732  1.3310  0.8051 -0.5419
 7082TIP3    H242662   6.518   3.834  16.800 -0.0741  0.9466  0.1606
 7083TIP3   OH242663   2.654   0.039   0.192 -0.2748 -0.0506 -0.4065
 7083TIP3    H142664   2.664  -0.050   0.228 -0.6428  0.4983  1.1248
 7083TIP3    H242665   2.574   0.034   0.140 -0.0277 -0.7374 -0.7356
 7084TIP3   OH242666   2.293   0.080   5.094 -0.0094 -0.2808  0.4379
 7084TIP3    H142667   2.200   0.085   5.072 -0.6709  2.2650  3.2142
 7084TIP3    H242668   2.336   0.134   5.028 -0.5766 -0.7811 -0.3628
 7085TIP3   OH242669   0.303   2.108  11.329  0.0116  0.6501  0.0365
 7085TIP3    H142670   0.385   2.132  11.373 -0.3048  0.6675  0.6248
 7085TIP3    H242671   0.327   2.102  11.236  0.6730  0.6775  0.1973
 7086TIP3   OH242672   2.525   4.942  12.968 -0.0947 -0.2457  0.4410
 7086TIP3    H142673   2.621   4.941  12.964 -0.1129  0.7091 -1.2734
 7086TIP3    H242674   2.498   4.864  12.920 -0.2082 -1.1260  1.8682
 7087TIP3   OH242675   3.684   1.664  11.062 -0.0267  0.0788  0.2446
 7087TIP3    H142676   3.684   1.630  10.972  1.4751  0.5818  0.0132
 7087TIP3    H242677   3.629   1.742  11.058 -0.4645 -0.2462 -0.1015
 7088TIP3   OH242678   6.467   0.053   1.773 -0.4457  0.5213 -0.7781
 7088TIP3    H142679   6.429   0.135   1.742 -2.9395 -0.4430 -0.5085
 7088TIP3    H242680   6.455   0.055   1.868  1.7589  0.8930 -0.4747
 7089TIP3   OH242681   4.209   4.649   1.407 -0.3618 -0.4472 -0.1032
 7089TIP3    H142682   4.245   4.737   1.415  0.1151 -0.7681  1.8618
 7089TIP3    H242683   4.123   4.654   1.449  0.3224 -1.2192  1.5037
 7090TIP3   OH242684   6.520   2.689  14.879  0.1070 -0.5285 -0.1059
 7090TIP3    H142685   6.488   2.777  14.861  0.1114 -0.1550  1.6114
 7090TIP3    H242686   6.546   2.656  14.793  0.5375  1.3003 -0.7249
 7091TIP3   OH242687   0.757   4.115  10.487  0.3423  0.5448 -0.3683
 7091TIP3    H142688   0.780   4.138  10.397 -2.6403  1.0013 -1.1480
 7091TIP3    H242689   0.663   4.133  10.492  0.1922 -0.5660  2.5264
 7092TIP3   OH242690   1.271   1.327   2.899 -0.3384 -0.3586  0.1488
 7092TIP3    H142691   1.276   1.367   2.812  0.7238 -0.1605  0.2835
 7092TIP3    H242692   1.307   1.393   2.958 -1.6738 -0.2283  0.8559
 7093TIP3   OH242693   5.692   1.207  12.138  0.1733 -0.5725 -0.8351
 7093TIP3    H142694   5.608   1.203  12.185  0.4071  0.3155 -0.3204
 7093TIP3    H242695   5.667   1.213  12.045 -0.4019  1.1373 -0.6113
 7094TIP3   OH242696   4.257   3.056  11.092 -0.8240  0.4875  0.3607
 7094TIP3    H142697   4.195   2.987  11.069  0.5624 -0.7179  0.0531
 7094TIP3    H242698   4.280   3.097  11.008 -3.4102  3.0062  0.7456
 7095TIP3   OH242699   1.992   1.125   3.768  0.4897 -0.3008 -0.3931
 7095TIP3    H142700   2.062   1.077   3.810 -0.2102  0.8765  2.3501
 7095TIP3    H242701   1.925   1.059   3.748  1.0339 -0.9617 -0.0456
 7096TIP3   OH242702   5.287   4.041  10.990 -0.2499 -0.1145 -0.1617
 7096TIP3    H142703   5.225   4.113  10.979 -0.5035 -0.4292 -0.9095
 7096TIP3    H242704   5.243   3.982  11.051 -0.7609 -0.3877 -0.7685
 7097TIP3   OH242705   1.570   0.113  15.234 -0.1408 -0.4086  0.2844
 7097TIP3    H142706   1.642   0.155  15.282  0.3690 -0.5629 -0.3227
 7097TIP3    H242707   1.505   0.092  15.301  0.0449  0.4172  0.7424
 7098TIP3   OH242708   0.350   3.034  14.123 -0.5117 -0.0060  0.3377
 7098TIP3    H142709   0.317   3.050  14.212  0.3400 -0.7795  0.8010
 7098TIP3    H242710   0.302   3.097  14.069 -0.8149  0.6943  1.3864
 7099TIP3   OH242711   4.227   1.597  15.899 -0.1258  0.0193  0.0263
 7099TIP3    H142712   4.221   1.503  15.917 -2.8028  0.0306 -0.2581
 7099TIP3    H242713   4.203   1.605  15.806 -1.8053  1.0626  0.4997
 7100TIP3   OH242714   2.554   3.373  10.371  0.4520 -0.3051  0.4469
 7100TIP3    H142715   2.609   3.321  10.313 -0.6165 -1.1030  0.1121
 7100TIP3    H242716   2.490   3.415  10.313 -0.1298 -0.4648  0.9602
 7101TIP3   OH242717   4.630   3.816  16.352  0.4304 -0.4411 -0.5966
 7101TIP3    H142718   4.540   3.802  16.381  1.1303 -0.1591  1.9422
 7101TIP3    H242719   4.622   3.865  16.271 -1.7063 -1.3547 -0.9924
 7102TIP3   OH242720   3.373   0.139  13.613  0.6116 -0.0673 -0.5255
 7102TIP3    H142721   3.347   0.085  13.687  0.6066 -0.8937 -1.1162
 7102TIP3    H242722   3.434   0.203  13.650 -1.4292  1.2889  0.7038
 7103TIP3   OH242723   6.520   4.740  16.622  0.0765 -0.1215 -0.5361
 7103TIP3    H142724   6.459   4.728  16.695 -0.8776 -0.5710 -1.3659
 7103TIP3    H242725   6.466   4.779  16.553 -0.0483 -3.0012 -2.2492
 7104TIP3   OH242726   4.389   1.382   4.711  0.2305 -0.0407  0.4666
 7104TIP3    H142727   4.391   1.319   4.783  2.2108 -0.8560 -0.2384
 7104TIP3    H242728   4.476   1.421   4.711 -0.1678  0.8997 -0.6647
 7105TIP3   OH242729   0.486   3.946  10.872 -0.1600 -0.6326 -0.2064
 7105TIP3    H142730   0.454   3.881  10.935 -1.7837 -0.8215 -1.1698
 7105TIP3    H242731   0.438   4.026  10.893  0.4362 -0.2590 -0.2354
 7106TIP3   OH242732   4.220   0.923  10.453 -0.1565  0.1442 -0.2982
 7106TIP3    H142733   4.241   0.953  10.365  0.9905 -1.5784 -0.6816
 7106TIP3    H242734   4.229   1.001  10.508  0.4289  0.9705 -1.5126
 7107TIP3   OH242735   3.194   1.899   5.454  0.3475  0.3242 -0.5834
 7107TIP3    H142736   3.116   1.844   5.451  0.5834 -0.1158  0.7236
 7107TIP3    H242737   3.225   1.892   5.545  0.9794  1.7783 -0.6617
 7108TIP3   OH242738   5.134   0.105  11.728 -0.1596  0.5895 -0.3166
 7108TIP3    H142739   5.194   0.060  11.668 -1.3909 -0.7970 -0.5688
 7108TIP3    H242740   5.175   0.096  11.814 -0.0018 -0.3629 -0.4804
 7109TIP3   OH242741   3.599   0.562   4.130 -0.6970 -0.0012 -0.2097
 7109TIP3    H142742   3.527   0.590   4.185 -0.8267 -2.2114  0.8459
 7109TIP3    H242743   3.596   0.620   4.054 -3.1976  0.3541  0.0983
 7110TIP3   OH242744   4.012   0.185  16.615 -0.5408  0.0628  0.1846
 7110TIP3    H142745   4.030   0.274  16.587 -0.9144 -0.1888 -0.8946
 7110TIP3    H242746   3.921   0.170  16.591 -0.1275 -1.0212 -0.7963
 7111TIP3   OH242747   5.374   4.080  11.719  0.3697 -0.3402 -0.1769
 7111TIP3    H142748   5.468   4.096  11.714  0.4072  0.0675  1.3942
 7111TIP3    H242749   5.366   3.985  11.726  0.5295 -0.5535 -2.3503
 7112TIP3   OH242750   5.975   5.684   0.403 -0.1769 -0.0336 -0.0255
 7112TIP3    H142751   5.988   5.659   0.312 -0.1410  0.7643 -0.2481
 7112TIP3    H242752   5.913   5.619   0.437  0.7091 -1.0366 -0.2785
 7113TIP3   OH242753   0.713   2.384   4.505  0.2609  0.0139 -0.3479
 7113TIP3    H142754   0.744   2.427   4.584 -0.4688 -0.6604  0.3198
 7113TIP3    H242755   0.722   2.450   4.436  0.2429  0.8410  0.4333
 7114TIP3   OH242756   0.773   4.561  12.471  0.3187 -0.0556 -0.5265
 7114TIP3    H142757   0.723   4.519  12.541 -0.7683  1.6090 -0.2215
 7114TIP3    H242758   0.709   4.619  12.428  1.6757  1.1569 -0.9815
 7115TIP3   OH242759   3.247   2.599   2.376  0.2898 -0.0779 -0.0064
 7115TIP3    H142760   3.161   2.580   2.338 -1.3638  0.3470  3.2060
 7115TIP3    H242761   3.283   2.513   2.398 -0.4409 -0.1741  0.8595
 7116TIP3   OH242762   5.514   2.057  14.429  0.3587  0.1525 -0.6298
 7116TIP3    H142763   5.501   1.964  14.408  2.2596  0.0609 -1.6644
 7116TIP3    H242764   5.516   2.100  14.343 -1.5732  1.3643 -0.1278
 7117TIP3   OH242765   6.497   2.102   3.950 -0.4051  0.4187 -0.7396
 7117TIP3    H142766   6.569   2.154   3.986 -1.4363  0.7663  0.9254
 7117TIP3    H242767   6.454   2.159   3.887 -1.8364  1.8861  1.4297
 7118TIP3   OH242768   5.388   0.172  12.158 -0.0286  0.1105 -0.8354
 7118TIP3    H142769   5.479   0.160  12.130  0.6347  0.7491  0.8503
 7118TIP3    H242770   5.388   0.258  12.201 -0.4935 -1.3759  2.4439
 7119TIP3   OH242771   2.109   0.341   1.200 -0.3478  0.7104  0.3657
 7119TIP3    H142772   2.122   0.384   1.115  0.4463  1.3275  0.7750
 7119TIP3    H242773   2.198   0.329   1.234 -0.6682  0.8091  1.2652
 7120TIP3   OH242774   2.338   2.283   3.359 -0.0840  0.0898 -0.4559
 7120TIP3    H142775   2.265   2.220   3.367 -0.4418  0.3894 -1.2762
 7120TIP3    H242776   2.296   2.369   3.362  0.3699  0.2944  0.3061
 7121TIP3   OH242777   0.450   1.172  13.079  0.0668  0.0913 -0.1122
 7121TIP3    H142778   0.356   1.188  13.079 -0.0631 -0.5449 -0.9902
 7121TIP3    H242779   0.488   1.251  13.116 -0.7243  1.0410 -1.2417
 7122TIP3   OH242780   1.964   4.344  12.718 -0.0523  0.2212  0.5549
 7122TIP3    H142781   1.982   4.290  12.641 -1.9088 -1.0599  0.9423
 7122TIP3    H242782   2.024   4.311  12.784 -1.2783 -1.6352  0.8430
 7123TIP3   OH242783   1.896   1.892   1.970  0.2887 -0.0577 -0.0207
 7123TIP3    H142784   1.860   1.970   1.927  1.5699  0.8716  0.5169
 7123TIP3    H242785   1.966   1.926   2.026  0.6576 -1.5733  0.4831
 7124TIP3   OH242786   2.354   1.345  14.331 -0.8524 -0.0372 -0.4493
 7124TIP3    H142787   2.293   1.394  14.387 -1.9911 -1.0805 -0.7325
 7124TIP3    H242788   2.421   1.409  14.306 -0.3611  0.4934  1.9976
 7125TIP3   OH242789   4.837   2.628  15.537 -0.0401  0.3052  0.3954
 7125TIP3    H142790   4.789   2.557  15.493 -1.3094  0.1367  1.9420
 7125TIP3    H242791   4.893   2.665  15.469 -0.4897 -1.1700 -0.8501
 7126TIP3   OH242792   6.311   4.222   1.772 -0.0962  0.2257  0.1513
 7126TIP3    H142793   6.347   4.296   1.723  1.9182 -0.5655  0.3468
 7126TIP3    H242794   6.385   4.188   1.823 -1.1152 -1.5217  0.5648
 7127TIP3   OH242795   0.131   5.763  14.178  0.4171  0.0015 -0.4131
 7127TIP3    H142796   0.136   5.722  14.265 -0.8192 -0.9192 -0.7443
 7127TIP3    H242797   0.037   5.768  14.160  0.5355  2.5589 -0.6267
 7128TIP3   OH242798   4.034   6.337  16.578 -0.2254 -0.2187  0.7479
 7128TIP3    H142799   4.015   6.369  16.666 -1.6517  0.3911  0.2443
 7128TIP3    H242800   3.998   6.248  16.576 -0.2744 -0.1989  0.7497
 7129TIP3   OH242801   0.487   1.159  11.775  0.0070 -0.1043 -0.5335
 7129TIP3    H142802   0.553   1.148  11.707  0.7484  1.2474 -0.0704
 7129TIP3    H242803   0.406   1.177  11.727  0.1852 -0.7061 -1.0759
 7130TIP3   OH242804   0.894   6.484  10.993 -0.0002  0.1050  0.6771
 7130TIP3    H142805   0.854   6.529  11.068 -0.9933  1.0841 -0.3985
 7130TIP3    H242806   0.861   6.531  10.917 -0.2488 -1.8265 -0.4757
 7131TIP3   OH242807   1.423   0.374  10.352 -0.2929 -0.3291  0.2822
 7131TIP3    H142808   1.392   0.465  10.359 -1.4503 -0.5020 -1.8697
 7131TIP3    H242809   1.508   0.381  10.309  0.1137 -0.2138  1.0899
 7132TIP3   OH242810   2.487   4.182  15.155 -0.0083  0.0475 -0.5655
 7132TIP3    H142811   2.468   4.097  15.196 -0.8234  0.6628  0.4042
 7132TIP3    H242812   2.423   4.242  15.195  1.6934  1.4957  0.1043
 7133TIP3   OH242813   4.180   2.301   0.175 -0.4448 -0.1782  0.4625
 7133TIP3    H142814   4.147   2.310   0.086 -2.1925  0.5843  1.1556
 7133TIP3    H242815   4.249   2.367   0.182 -1.8127  1.3286  0.3223
 7134TIP3   OH242816   4.939   3.689  16.060 -0.9513 -0.1660 -0.2576
 7134TIP3    H142817   4.945   3.734  16.145 -1.6451  0.7046 -0.6614
 7134TIP3    H242818   4.922   3.598  16.083 -1.7108  0.1638  0.5343
 7135TIP3   OH242819   5.451   6.113   3.995 -0.6203 -0.2498  0.4436
 7135TIP3    H142820   5.482   6.027   4.024 -0.7901 -0.3865  0.2279
 7135TIP3    H242821   5.520   6.174   4.022  0.1334 -0.6303 -0.5738
 7136TIP3   OH242822   2.918   0.844   1.271  0.8688  0.1925  0.6172
 7136TIP3    H142823   2.981   0.917   1.270  1.5176 -0.3592 -0.5845
 7136TIP3    H242824   2.951   0.785   1.339  1.9848 -0.3455 -0.3498
 7137TIP3   OH242825   3.721   1.627   3.503  0.3027  0.0507  0.5513
 7137TIP3    H142826   3.633   1.601   3.533 -0.0525  1.0811  0.4526
 7137TIP3    H242827   3.757   1.677   3.577 -0.9683  3.4823 -0.9545
 7138TIP3   OH242828   1.043   5.009   2.877 -1.1199  0.1090 -0.0728
 7138TIP3    H142829   1.031   4.929   2.929 -0.8729  1.3320  1.9880
 7138TIP3    H242830   1.132   5.002   2.841 -1.2699 -0.7401 -0.2862
 7139TIP3   OH242831   0.957   5.986  11.663  0.3098 -0.7293 -0.0926
 7139TIP3    H142832   0.961   5.893  11.639  0.9110 -1.1538  1.5155
 7139TIP3    H242833   0.994   5.989  11.752 -0.0081  1.0040  0.0061
 7140TIP3   OH242834   5.497   3.190   0.256 -0.3968 -0.5298  0.1412
 7140TIP3    H142835   5.572   3.241   0.287 -0.6182  0.9404 -1.5484
 7140TIP3    H242836   5.425   3.218   0.313  0.1294 -1.2547  1.1756
 7141TIP3   OH242837   6.352   5.040   3.823 -0.8690  0.1493 -0.0254
 7141TIP3    H142838   6.288   5.004   3.762 -0.8468  1.1754 -0.6773
 7141TIP3    H242839   6.435   4.999   3.797 -1.1242 -0.6286  0.3563
 7142TIP3   OH242840   4.734   2.537   3.676 -0.2671 -0.0768 -0.1975
 7142TIP3    H142841   4.743   2.586   3.758  1.0433 -0.1765 -0.2529
 7142TIP3    H242842   4.736   2.604   3.607  1.1708 -0.1463 -0.2550
 7143TIP3   OH242843   3.231   6.313   5.202  0.3703  0.1373 -0.4278
 7143TIP3    H142844   3.240   6.311   5.106  1.1496  1.4647 -0.4090
 7143TIP3    H242845   3.279   6.235   5.232 -1.9670 -1.7115 -1.2024
 7144TIP3   OH242846   3.756   4.406   1.383 -0.2234 -0.5298  0.0743
 7144TIP3    H142847   3.698   4.481   1.368 -0.1666  0.2129  2.8977
 7144TIP3    H242848   3.739   4.382   1.474  1.9107 -2.0815  0.1209
 7145TIP3   OH242849   0.825   2.054  14.194  0.5364  0.0546  0.4595
 7145TIP3    H142850   0.837   1.994  14.120 -0.2522  0.4227  0.0054
 7145TIP3    H242851   0.898   2.115  14.188  0.8085 -0.2813  0.3442
 7146TIP3   OH242852   5.003   3.558   1.002 -0.0914 -0.1227  0.9244
 7146TIP3    H142853   5.002   3.652   1.019 -1.6876 -0.1935  1.3870
 7146TIP3    H242854   4.911   3.535   0.987  0.4172 -1.3900 -0.5143
 7147TIP3   OH242855   5.816   6.018  10.815  0.1356 -0.0658  0.5800
 7147TIP3    H142856   5.730   6.056  10.797 -0.5200 -1.0108  1.5657
 7147TIP3    H242857   5.857   6.010  10.729 -1.2093 -0.6020 -0.0385
 7148TIP3   OH242858   5.338   2.547   0.910 -0.2604 -0.6057 -0.1480
 7148TIP3    H142859   5.408   2.612   0.917  0.0966 -0.5341 -2.9443
 7148TIP3    H242860   5.313   2.528   1.000  1.4029  1.4745  0.8441
 7149TIP3   OH242861   1.201   6.492   2.449 -0.3968 -0.0922 -0.1150
 7149TIP3    H142862   1.239   6.486   2.536  1.0268 -0.0855 -0.7110
 7149TIP3    H242863   1.231   6.577   2.415 -0.2734 -0.4462 -0.9133
 7150TIP3   OH242864   2.152   5.410   0.943  0.0944 -0.2334 -0.2359
 7150TIP3    H142865   2.216   5.374   1.005 -1.1450  0.2855  1.4483
 7150TIP3    H242866   2.090   5.338   0.929  0.6911 -0.5373 -1.3644
 7151TIP3   OH242867   0.769   1.000   0.868 -0.0174  0.4000 -0.2435
 7151TIP3    H142868   0.758   0.916   0.824  0.2003 -1.0429  2.2252
 7151TIP3    H242869   0.691   1.050   0.847 -0.8410 -1.0018 -0.6095
 7152TIP3   OH242870   2.545   1.461   0.088  0.3802 -0.2432 -0.9096
 7152TIP3    H142871   2.568   1.530   0.027  1.3649 -0.6648 -1.0483
 7152TIP3    H242872   2.628   1.416   0.105  0.1682 -0.0573  0.8266
 7153TIP3   OH242873   3.001   2.929  15.904 -0.1450  0.1928  0.3674
 7153TIP3    H142874   3.019   2.925  15.810  0.2969 -2.2273  0.4922
 7153TIP3    H242875   3.082   2.962  15.943  0.4289 -0.7821  0.0412
 7154TIP3   OH242876   0.528   1.043   0.351 -0.4671  0.1286 -0.2121
 7154TIP3    H142877   0.551   0.996   0.431  0.9673  2.7106  1.0148
 7154TIP3    H242878   0.433   1.042   0.349 -0.5348  0.1538  1.6461
 7155TIP3   OH242879   3.244   0.308   5.603  0.3905  0.2951 -0.0059
 7155TIP3    H142880   3.255   0.219   5.638  2.3818  1.3011  2.1828
 7155TIP3    H242881   3.173   0.345   5.655  0.4962  0.4333  0.0400
 7156TIP3   OH242882   1.840   4.966   3.762 -0.1017  0.9491 -0.2448
 7156TIP3    H142883   1.925   4.955   3.803  0.9793 -2.0675 -2.9066
 7156TIP3    H242884   1.853   5.037   3.699  1.0780 -0.5625 -1.8112
 7157TIP3   OH242885   5.054   5.272  12.233 -0.0659  0.9732  0.1232
 7157TIP3    H142886   4.975   5.219  12.220  1.3169 -1.0917 -0.3336
 7157TIP3    H242887   5.068   5.314  12.148 -0.7521  1.5069  0.2618
 7158TIP3   OH242888   6.151   0.745   0.579 -0.1001  0.1399  0.4298
 7158TIP3    H142889   6.088   0.741   0.650  0.0397  0.8336  0.6061
 7158TIP3    H242890   6.135   0.830   0.538  1.4396  0.8200  1.1700
 7159TIP3   OH242891   2.520   5.692  12.598 -0.3452 -0.0997  0.4330
 7159TIP3    H142892   2.457   5.666  12.531 -0.0115 -0.3078  0.1932
 7159TIP3    H242893   2.515   5.622  12.663  0.6991 -0.9045 -0.3109
 7160TIP3   OH242894   5.772   2.286  10.824  0.1604 -0.3424  0.2113
 7160TIP3    H142895   5.677   2.293  10.836  0.1424 -1.0619  0.5691
 7160TIP3    H242896   5.806   2.372  10.847 -0.4080 -0.0701  0.0526
 7161TIP3   OH242897   6.336   2.894   4.340  0.2107  0.3824 -0.5774
 7161TIP3    H142898   6.332   2.954   4.415 -1.5605 -0.3642 -0.0330
 7161TIP3    H242899   6.326   2.950   4.264 -0.2111  0.9228 -0.1368
 7162TIP3   OH242900   5.585   5.069  11.052  0.0115  0.2033 -0.0194
 7162TIP3    H142901   5.616   5.002  10.992  1.0873  0.7448 -0.0779
 7162TIP3    H242902   5.636   5.147  11.031 -0.1833  0.6387  1.0336
 7163TIP3   OH242903   5.659   2.880  12.872  0.2509 -0.4024 -0.6783
 7163TIP3    H142904   5.634   2.929  12.794  0.3781  1.0250  0.1416
 7163TIP3    H242905   5.644   2.941  12.945  0.8941 -1.4115  0.3393
 7164TIP3   OH242906   0.133   4.295  12.343 -0.5366 -0.1486  0.3496
 7164TIP3    H142907   0.047   4.260  12.365 -0.1810 -0.7167  0.8907
 7164TIP3    H242908   0.161   4.343  12.421 -1.1622  1.6902 -0.5126
 7165TIP3   OH242909   5.610   5.685  13.766 -0.5086 -0.2674 -0.0249
 7165TIP3    H142910   5.638   5.765  13.721  2.2757 -0.9522  0.2838
 7165TIP3    H242911   5.532   5.657  13.719 -1.7281  2.7191  0.0145
 7166TIP3   OH242912   4.734   3.548  15.432  0.7379 -0.6502  0.1434
 7166TIP3    H142913   4.726   3.536  15.527 -0.6004 -0.8353  0.0345
 7166TIP3    H242914   4.716   3.462  15.395 -0.8931 -0.1494 -0.3346
 7167TIP3   OH242915   4.948   4.078   1.812  0.4354  0.3137  0.3246
 7167TIP3    H142916   4.867   4.071   1.863  1.4189 -0.8888  1.8327
 7167TIP3    H242917   5.012   4.028   1.863  1.7055 -0.2442 -1.7138
 7168TIP3   OH242918   3.902   1.869  11.215  0.3052 -0.0963 -0.6755
 7168TIP3    H142919   3.897   1.783  11.256  2.8443 -0.2244 -0.4456
 7168TIP3    H242920   3.863   1.857  11.128 -1.4796 -0.8403  0.1988
 7169TIP3   OH242921   6.678   3.689  14.080 -0.0237 -0.5599  0.1523
 7169TIP3    H142922   6.716   3.640  14.007  1.6727  0.6515  0.1631
 7169TIP3    H242923   6.641   3.767  14.039  1.5698  0.4764  0.6308
 7170TIP3   OH242924   3.566   2.717   3.496  0.3723  0.2583  0.1317
 7170TIP3    H142925   3.523   2.783   3.441 -0.1413  1.6888  2.1262
 7170TIP3    H242926   3.641   2.763   3.534  0.9159 -0.7889  0.3511
 7171TIP3   OH242927   2.401   3.433   1.645  0.5450 -0.7719 -0.6545
 7171TIP3    H142928   2.416   3.524   1.673  2.0192 -0.1664 -3.1104
 7171TIP3    H242929   2.489   3.396   1.636 -0.0383 -2.7343  0.9466
 7172TIP3   OH242930   4.530   3.779  13.414  0.0098 -0.7403 -0.3621
 7172TIP3    H142931   4.559   3.870  13.401 -1.3445 -0.4231 -1.4176
 7172TIP3    H242932   4.595   3.727  13.368  0.5046 -0.2716 -0.2100
 7173TIP3   OH242933   3.082   6.746  12.431 -0.0979 -0.2089  0.4191
 7173TIP3    H142934   3.080   6.768  12.524 -3.0170  0.2431  0.3391
 7173TIP3    H242935   3.023   6.672  12.422  0.7080 -0.7149 -0.9998
 7174TIP3   OH242936   2.125   1.116  13.908  0.6702 -0.2457  0.1330
 7174TIP3    H142937   2.136   1.061  13.830 -0.6605 -2.3091  1.3082
 7174TIP3    H242938   2.191   1.084  13.969  0.9243  0.5596  0.2942
 7175TIP3   OH242939   6.286   5.914   1.809 -0.2809  0.3000  0.5619
 7175TIP3    H142940   6.285   5.927   1.714  0.0642  0.1621  0.5374
 7175TIP3    H242941   6.208   5.959   1.840 -0.0474  0.9036  0.2874
 7176TIP3   OH242942   5.367   2.979   4.651  0.2598  0.6411  0.1741
 7176TIP3    H142943   5.277   2.995   4.678  0.6770  1.9936  0.8829
 7176TIP3    H242944   5.395   3.061   4.612  0.9487 -0.0233 -0.7751
 7177TIP3   OH242945   5.121   5.199  13.798 -0.0189 -0.7482 -0.6074
 7177TIP3    H142946   5.044   5.152  13.766  0.1237 -0.5099 -1.3051
 7177TIP3    H242947   5.168   5.134  13.850 -1.7198 -0.3569  1.5772
 7178TIP3   OH242948   4.905   3.435  16.123  0.3937  0.1696 -0.7175
 7178TIP3    H142949   4.853   3.358  16.146  0.2578  0.3573 -0.3880
 7178TIP3    H242950   4.987   3.399  16.089 -0.7010 -0.1666 -3.1804
 7179TIP3   OH242951   2.530   4.939  10.254 -0.1272 -0.0567  0.2292
 7179TIP3    H142952   2.487   4.854  10.267 -0.7858  0.3210  0.5072
 7179TIP3    H242953   2.624   4.918  10.258 -0.2856 -0.6596  1.0081
 7180TIP3   OH242954   1.192   4.234   4.423  0.1331 -0.1624 -0.2475
 7180TIP3    H142955   1.104   4.234   4.461  0.3967  1.7982  0.4895
 7180TIP3    H242956   1.249   4.213   4.497  0.4361  0.7699 -0.2094
 7181TIP3   OH242957   2.549   5.951   0.542  0.1744 -0.5129  0.5431
 7181TIP3    H142958   2.574   5.909   0.460 -0.9189  0.4252 -0.3066
 7181TIP3    H242959   2.631   5.970   0.587  0.9990  1.6477 -1.6961
 7182TIP3   OH242960   2.033   3.025   4.868  0.3499  0.2848 -0.0034
 7182TIP3    H142961   2.058   2.974   4.945 -0.2487 -1.7628 -1.0681
 7182TIP3    H242962   1.942   3.049   4.883  0.8600  1.7657  0.8456
 7183TIP3   OH242963   6.694   0.816   0.638 -0.5805  0.1126 -0.0058
 7183TIP3    H142964   6.676   0.875   0.712  0.7700  0.8661 -0.2439
 7183TIP3    H242965   6.611   0.771   0.622 -0.7575 -0.5263  2.3582
 7184TIP3   OH242966   4.597   5.016  14.955 -0.1817 -0.0315 -0.3844
 7184TIP3    H142967   4.618   5.087  15.016  2.0976  1.0516 -2.2616
 7184TIP3    H242968   4.560   4.947  15.010 -0.2030  1.6790  1.8756
 7185TIP3   OH242969   3.960   4.129   0.189 -0.3614 -0.4061  0.5350
 7185TIP3    H142970   3.985   4.060   0.250 -0.4805 -0.9642 -0.0423
 7185TIP3    H242971   4.023   4.199   0.206  2.0825 -1.9881 -1.2677
 7186TIP3   OH242972   4.958   0.312  12.499 -0.8170  0.4734  0.1200
 7186TIP3    H142973   5.028   0.252  12.524  0.3346  1.6425 -0.2192
 7186TIP3    H242974   4.978   0.336  12.409 -0.9186  1.8218  0.4366
 7187TIP3   OH242975   0.964   2.232   2.368 -0.7081  0.0762 -0.8316
 7187TIP3    H142976   1.001   2.256   2.453 -0.5298  0.2229 -0.9507
 7187TIP3    H242977   0.887   2.288   2.359  0.0657  1.0509 -1.3922
 7188TIP3   OH242978   0.561   4.207   0.058 -0.2356 -0.6706  0.6921
 7188TIP3    H142979   0.485   4.195   0.001 -0.6221  0.1239  1.0298
 7188TIP3    H242980   0.624   4.142   0.027 -1.3644 -1.9585  0.9719
 7189TIP3   OH242981   0.135   2.848  13.687 -0.2389 -0.4056 -0.2293
 7189TIP3    H142982   0.228   2.868  13.682 -0.2980  0.1740  0.8404
 7189TIP3    H242983   0.092   2.922  13.644 -0.1919 -0.9506 -1.2420
 7190TIP3   OH242984   1.713   3.432   0.135 -0.1431 -0.3552  0.4711
 7190TIP3    H142985   1.647   3.387   0.081  0.3123  0.6185 -0.9389
 7190TIP3    H242986   1.791   3.435   0.079  0.1009  1.3923  0.8620
 7191TIP3   OH242987   5.432   0.138   2.882 -0.2268 -0.1301 -0.1849
 7191TIP3    H142988   5.434   0.209   2.818  2.5364 -0.5699 -0.6976
 7191TIP3    H242989   5.468   0.176   2.962  1.8553 -1.0472 -0.6401
 7192TIP3   OH242990   0.017   1.431   4.914 -0.0976 -0.0630  0.0412
 7192TIP3    H142991   0.097   1.481   4.931 -1.1863  1.7149  0.1721
 7192TIP3    H242992   0.048   1.345   4.885  1.8410  0.3608  0.7400
 7193TIP3   OH242993   1.296   2.950   5.856  0.4676 -0.4719  0.1627
 7193TIP3    H142994   1.335   2.866   5.881 -0.4771 -0.2219  2.7023
 7193TIP3    H242995   1.294   3.001   5.936  1.7439  2.3729 -1.4558
 7194TIP3   OH242996   6.327   0.437   2.262  0.2060 -0.6522  0.3055
 7194TIP3    H142997   6.341   0.418   2.169  0.8491  0.2050  0.2222
 7194TIP3    H242998   6.277   0.519   2.263  1.3343  0.0460  0.7336
 7195TIP3   OH242999   2.884   0.273  17.019  0.7499 -0.1377  0.2970
 7195TIP3    H143000   2.911   0.357  16.982  1.3163 -0.6372 -0.4562
 7195TIP3    H243001   2.926   0.269  17.105 -0.1025  0.7840  0.7773
 7196TIP3   OH243002   5.645   0.907  16.569 -0.2945  0.0118 -0.5299
 7196TIP3    H143003   5.721   0.903  16.511 -0.7753 -0.7894 -1.1269
 7196TIP3    H243004   5.573   0.871  16.517 -1.0804  0.7175  0.0354
 7197TIP3   OH243005   5.072   6.415   3.429  0.3443 -0.1232 -0.1235
 7197TIP3    H143006   5.081   6.368   3.347  1.0155  0.5994 -0.4770
 7197TIP3    H243007   5.024   6.495   3.406 -0.1435 -0.2810  0.3289
 7198TIP3   OH243008   1.737   4.353  15.794  0.4962  0.2466 -0.1715
 7198TIP3    H143009   1.753   4.446  15.809  1.6664 -0.1021  0.8498
 7198TIP3    H243010   1.785   4.333  15.713  0.2754  0.5115 -0.3704
 7199TIP3   OH243011   2.577   3.204  16.251 -0.1904  0.1620 -0.1166
 7199TIP3    H143012   2.628   3.124  16.264 -0.6257 -0.0541  0.2767
 7199TIP3    H243013   2.501   3.194  16.309 -0.3599  0.7596 -0.2304
 7200TIP3   OH243014   1.122   1.751  16.447  1.0236  0.5830 -0.6398
 7200TIP3    H143015   1.142   1.658  16.434  0.6388  0.0835  1.8392
 7200TIP3    H243016   1.172   1.775  16.525 -3.2257  0.8284  2.3618
 7201TIP3   OH243017   3.647   0.348  17.141  0.2312 -0.7807 -0.3381
 7201TIP3    H143018   3.729   0.395  17.154 -0.7251  0.8832  0.0133
 7201TIP3    H243019   3.650   0.275  17.203  0.7250  0.2396  0.8657
 7202TIP3   OH243020   2.075   5.332   5.168 -0.0983  0.0032  0.1507
 7202TIP3    H143021   2.014   5.362   5.100 -2.1950  0.8568  2.2601
 7202TIP3    H243022   2.020   5.318   5.245  2.0887 -1.4132  1.5831
 7203TIP3   OH243023   1.620   3.520   4.644 -0.4506 -0.0301  0.4589
 7203TIP3    H143024   1.526   3.526   4.662 -0.5404 -0.8091  0.2605
 7203TIP3    H243025   1.655   3.473   4.719 -0.0141  1.3298  1.1490
 7204TIP3   OH243026   3.428   3.868  16.260  0.2966  0.4434  0.5484
 7204TIP3    H143027   3.475   3.951  16.252 -1.4466  1.2947 -2.8829
 7204TIP3    H243028   3.371   3.880  16.335  0.1955  2.3153  0.2174
 7205TIP3   OH243029   3.022   3.049   0.120 -0.5574  0.1828 -0.5179
 7205TIP3    H143030   3.059   3.024   0.035  0.4129  0.4370 -0.1839
 7205TIP3    H243031   3.004   2.966   0.164  1.7401 -0.0097  0.1941
 7206TIP3   OH243032   5.477   5.919   3.557  0.3188  0.1179 -0.1136
 7206TIP3    H143033   5.444   5.924   3.647  0.0329  0.0117 -0.2087
 7206TIP3    H243034   5.476   6.009   3.525 -0.1729  0.0791 -0.2150
 7207TIP3   OH243035   0.101   2.701  12.713  0.0845 -0.5806  0.0019
 7207TIP3    H143036   0.079   2.608  12.719  1.5598 -0.9877 -0.3203
 7207TIP3    H243037   0.070   2.738  12.796 -2.1176 -0.9627 -0.5998
 7208TIP3   OH243038   5.194   5.074  14.809  0.4325 -0.0031 -0.2770
 7208TIP3    H143039   5.178   5.148  14.868 -1.7792  0.3142 -1.1707
 7208TIP3    H243040   5.288   5.079  14.789  0.5191  2.0315  0.3995
 7209TIP3   OH243041   3.731   1.377   2.404  0.2859 -0.0550 -0.4540
 7209TIP3    H143042   3.769   1.348   2.488 -0.3614  0.1173 -0.0938
 7209TIP3    H243043   3.642   1.343   2.405 -0.3630  1.5696 -0.2027
 7210TIP3   OH243044   6.078   2.902  12.051  0.2270  0.1098 -0.2955
 7210TIP3    H143045   5.999   2.954  12.034  0.1567 -0.1714 -0.8609
 7210TIP3    H243046   6.049   2.831  12.108  0.3147  0.6560  0.4503
 7211TIP3   OH243047   1.909   6.175  13.441 -0.2837  0.1438  0.3058
 7211TIP3    H143048   1.928   6.134  13.357 -0.4308 -0.2173  0.4449
 7211TIP3    H243049   1.813   6.180  13.445 -0.3504 -1.2651  1.1083
 7212TIP3   OH243050   2.564   4.722   1.465  0.1410  0.1165  0.2725
 7212TIP3    H143051   2.524   4.637   1.481 -1.5925  1.2375  2.5835
 7212TIP3    H243052   2.492   4.775   1.428  0.8833  0.8894 -0.1108
 7213TIP3   OH243053   3.249   3.991  10.692  0.3215  0.0974 -0.0387
 7213TIP3    H143054   3.253   3.947  10.607 -1.4183 -0.3394  0.0736
 7213TIP3    H243055   3.176   3.950  10.737  1.7507 -0.2804  2.0503
 7214TIP3   OH243056   1.161   4.970  15.851  0.1288  0.1462  0.0738
 7214TIP3    H143057   1.225   5.005  15.789  1.8909 -2.5246  0.2226
 7214TIP3    H243058   1.205   4.976  15.936 -1.1325  1.1669  0.6808
 7215TIP3   OH243059   2.151   0.082  13.470  0.2776  0.1408  0.6302
 7215TIP3    H143060   2.195   0.029  13.536 -0.8163 -0.9745  0.4990
 7215TIP3    H243061   2.082   0.026  13.436 -0.1109  1.2135 -0.4330
 7216TIP3   OH243062   4.087   3.075   4.401  0.3851 -0.3243  0.7822
 7216TIP3    H143063   4.071   3.014   4.329  0.6699  0.0098  0.4303
 7216TIP3    H243064   4.009   3.068   4.456  0.0065 -0.3233  0.2493
 7217TIP3   OH243065   0.863   1.366  12.721 -0.2266  0.3511  0.1867
 7217TIP3    H143066   0.769   1.382  12.728  0.1671  3.1621  0.1897
 7217TIP3    H243067   0.903   1.433  12.777  1.7907 -0.5816 -0.0524
 7218TIP3   OH243068   5.534   5.303   2.830 -0.7683 -0.7923  0.2669
 7218TIP3    H143069   5.578   5.352   2.760 -0.0814 -1.3407  0.3048
 7218TIP3    H243070   5.499   5.225   2.786  0.0058 -1.3329  0.6049
 7219TIP3   OH243071   4.523   6.746  13.801  0.0618 -0.0196  0.5354
 7219TIP3    H143072   4.601   6.732  13.747 -1.8011  0.2805 -2.4144
 7219TIP3    H243073   4.514   6.665  13.852  1.4043 -0.6827 -0.2236
 7220TIP3   OH243074   4.252   6.647   0.311  0.0024  0.1425  0.4150
 7220TIP3    H143075   4.217   6.572   0.358  0.6574 -1.0869 -0.9924
 7220TIP3    H243076   4.346   6.628   0.303 -0.0134  0.5814 -0.9136
 7221TIP3   OH243077   3.941   4.246  15.468  0.4069  0.3579  0.5092
 7221TIP3    H143078   3.866   4.203  15.426  0.5792  1.7299 -1.3204
 7221TIP3    H243079   3.950   4.329  15.421  0.9757  1.7696  2.9410
 7222TIP3   OH243080   5.120   3.125   1.895  0.1697  0.7701 -0.2970
 7222TIP3    H143081   5.054   3.189   1.921  0.2079  0.3431  0.8922
 7222TIP3    H243082   5.145   3.151   1.806 -0.6510  1.7049 -0.2671
 7223TIP3   OH243083   2.663   6.704   1.913 -0.1737  0.6052 -0.0101
 7223TIP3    H143084   2.672   6.733   2.004  0.5394 -0.5302  0.2991
 7223TIP3    H243085   2.590   6.756   1.879  0.7275  2.3835  0.6388
 7224TIP3   OH243086   3.713   3.806   4.914 -0.1038  0.2638  0.0925
 7224TIP3    H143087   3.619   3.821   4.908  0.1053  1.5985 -0.0227
 7224TIP3    H243088   3.728   3.728   4.860 -0.8511  1.3024 -1.7134
 7225TIP3   OH243089   3.087   0.052   1.962 -0.0598  0.6239  0.8609
 7225TIP3    H143090   3.024   0.017   2.025 -1.0419 -1.4961 -1.1088
 7225TIP3    H243091   3.120  -0.026   1.916 -1.8666  2.0756 -3.4097
 7226TIP3   OH243092   3.557   1.961   2.213 -0.5525  0.4158 -0.0542
 7226TIP3    H143093   3.623   1.944   2.145 -0.2967  1.1737 -0.0053
 7226TIP3    H243094   3.553   1.880   2.263 -0.0808  0.1588 -0.4210
 7227TIP3   OH243095   2.496   3.482   6.023 -0.7121 -0.6203 -0.6196
 7227TIP3    H143096   2.586   3.448   6.030 -0.6921 -0.1833  2.3973
 7227TIP3    H243097   2.507   3.576   6.012 -0.7798 -0.4998  0.2913
 7228TIP3   OH243098   4.262   4.742  13.937 -0.1863 -0.2791  0.1775
 7228TIP3    H143099   4.251   4.818  13.993 -0.3247 -0.0994 -0.0966
 7228TIP3    H243100   4.213   4.672  13.981  1.0819 -0.5888  1.1676
 7229TIP3   OH243101   2.425   3.692  15.326 -0.5590  0.5990 -0.5121
 7229TIP3    H143102   2.399   3.782  15.347 -0.2310  0.5802 -0.0014
 7229TIP3    H243103   2.342   3.647  15.310 -0.7477  0.9067 -0.4150
 7230TIP3   OH243104   2.975   1.109  16.921  0.1153 -0.5529  0.4725
 7230TIP3    H143105   3.014   1.194  16.902 -1.6048  0.4989  1.4231
 7230TIP3    H243106   3.020   1.048  16.862 -0.0201  1.3351 -1.6944
 7231TIP3   OH243107   4.044   6.452   3.009 -0.5676 -0.5018 -0.1235
 7231TIP3    H143108   4.057   6.357   3.009 -0.3103 -0.5080  2.2234
 7231TIP3    H243109   4.048   6.477   3.101 -0.8553  1.7750 -0.6790
 7232TIP3   OH243110   3.905   1.122  15.957  0.4301  0.3814  0.4540
 7232TIP3    H143111   3.837   1.058  15.936  0.0722  0.4373  1.3853
 7232TIP3    H243112   3.977   1.102  15.897  0.0709 -0.4773  0.2957
 7233TIP3   OH243113   6.042   0.880   5.035 -0.1003  0.0421 -0.4213
 7233TIP3    H143114   6.025   0.959   4.982 -0.5341 -0.6724 -1.3819
 7233TIP3    H243115   5.957   0.838   5.044  0.0546 -0.0999  0.4564
 7234TIP3   OH243116   6.684   6.514   3.737  0.2147  0.0678  0.5868
 7234TIP3    H143117   6.661   6.552   3.822 -1.4167  2.3478 -0.7710
 7234TIP3    H243118   6.633   6.564   3.674 -0.1285 -2.8308 -1.6151
 7235TIP3   OH243119   2.621   0.007  15.050  0.4565  0.2030  0.0511
 7235TIP3    H143120   2.677  -0.032  14.983  1.1440 -0.8030  1.1646
 7235TIP3    H243121   2.655  -0.027  15.132 -1.4304  0.0499  0.8183
 7236TIP3   OH243122   4.777   3.032  17.044 -0.2407  0.2037 -0.1565
 7236TIP3    H143123   4.791   3.038  17.138  0.1067  0.0892 -0.1979
 7236TIP3    H243124   4.827   3.105  17.007 -0.1863  0.1109 -0.2689
 7237TIP3   OH243125   4.244   4.218  15.025 -0.3396 -0.5362  0.6606
 7237TIP3    H143126   4.325   4.224  14.975 -0.1704 -1.7861  0.7745
 7237TIP3    H243127   4.214   4.309  15.032  0.9445 -0.0809  0.4595
 7238TIP3   OH243128   1.835   4.191   0.580  0.6507 -0.4817  0.3064
 7238TIP3    H143129   1.829   4.099   0.607  1.5491 -0.5092  0.4198
 7238TIP3    H243130   1.917   4.222   0.618 -0.1633  0.6816  1.1888
 7239TIP3   OH243131   0.328   2.724  16.838 -0.1846  0.1174 -0.8341
 7239TIP3    H143132   0.339   2.819  16.830 -3.2120  0.4685 -3.0936
 7239TIP3    H243133   0.325   2.693  16.747  1.0922 -2.2527 -0.1494
 7240TIP3   OH243134   1.492   4.801  14.169  0.1450  0.3147 -0.7311
 7240TIP3    H143135   1.470   4.749  14.247 -2.6834  2.6205  0.1856
 7240TIP3    H243136   1.523   4.884  14.204  0.5209  0.7728 -2.0979
 7241TIP3   OH243137   3.823   4.574  10.653  0.1593 -0.1468  0.2671
 7241TIP3    H143138   3.796   4.534  10.736  0.6461  0.3194  0.6580
 7241TIP3    H243139   3.838   4.500  10.595 -2.8833 -0.4480 -0.3193
 7242TIP3   OH243140   6.230   6.086   5.669 -0.5097 -0.5890  0.7846
 7242TIP3    H143141   6.273   6.019   5.723  0.5686 -0.4853  0.0781
 7242TIP3    H243142   6.268   6.168   5.699  1.2207 -0.6311 -1.0613
 7243TIP3   OH243143   2.254   6.379  13.951  0.3863  0.3155 -0.0124
 7243TIP3    H143144   2.179   6.321  13.959 -0.0290  1.0134  1.4039
 7243TIP3    H243145   2.329   6.324  13.971  0.0429  0.1224  0.7726
 7244TIP3   OH243146   4.535   0.549   5.891 -0.1932 -0.6349 -0.1007
 7244TIP3    H143147   4.593   0.588   5.956  1.3998  1.8145 -2.7537
 7244TIP3    H243148   4.549   0.454   5.900  1.5881 -0.2725  1.6460
 7245TIP3   OH243149   6.333   4.592   0.856 -0.3218  1.1880  0.1032
 7245TIP3    H143150   6.293   4.551   0.932  0.6622  0.5126  0.2786
 7245TIP3    H243151   6.337   4.523   0.790  2.0951  0.6836  0.6784
 7246TIP3   OH243152   3.154   6.366   6.081  0.2477  0.0401 -0.1146
 7246TIP3    H143153   3.148   6.329   6.169 -1.2522 -0.7289 -0.5083
 7246TIP3    H243154   3.216   6.439   6.090  0.7323 -0.5165  1.3887
 7247TIP3   OH243155   1.449   1.286   0.790  0.1750  0.3456 -0.0679
 7247TIP3    H143156   1.392   1.342   0.737  0.8241  0.6424 -0.4685
 7247TIP3    H243157   1.473   1.214   0.731  3.4318  2.2538 -1.3667
 7248TIP3   OH243158   0.120   6.038  13.260  0.3323 -0.1151 -0.7395
 7248TIP3    H143159   0.079   5.955  13.286  0.2173 -0.3221 -1.5556
 7248TIP3    H243160   0.047   6.095  13.238  0.2797  0.9593  1.8660
 7249TIP3   OH243161   6.297   2.719   3.923 -0.3441 -0.1565 -0.7147
 7249TIP3    H143162   6.229   2.764   3.973  0.2413  0.7952 -0.7480
 7249TIP3    H243163   6.326   2.783   3.859  0.8046 -0.4238 -0.4930
 7250TIP3   OH243164   5.360   1.208  12.595 -0.3873 -0.0694 -0.3235
 7250TIP3    H143165   5.370   1.177  12.685  1.5223 -0.1834 -0.5379
 7250TIP3    H243166   5.344   1.128  12.544 -0.7262 -0.0861 -0.1956
 7251TIP3   OH243167   6.123   1.782  15.439  0.0510 -0.0093 -0.0226
 7251TIP3    H143168   6.049   1.843  15.440  0.0292  0.1039 -2.4877
 7251TIP3    H243169   6.201   1.838  15.434  0.0047 -0.0450 -3.0580
 7252TIP3   OH243170   5.562   4.912  17.090  0.5962  0.2094 -0.5919
 7252TIP3    H143171   5.651   4.943  17.074  1.1242 -0.0347  1.4932
 7252TIP3    H243172   5.552   4.916  17.186 -1.4487 -0.2860 -0.7220
 7253TIP3   OH243173   2.880   2.695  13.023  0.1712 -0.3725  0.4141
 7253TIP3    H143174   2.801   2.645  13.004 -1.3289  2.1046 -0.2879
 7253TIP3    H243175   2.911   2.724  12.937  2.1047 -1.5612  0.6356
 7254TIP3   OH243176   1.175   2.689  15.500 -0.1448  0.0265  0.8176
 7254TIP3    H143177   1.208   2.724  15.417 -1.7164 -0.9388 -0.2447
 7254TIP3    H243178   1.241   2.716  15.564  1.7007 -0.1739 -0.8991
 7255TIP3   OH243179   2.343   5.460  12.532  0.4126 -0.2081  0.3751
 7255TIP3    H143180   2.338   5.382  12.587 -0.1139  0.5599  1.4651
 7255TIP3    H243181   2.374   5.428  12.447 -0.3833 -1.6883  0.6045
 7256TIP3   OH243182   3.749   4.786   1.472 -0.4833 -0.0897  0.4557
 7256TIP3    H143183   3.664   4.790   1.515 -1.1465 -2.7486 -0.4299
 7256TIP3    H243184   3.755   4.867   1.422 -1.6697  0.9656  1.9394
 7257TIP3   OH243185   3.898   0.086  12.571  0.0988  0.0355 -0.6381
 7257TIP3    H143186   3.955   0.162  12.585 -0.3371  0.3898 -0.7295
 7257TIP3    H243187   3.911   0.063  12.479  0.6968 -0.3962 -0.4519
 7258TIP3   OH243188   3.677   3.638  13.305  0.3127  0.4580 -0.0465
 7258TIP3    H143189   3.739   3.637  13.232  0.3657 -1.7458 -0.0350
 7258TIP3    H243190   3.597   3.675  13.268  0.3408 -0.6356 -1.2520
 7259TIP3   OH243191   3.740   2.758  11.258  0.4977  0.3878 -0.0493
 7259TIP3    H143192   3.768   2.667  11.247  0.5116  0.0784  2.0656
 7259TIP3    H243193   3.821   2.809  11.254  0.7847  0.0397  1.0072
 7260TIP3   OH243194   1.362   2.238  10.162  0.0565 -1.0137  0.6169
 7260TIP3    H143195   1.451   2.220  10.193 -0.4798 -0.9709  2.2385
 7260TIP3    H243196   1.358   2.334  10.156 -0.2654 -0.9420  1.7864
 7261TIP3   OH243197   5.242   1.961  12.145  0.3063  0.1126  0.2752
 7261TIP3    H143198   5.208   1.973  12.234  0.4837  1.2739  0.1933
 7261TIP3    H243199   5.236   2.047  12.105  0.7867 -0.2734 -0.6527
 7262TIP3   OH243200   5.513   5.990  12.100  0.4220 -0.1091  0.0300
 7262TIP3    H143201   5.473   6.072  12.130 -2.6053 -0.9916 -1.2363
 7262TIP3    H243202   5.550   6.012  12.014  1.4624  0.3743  0.5831
 7263TIP3   OH243203   6.419   5.979   0.369 -0.4570 -0.0172  0.5146
 7263TIP3    H143204   6.478   5.958   0.442 -0.1747 -1.3431 -0.0711
 7263TIP3    H243205   6.371   6.056   0.399  2.2128  1.7096  0.6375
 7264TIP3   OH243206   6.277   2.378  16.679 -0.0545 -0.3841 -0.2662
 7264TIP3    H143207   6.235   2.381  16.593 -0.4115  0.4028 -0.0689
 7264TIP3    H243208   6.241   2.453  16.727  0.3061 -0.6811  0.4961
 7265TIP3   OH243209   4.799   5.687  14.594  0.1295 -0.3276 -0.5654
 7265TIP3    H143210   4.877   5.674  14.649  0.2960  0.5047 -0.5813
 7265TIP3    H243211   4.796   5.782  14.581  1.1972 -0.6096 -3.5935
 7266TIP3   OH243212   4.707   3.966  13.520 -0.4212 -0.0335  0.3845
 7266TIP3    H143213   4.793   3.977  13.481  0.0082 -2.7599  0.3285
 7266TIP3    H243214   4.725   3.937  13.610 -1.2647 -0.0537  0.5589
 7267TIP3   OH243215   2.160   4.978   3.826  0.0165 -0.6024 -0.6510
 7267TIP3    H143216   2.136   4.907   3.886 -1.3286  0.5268  0.2319
 7267TIP3    H243217   2.187   4.934   3.746 -1.3301 -2.1160 -0.3253
 7268TIP3   OH243218   1.428   1.349   5.561 -0.3487  0.3807  0.2859
 7268TIP3    H143219   1.372   1.377   5.489 -1.2539  0.6461  1.0829
 7268TIP3    H243220   1.369   1.335   5.634  0.6701  1.1088  1.2912
 7269TIP3   OH243221   5.818   0.462   1.328  0.7906  0.0813  0.1038
 7269TIP3    H143222   5.853   0.436   1.243 -0.9452  1.0192 -0.9584
 7269TIP3    H243223   5.754   0.530   1.308 -0.0586 -0.0574  2.1136
 7270TIP3   OH243224   0.595   1.591   3.378  0.6952 -0.9424  0.5495
 7270TIP3    H143225   0.652   1.662   3.408 -0.7352  0.2425  0.6188
 7270TIP3    H243226   0.514   1.603   3.429 -1.1984  0.0807 -2.4409
 7271TIP3   OH243227   0.582   2.622  10.833  0.3120 -0.2890  0.4139
 7271TIP3    H143228   0.653   2.558  10.833 -1.1026 -1.9402  0.4747
 7271TIP3    H243229   0.502   2.569  10.834 -1.0045  1.4453 -2.1817
 7272TIP3   OH243230   3.123   1.708  12.376 -0.8131 -1.1480  0.7148
 7272TIP3    H143231   3.165   1.734  12.457  2.2794 -0.5568 -0.9233
 7272TIP3    H243232   3.054   1.774  12.362 -0.3476 -0.3541  2.0530
 7273TIP3   OH243233   1.558   3.864   1.911  0.3932  0.1290 -0.3721
 7273TIP3    H143234   1.462   3.869   1.912  0.2859 -1.5253  0.6008
 7273TIP3    H243235   1.584   3.885   2.000  0.8296 -0.8132 -0.2697
 7274TIP3   OH243236   4.280   3.389   5.820  0.3274  0.3134  0.0299
 7274TIP3    H143237   4.191   3.382   5.784 -0.8397  2.6149  2.1404
 7274TIP3    H243238   4.323   3.453   5.765 -0.1186  0.8862  0.3329
 7275TIP3   OH243239   4.887   0.996   5.549  0.2963 -0.3610  0.1314
 7275TIP3    H143240   4.880   0.902   5.559 -0.0104 -0.2489  1.0055
 7275TIP3    H243241   4.834   1.016   5.471 -0.3567 -0.8015  0.4567
 7276TIP3   OH243242   3.692   6.565   5.913 -0.3253  0.1665 -0.3762
 7276TIP3    H143243   3.641   6.484   5.916  0.1630 -0.1378 -0.1132
 7276TIP3    H243244   3.640   6.629   5.961  0.8968 -0.9267  2.6681
 7277TIP3   OH243245   6.007   4.490  16.297  0.2078 -0.2134 -0.0392
 7277TIP3    H143246   5.925   4.490  16.345 -0.1789 -0.1449 -0.6939
 7277TIP3    H243247   6.042   4.401  16.308 -0.5855 -0.6317 -0.8254
 7278TIP3   OH243248   0.126   3.202  13.311 -0.3681  0.0520  0.1015
 7278TIP3    H143249   0.179   3.139  13.262 -1.4397 -0.5607 -0.2970
 7278TIP3    H243250   0.165   3.204  13.399  0.2016 -0.5159 -0.1366
 7279TIP3   OH243251   2.928   3.611  12.385 -0.3714 -0.7127  0.3742
 7279TIP3    H143252   2.836   3.593  12.406 -0.8470  0.0481 -0.9361
 7279TIP3    H243253   2.933   3.706  12.378  0.3341 -0.7947 -0.3893
 7280TIP3   OH243254   4.653   4.804  13.912 -0.0283  0.5932  0.3055
 7280TIP3    H143255   4.633   4.895  13.889 -0.3344  0.3235 -0.5310
 7280TIP3    H243256   4.726   4.811  13.974 -0.6670  1.4393  0.9852
 7281TIP3   OH243257   0.859   6.132  14.791  0.1761  0.1359 -0.1662
 7281TIP3    H143258   0.819   6.219  14.786 -0.7761 -0.3630 -2.0346
 7281TIP3    H243259   0.945   6.144  14.749 -1.0370 -0.3341 -3.0142
 7282TIP3   OH243260   5.124   3.986   4.193 -0.3500  0.4641  0.1886
 7282TIP3    H143261   5.207   4.031   4.206  0.3359 -0.0497 -1.9901
 7282TIP3    H243262   5.095   3.963   4.281  1.0974  1.8899  1.0935
 7283TIP3   OH243263   0.129   0.722   0.258  0.3415 -0.3634  0.0615
 7283TIP3    H143264   0.122   0.716   0.353  0.7260  1.6312  0.2601
 7283TIP3    H243265   0.044   0.757   0.230 -0.0447 -1.6399 -0.4384
 7284TIP3   OH243266   2.012   0.102  10.049  0.4242  0.3546 -0.1157
 7284TIP3    H143267   2.038   0.139  10.134  0.5591 -0.0955  0.0405
 7284TIP3    H243268   2.037   0.169   9.985  0.8144  0.4617  0.1462
 7285TIP3   OH243269   5.527   3.723   1.017  0.1008 -0.7611  0.3005
 7285TIP3    H143270   5.549   3.664   1.089  0.6957 -1.1960 -0.2321
 7285TIP3    H243271   5.451   3.684   0.975 -1.6808  0.6405  2.0211
 7286TIP3   OH243272   2.251   4.127   4.342  1.2878 -0.0683 -0.0143
 7286TIP3    H143273   2.226   4.178   4.265  0.8920  0.4344  0.4398
 7286TIP3    H243274   2.252   4.036   4.311  0.5837  0.0722 -0.4791
 7287TIP3   OH243275   6.193   5.009  12.053 -0.1915 -0.5273 -0.2930
 7287TIP3    H143276   6.119   5.066  12.034 -0.2269 -0.0143  1.2855
 7287TIP3    H243277   6.160   4.920  12.037 -1.0353 -0.2807  0.0464
 7288TIP3   OH243278   2.748   3.384  12.041  0.8279 -0.2053 -0.2225
 7288TIP3    H143279   2.823   3.413  12.092  0.2035  1.5315 -0.2106
 7288TIP3    H243280   2.731   3.295  12.072  3.2834 -0.9324 -0.7541
 7289TIP3   OH243281   0.068   1.032   5.091 -0.0713 -0.3800  0.7438
 7289TIP3    H143282   0.109   0.946   5.092  1.0851  0.1638  1.7929
 7289TIP3    H243283   0.030   1.040   5.003  0.8910 -1.4450  0.2160
 7290TIP3   OH243284   2.917   5.040  13.466  0.1320 -0.4680  0.0661
 7290TIP3    H143285   2.872   5.093  13.532 -3.1587 -3.2649  0.3303
 7290TIP3    H243286   2.917   4.951  13.501  1.3174 -1.4909 -2.2880
 7291TIP3   OH243287   1.912   6.285   5.721  0.0172 -0.1118  0.1126
 7291TIP3    H143288   1.976   6.333   5.774  0.3320  0.4905 -0.7939
 7291TIP3    H243289   1.924   6.193   5.747 -0.1055  0.1985  1.3485
 7292TIP3   OH243290   3.889   3.681   0.132 -0.1519 -0.0065 -0.9034
 7292TIP3    H143291   3.903   3.706   0.041 -0.3665  0.6363 -0.7598
 7292TIP3    H243292   3.944   3.741   0.183  1.1413 -1.3210 -0.6809
 7293TIP3   OH243293   5.136   0.434   1.411  0.1694 -1.0731  0.5879
 7293TIP3    H143294   5.212   0.475   1.453  0.4490  0.1526 -1.0436
 7293TIP3    H243295   5.173   0.371   1.349 -0.0614  0.2562 -0.9597
 7294TIP3   OH243296   4.886   5.728  12.340  0.4954  0.0432  0.6646
 7294TIP3    H143297   4.926   5.652  12.383 -1.8849 -1.6442  0.1171
 7294TIP3    H243298   4.899   5.712  12.246 -0.2938  0.1132  0.5326
 7295TIP3   OH243299   3.765   6.211  17.061 -0.9107  0.0851 -0.4142
 7295TIP3    H143300   3.828   6.206  17.133 -0.9166  1.1247 -0.3291
 7295TIP3    H243301   3.808   6.165  16.989 -0.4891 -0.1036 -0.0458
 7296TIP3   OH243302   3.379   1.411  12.392  0.1735 -0.4445  0.0507
 7296TIP3    H143303   3.411   1.438  12.477 -2.0694 -0.3666  0.9377
 7296TIP3    H243304   3.439   1.452  12.329  1.0329  0.6560  1.5307
 7297TIP3   OH243305   2.815   0.296   1.713  0.0927  0.0897 -0.0552
 7297TIP3    H143306   2.836   0.387   1.692 -2.9481  1.0664  0.5442
 7297TIP3    H243307   2.773   0.301   1.799 -0.5991 -1.8034 -0.2423
 7298TIP3   OH243308   3.187   0.127   3.872  0.2080 -0.4153 -0.5290
 7298TIP3    H143309   3.092   0.132   3.859  0.1998  1.2719  0.0162
 7298TIP3    H243310   3.209   0.207   3.918  1.8012 -1.1681  0.0805
 7299TIP3   OH243311   2.269   4.652  13.228 -0.3369 -0.4618  0.0978
 7299TIP3    H143312   2.335   4.661  13.297 -0.4284 -1.0939  0.2733
 7299TIP3    H243313   2.248   4.742  13.203 -0.0292 -0.2372  0.6357
 7300TIP3   OH243314   0.393   1.357   0.741 -0.1231  0.0654 -0.6573
 7300TIP3    H143315   0.309   1.312   0.748  0.6106 -1.1601  1.0882
 7300TIP3    H243316   0.412   1.360   0.647 -2.3196  0.8423 -1.1379
 7301TIP3   OH243317   6.214   3.014  12.620  0.3050 -0.4721 -0.4838
 7301TIP3    H143318   6.181   3.104  12.631  1.3171 -0.1706  0.1800
 7301TIP3    H243319   6.244   3.011  12.530  2.0023  0.4819 -0.0091
 7302TIP3   OH243320   1.475   2.808   1.069  0.0171 -0.4714  0.0666
 7302TIP3    H143321   1.530   2.729   1.073  1.2843  0.3804  0.2448
 7302TIP3    H243322   1.535   2.876   1.037 -0.9406  0.5082  0.3254
 7303TIP3   OH243323   2.576   4.821  11.224 -0.3128  0.1927  0.4475
 7303TIP3    H143324   2.622   4.889  11.173  1.2607  0.6732  2.3984
 7303TIP3    H243325   2.512   4.870  11.275 -1.8853 -0.2924 -0.9684
 7304TIP3   OH243326   2.073   6.449   1.528 -0.8033 -0.5286 -0.1747
 7304TIP3    H143327   2.093   6.402   1.609 -0.8293  0.9655  0.7261
 7304TIP3    H243328   2.002   6.400   1.488 -1.4717 -0.7272  1.2187
 7305TIP3   OH243329   2.875   6.442   3.880  0.1538  0.3727  0.1419
 7305TIP3    H143330   2.917   6.519   3.843  0.3553  0.7483  1.1260
 7305TIP3    H243331   2.899   6.444   3.973 -0.4775 -0.4476  0.3319
 7306TIP3   OH243332   5.813   5.138  15.001  0.2819  0.5808 -0.2329
 7306TIP3    H143333   5.893   5.141  15.053 -0.3064 -3.4634  1.1943
 7306TIP3    H243334   5.742   5.143  15.065 -0.5985  1.2883 -1.2234
 7307TIP3   OH243335   5.818   4.230  15.496 -0.3564 -0.5079  0.7944
 7307TIP3    H143336   5.870   4.289  15.550 -0.2521  0.1313  0.0201
 7307TIP3    H243337   5.859   4.145  15.506 -0.0212 -0.2877  1.3025
 7308TIP3   OH243338   3.648   5.093   4.458  0.2439  0.4852  0.3046
 7308TIP3    H143339   3.621   5.002   4.447 -0.4844  0.7689 -0.3571
 7308TIP3    H243340   3.604   5.122   4.538 -1.0920  0.8059 -0.5145
 7309TIP3   OH243341   4.765   2.416   3.165 -0.0214  0.3643 -1.3398
 7309TIP3    H143342   4.748   2.373   3.249  2.4090 -1.0412 -1.4806
 7309TIP3    H243343   4.685   2.465   3.147 -0.9802 -0.0601  1.3170
 7310TIP3   OH243344   2.416   3.033   1.438 -0.0256  0.1531 -0.2734
 7310TIP3    H143345   2.350   3.015   1.505  0.0913  0.6118 -0.0270
 7310TIP3    H243346   2.383   2.992   1.359 -0.1372 -0.4579  0.0815
 7311TIP3   OH243347   3.241   3.279   0.628 -0.3979  0.6807 -0.0860
 7311TIP3    H143348   3.279   3.334   0.696  0.8332  0.3064 -0.4454
 7311TIP3    H243349   3.183   3.219   0.675 -2.2148  2.5953  0.2542
 7312TIP3   OH243350   4.807   1.956  10.653 -0.2125  0.2035 -0.7278
 7312TIP3    H143351   4.789   1.921  10.740 -1.8477  0.4994 -0.9144
 7312TIP3    H243352   4.810   1.879  10.596  0.9560  0.0019 -0.4051
 7313TIP3   OH243353   6.253   5.341  15.864  0.4015  0.0544 -0.1662
 7313TIP3    H143354   6.281   5.392  15.939  2.2336  1.5809 -1.7604
 7313TIP3    H243355   6.157   5.344  15.867  0.4482  1.2106  1.3651
 7314TIP3   OH243356   2.582   4.902   0.781 -0.4653  0.7987  0.2204
 7314TIP3    H143357   2.653   4.883   0.720  0.9066 -1.4811  2.3452
 7314TIP3    H243358   2.509   4.929   0.725  0.5734 -1.5080 -2.4932
 7315TIP3   OH243359   5.398   4.667   5.773 -0.9536 -0.2796 -0.4452
 7315TIP3    H143360   5.372   4.584   5.732  0.4029 -0.0849 -1.8061
 7315TIP3    H243361   5.377   4.656   5.865  0.4299 -2.6811 -0.3298
 7316TIP3   OH243362   2.952   5.046  11.519  0.0982 -0.2173  0.3898
 7316TIP3    H143363   2.889   5.114  11.494  0.6361  0.1252 -0.0510
 7316TIP3    H243364   3.025   5.057  11.458 -0.5763 -2.3772 -0.9607
 7317TIP3   OH243365   1.837   2.518  13.276 -0.1696  0.0783  0.1023
 7317TIP3    H143366   1.801   2.483  13.195  1.6715  1.2831 -1.3199
 7317TIP3    H243367   1.765   2.569  13.314 -0.6552  0.6567 -1.5164
 7318TIP3   OH243368   2.263   1.483   0.107 -0.1929  0.0972  0.1018
 7318TIP3    H143369   2.357   1.482   0.085 -0.2223 -1.5591 -0.0837
 7318TIP3    H243370   2.231   1.399   0.077 -1.7153  0.5586  0.3770
 7319TIP3   OH243371   0.597   5.627  16.990 -0.1415 -0.4488 -0.0910
 7319TIP3    H143372   0.508   5.629  16.956 -0.4556 -0.0931  0.7392
 7319TIP3    H243373   0.611   5.714  17.028  0.6226 -0.4427 -0.3572
 7320TIP3   OH243374   1.197   2.425   0.150 -0.1986  0.2300  0.1906
 7320TIP3    H143375   1.141   2.395   0.079  0.1562 -0.7793  0.3286
 7320TIP3    H243376   1.267   2.361   0.154  0.9279  1.4223  0.0907
 7321TIP3   OH243377   3.635   1.516   0.852 -0.4295 -0.0624  0.8082
 7321TIP3    H143378   3.631   1.600   0.897  2.2852  0.5510  0.0732
 7321TIP3    H243379   3.648   1.538   0.760  0.9902 -1.2161  0.6863
 7322TIP3   OH243380   4.943   5.449   1.669 -0.6944  1.2398 -0.3365
 7322TIP3    H143381   4.870   5.432   1.729 -1.6979  1.1875 -1.5522
 7322TIP3    H243382   4.974   5.362   1.643 -0.8990  1.2617 -0.6550
 7323TIP3   OH243383   6.528   0.629   0.547 -0.0497  0.6971  0.1911
 7323TIP3    H143384   6.452   0.641   0.490  1.2758  0.9577 -1.6094
 7323TIP3    H243385   6.491   0.603   0.631 -2.1081  0.5774 -0.6919
 7324TIP3   OH243386   2.042   0.376  11.032  0.4688  0.2945 -0.6768
 7324TIP3    H143387   2.056   0.319  10.956  0.2819 -1.7167  0.7282
 7324TIP3    H243388   1.947   0.376  11.045  0.6247 -3.2796  2.2175
 7325TIP3   OH243389   4.651   2.504  14.318 -0.1681  0.0796  0.1244
 7325TIP3    H143390   4.608   2.427  14.281  1.1306 -1.3947  1.5591
 7325TIP3    H243391   4.674   2.557  14.242 -0.6769 -1.1528 -0.9290
 7326TIP3   OH243392   2.465   5.450  11.526 -0.0730 -0.2280  0.1564
 7326TIP3    H143393   2.423   5.398  11.595 -2.7526  0.5203 -0.7857
 7326TIP3    H243394   2.414   5.530  11.522  0.8465  0.3258 -1.8222
 7327TIP3   OH243395   6.083   2.487  14.291  0.1086 -0.7426 -0.2201
 7327TIP3    H143396   6.121   2.553  14.349 -0.6042 -1.1717  0.7428
 7327TIP3    H243397   6.157   2.430  14.269  0.6206  0.0576 -0.6528
 7328TIP3   OH243398   2.016   3.796   4.477 -1.0458  0.4205  0.2431
 7328TIP3    H143399   1.925   3.803   4.449 -1.3959 -0.3872  1.1217
 7328TIP3    H243400   2.012   3.798   4.573 -0.2497 -0.6219  0.3248
 7329TIP3   OH243401   3.475   3.061  13.232  0.4076 -0.6503  0.1513
 7329TIP3    H143402   3.510   3.148  13.212  1.0643 -0.7210  0.9549
 7329TIP3    H243403   3.442   3.029  13.148  2.3390 -0.6042 -0.6729
 7330TIP3   OH243404   3.658   4.736  11.041 -0.1415  0.0237  0.4420
 7330TIP3    H143405   3.565   4.740  11.017  0.3340 -0.4825 -1.7261
 7330TIP3    H243406   3.677   4.823  11.076 -1.4065  0.1673  0.8225
 7331TIP3   OH243407   4.468   6.083   5.661 -0.3881 -0.1927  0.7094
 7331TIP3    H143408   4.379   6.120   5.665 -0.4390  0.3403 -2.4178
 7331TIP3    H243409   4.455   5.989   5.672 -0.7998  0.1526  4.1219
 7332TIP3   OH243410   2.574   2.200   3.484 -0.4017 -0.0956 -0.4570
 7332TIP3    H143411   2.499   2.235   3.435 -1.5026 -0.2716  1.0475
 7332TIP3    H243412   2.542   2.190   3.574  0.7508 -2.2993 -0.2268
 7333TIP3   OH243413   2.582   2.561  12.716 -0.1669 -0.0111 -0.2385
 7333TIP3    H143414   2.609   2.471  12.732  1.3530  0.2514 -1.0900
 7333TIP3    H243415   2.486   2.558  12.713 -0.2433 -1.2290  1.6982
 7334TIP3   OH243416   2.366   2.529   4.928 -0.3673  0.1032 -0.7523
 7334TIP3    H143417   2.384   2.622   4.937  1.1876 -0.2515  0.1080
 7334TIP3    H243418   2.391   2.491   5.012 -1.2608 -1.0666 -0.9745
 7335TIP3   OH243419   4.959   5.044  16.708  0.5474  0.2688  0.0188
 7335TIP3    H143420   5.024   5.040  16.637  0.5763  1.4612 -0.0517
 7335TIP3    H243421   5.008   5.077  16.783  1.1411 -3.3956  1.4261
 7336TIP3   OH243422   0.337   1.596   2.209  0.1326 -0.1144 -0.4479
 7336TIP3    H143423   0.273   1.646   2.159 -0.3961 -0.9715 -0.6485
 7336TIP3    H243424   0.421   1.632   2.184 -0.2688  1.0477 -0.1629
 7337TIP3   OH243425   2.123   5.546   3.908 -0.3143 -0.0217 -0.1575
 7337TIP3    H143426   2.134   5.611   3.977  1.8315  0.5570 -0.9916
 7337TIP3    H243427   2.032   5.515   3.919 -0.2270  0.4415  2.5314
 7338TIP3   OH243428   6.240   0.986   4.002 -0.0131  1.1769 -0.4198
 7338TIP3    H143429   6.288   0.991   4.085  1.6654 -0.6192 -1.2046
 7338TIP3    H243430   6.213   1.076   3.985 -0.7748  1.5564  2.2458
 7339TIP3   OH243431   4.460   2.220  15.883 -0.3734 -0.5458  0.5971
 7339TIP3    H143432   4.489   2.183  15.800 -1.3110 -1.9103  0.8458
 7339TIP3    H243433   4.367   2.240  15.870 -0.5017 -0.6597  1.2712
 7340TIP3   OH243434   4.322   1.824  11.337 -0.0278  0.6927  0.1208
 7340TIP3    H143435   4.284   1.886  11.399 -0.0997  1.2955 -0.5111
 7340TIP3    H243436   4.255   1.814  11.268 -0.7714 -1.4349  1.0496
 7341TIP3   OH243437   2.092   6.469   1.863 -0.1478  0.2240 -0.2954
 7341TIP3    H143438   2.047   6.545   1.828 -1.6261 -0.2720  0.4705
 7341TIP3    H243439   2.026   6.400   1.866  0.8408 -0.7476  0.1878
 7342TIP3   OH243440   2.072   2.870  11.062  0.0240  0.7247  0.3562
 7342TIP3    H143441   2.035   2.840  10.979 -1.0047  0.0728  1.0238
 7342TIP3    H243442   2.109   2.955  11.042  0.9783  0.0102 -1.0777
 7343TIP3   OH243443   0.746   0.805  13.569 -0.2585  0.1135 -0.3297
 7343TIP3    H143444   0.727   0.894  13.598 -0.2850 -0.2451  0.7744
 7343TIP3    H243445   0.666   0.756  13.585  0.0561 -0.3234 -0.0757
 7344TIP3   OH243446   1.299   0.424   5.595  0.2380  0.5650 -0.0531
 7344TIP3    H143447   1.295   0.503   5.649  0.2231  1.3072 -1.1157
 7344TIP3    H243448   1.285   0.455   5.506  0.0400 -0.6695 -0.4708
 7345TIP3   OH243449   4.295   2.274   2.002  0.6871 -0.0785 -0.0715
 7345TIP3    H143450   4.233   2.295   2.072  0.8457  3.2716 -0.7575
 7345TIP3    H243451   4.347   2.202   2.037 -1.2821 -0.6520  1.9296
 7346TIP3   OH243452   6.630   0.160   3.018 -0.3077  0.6102  0.1762
 7346TIP3    H143453   6.677   0.238   3.049 -1.2534  1.1026  0.4434
 7346TIP3    H243454   6.571   0.194   2.950  0.5030 -0.1787 -0.9561
 7347TIP3   OH243455   5.956   2.257  11.165 -0.0704 -0.1416 -0.6177
 7347TIP3    H143456   6.041   2.222  11.194 -0.0476 -0.7659 -1.4194
 7347TIP3    H243457   5.929   2.200  11.093 -0.0933  1.3980 -1.9035
 7348TIP3   OH243458   3.306   1.417  14.349  0.0743  0.3069 -0.3552
 7348TIP3    H143459   3.252   1.458  14.281  0.5019  1.5796  0.0553
 7348TIP3    H243460   3.395   1.443  14.329  0.2185  0.6288  0.6328
 7349TIP3   OH243461   1.496   5.332   3.115  0.7997  0.0814  0.0204
 7349TIP3    H143462   1.530   5.327   3.026 -0.0798  4.0864 -0.7382
 7349TIP3    H243463   1.574   5.348   3.169  0.9508  4.3674 -1.0848
 7350TIP3   OH243464   5.446   4.520   1.825  0.0342  0.4918 -0.2327
 7350TIP3    H143465   5.424   4.565   1.906  0.3481  1.6991 -0.8067
 7350TIP3    H243466   5.405   4.572   1.756  1.0523  0.3502 -0.9655
 7351TIP3   OH243467   1.111   5.102  13.881  0.0982 -0.2650 -0.2836
 7351TIP3    H143468   1.056   5.132  13.954  0.6690  1.0793 -0.3700
 7351TIP3    H243469   1.058   5.036  13.836 -1.9500  1.7878 -1.0524
 7352TIP3   OH243470   3.343   2.709  14.466 -0.4271  0.0306  0.0508
 7352TIP3    H143471   3.289   2.771  14.416  1.0893  1.5792  0.2300
 7352TIP3    H243472   3.393   2.764  14.526  0.7827 -1.4078  0.4207
 7353TIP3   OH243473   1.115   1.866   1.550  0.4968  0.3197 -0.0956
 7353TIP3    H143474   1.200   1.839   1.585  0.5536  1.2603  0.5337
 7353TIP3    H243475   1.096   1.949   1.594 -0.8749 -0.0010 -0.0289
 7354TIP3   OH243476   2.330   2.588  16.723 -0.8516 -0.9017 -0.5678
 7354TIP3    H143477   2.317   2.516  16.786 -0.9204 -0.0842  0.3837
 7354TIP3    H243478   2.241   2.609  16.693 -0.9290 -0.5884 -0.1239
 7355TIP3   OH243479   4.308   2.737  12.314  0.1272  0.5446  0.1476
 7355TIP3    H143480   4.326   2.796  12.388 -1.8150  1.6849 -0.2093
 7355TIP3    H243481   4.372   2.761  12.248  2.4863 -1.0899  1.6896
 7356TIP3   OH243482   3.503   2.131  12.694  0.2454 -0.1241 -0.4623
 7356TIP3    H143483   3.495   2.210  12.639  0.7433 -1.1037 -2.0212
 7356TIP3    H243484   3.567   2.156  12.761  0.0305  0.9534 -0.6343
 7357TIP3   OH243485   3.208   4.586   3.343  0.1187 -0.2509  0.3791
 7357TIP3    H143486   3.217   4.498   3.304 -0.1470 -0.5013  0.8743
 7357TIP3    H243487   3.117   4.589   3.374 -0.3488  0.7562 -0.9730
 7358TIP3   OH243488   2.488   6.380  15.410  0.1127 -0.1956 -0.0447
 7358TIP3    H143489   2.473   6.470  15.441  2.0053  0.3942 -0.6902
 7358TIP3    H243490   2.432   6.372  15.333 -0.7562  0.0996  0.5397
 7359TIP3   OH243491   5.905   4.351  13.181  0.2226 -0.0862 -0.0246
 7359TIP3    H143492   5.963   4.425  13.199 -0.5291  0.6696 -0.6011
 7359TIP3    H243493   5.878   4.319  13.267  1.6570 -0.5918  0.2537
 7360TIP3   OH243494   5.497   0.144  11.205  0.6901  0.0626 -0.2555
 7360TIP3    H143495   5.510   0.190  11.122  1.3903  0.4850  0.0732
 7360TIP3    H243496   5.410   0.171  11.235  0.0278 -0.8450 -1.3125
 7361TIP3   OH243497   5.965   4.017  13.341  0.1876 -0.1127  0.1106
 7361TIP3    H143498   5.873   4.038  13.361  0.1973 -0.6814  0.7683
 7361TIP3    H243499   5.976   3.927  13.370  0.9966 -0.0054  0.1499
 7362TIP3   OH243500   5.993   3.014  14.302 -0.2782  0.6902  0.0487
 7362TIP3    H143501   5.900   2.990  14.308 -0.5294  1.6210  0.0273
 7362TIP3    H243502   5.998   3.100  14.344  0.4690  0.8994 -0.4540
 7363TIP3   OH243503   1.603   4.754  13.576  0.4865 -0.0265  0.4395
 7363TIP3    H143504   1.588   4.821  13.509 -0.2693 -0.6226 -0.0164
 7363TIP3    H243505   1.519   4.748  13.622  0.0437 -1.6644 -0.4888
 7364TIP3   OH243506   2.027   1.156   2.943  0.6283 -0.3854 -0.1502
 7364TIP3    H143507   2.113   1.198   2.951  0.7596 -0.0452 -2.5680
 7364TIP3    H243508   2.037   1.097   2.868 -1.3925  0.0791 -0.8289
 7365TIP3   OH243509   1.679   3.197  11.820 -0.4922  0.4213 -0.0547
 7365TIP3    H143510   1.590   3.217  11.848 -0.5986 -0.3369  0.1533
 7365TIP3    H243511   1.669   3.163  11.731 -0.5196 -0.5841  0.3182
 7366TIP3   OH243512   5.986   1.869   3.184 -0.1171  0.1286  0.4700
 7366TIP3    H143513   5.969   1.809   3.112 -1.6950 -0.8242  1.5675
 7366TIP3    H243514   5.924   1.843   3.252  1.0351  1.2466  2.0271
 7367TIP3   OH243515   1.761   2.357  15.485 -0.1148  0.1536  0.5766
 7367TIP3    H143516   1.716   2.414  15.547  0.9064  0.7593  0.7853
 7367TIP3    H243517   1.802   2.290  15.539  0.7847  0.6874  0.5913
 7368TIP3   OH243518   3.090   6.318  16.960  0.1690  0.4192  1.1449
 7368TIP3    H143519   2.999   6.329  16.933  0.0919 -0.6805  0.8847
 7368TIP3    H243520   3.111   6.228  16.936  0.5488 -0.1642  3.4165
 7369TIP3   OH243521   2.511   2.800   5.564 -0.1756 -0.3438 -0.1706
 7369TIP3    H143522   2.582   2.810   5.628  0.4220 -1.2400 -0.6590
 7369TIP3    H243523   2.445   2.747   5.610  0.2346 -0.9521 -0.2617
 7370TIP3   OH243524   5.748   5.729  11.343  0.2940 -0.5643 -0.3583
 7370TIP3    H143525   5.660   5.693  11.333  0.1819 -0.5318  0.4347
 7370TIP3    H243526   5.806   5.663  11.306 -0.1725  0.3131 -2.8337
 7371TIP3   OH243527   4.640   0.728   5.294 -0.3637  0.6018  0.4272
 7371TIP3    H143528   4.656   0.805   5.240 -1.9007  0.3469 -0.4500
 7371TIP3    H243529   4.550   0.738   5.325 -0.6980 -0.9489  0.0664
 7372TIP3   OH243530   3.620   3.704   2.904 -0.1290 -0.3629 -0.3483
 7372TIP3    H143531   3.637   3.614   2.932 -0.3077 -0.4410 -0.4861
 7372TIP3    H243532   3.690   3.755   2.943  0.1779 -0.6145 -0.5580
 7373TIP3   OH243533   5.045   5.253  15.990 -0.3843  0.5804 -0.6245
 7373TIP3    H143534   4.980   5.255  16.060 -0.1475  2.2466 -0.4127
 7373TIP3    H243535   4.996   5.277  15.911  0.1535  3.1686 -0.2483
 7374TIP3   OH243536   5.408   2.590   3.666 -0.5581 -0.1134  0.1936
 7374TIP3    H143537   5.360   2.665   3.632  1.1907  0.2080 -1.8351
 7374TIP3    H243538   5.446   2.549   3.588  0.4810 -1.7103  1.4664
 7375TIP3   OH243539   0.125   6.188  11.496  0.6617 -0.1782  0.2878
 7375TIP3    H143540   0.136   6.282  11.504  1.8765 -0.1825 -0.9051
 7375TIP3    H243541   0.214   6.152  11.501  0.1594 -1.3499  1.5201
 7376TIP3   OH243542   4.004   2.839  15.207  0.0438  0.2977  0.1933
 7376TIP3    H143543   4.087   2.835  15.159 -0.4064 -1.0154 -0.5180
 7376TIP3    H243544   3.978   2.931  15.201  1.1994  0.6299  0.0127
 7377TIP3   OH243545   4.691   2.555  16.743 -0.0795 -0.1179  0.1505
 7377TIP3    H143546   4.681   2.648  16.759  1.5414  0.0379  0.4505
 7377TIP3    H243547   4.651   2.513  16.819 -1.5929  0.2822 -0.3979
 7378TIP3   OH243548   2.954   5.620  11.142  0.0890 -0.3340 -0.6049
 7378TIP3    H143549   2.914   5.692  11.094  1.5647 -0.0887 -1.5416
 7378TIP3    H243550   2.971   5.553  11.076  1.7509 -0.1732 -0.3904
 7379TIP3   OH243551   1.768   4.611  15.867 -0.4275 -0.2232 -0.7222
 7379TIP3    H143552   1.732   4.593  15.954 -1.0520 -1.2822 -1.1824
 7379TIP3    H243553   1.837   4.676  15.883  0.2670 -1.2406  0.7181
 7380TIP3   OH243554   0.409   3.120  13.837 -0.4138  0.0209 -0.2368
 7380TIP3    H143555   0.337   3.148  13.893 -0.2359 -2.1241  1.1640
 7380TIP3    H243556   0.473   3.190  13.844 -1.2642  0.7446  0.6073
 7381TIP3   OH243557   0.215   6.596  11.772  0.0124  0.1746  0.4796
 7381TIP3    H143558   0.289   6.580  11.830  0.1497  0.3343  0.3505
 7381TIP3    H243559   0.252   6.648  11.700 -0.4205  1.0136  0.8598
 7382TIP3   OH243560   5.846   6.409  12.814 -0.1500 -0.0674  0.2250
 7382TIP3    H143561   5.781   6.471  12.779 -0.7510 -1.2232 -0.7695
 7382TIP3    H243562   5.894   6.379  12.738  0.4630 -0.4622  0.7602
 7383TIP3   OH243563   2.576   3.436  16.951 -0.3481  0.1371 -0.5196
 7383TIP3    H143564   2.597   3.385  17.029 -1.2226  1.8536  0.9069
 7383TIP3    H243565   2.627   3.516  16.960 -3.6310  2.3218  0.6430
 7384TIP3   OH243566   5.353   2.669  10.647 -0.1936 -0.1536 -0.7907
 7384TIP3    H143567   5.278   2.727  10.634 -0.4669 -0.2339  0.3180
 7384TIP3    H243568   5.315   2.583  10.664  0.1429 -0.1956 -0.2313
 7385TIP3   OH243569   3.051   4.144   5.844 -0.2062 -0.2235 -0.1432
 7385TIP3    H143570   2.983   4.211   5.846  0.6974  0.8162 -1.8003
 7385TIP3    H243571   3.098   4.155   5.926 -0.9451  0.2259  0.2260
 7386TIP3   OH243572   2.517   5.289   0.053  0.2166 -0.3403 -0.0736
 7386TIP3    H143573   2.579   5.300  -0.018 -0.0612  0.6565 -0.1767
 7386TIP3    H243574   2.431   5.304   0.013  0.1510  1.7629  0.7320
 7387TIP3   OH243575   2.246   0.770  15.185 -0.4219  0.0239 -0.1365
 7387TIP3    H143576   2.243   0.823  15.265 -1.8131  1.2762 -0.9549
 7387TIP3    H243577   2.155   0.745  15.170  0.1782 -2.7288  0.2178
 7388TIP3   OH243578   4.694   3.410   4.264 -0.5431 -0.6803 -0.6892
 7388TIP3    H143579   4.702   3.390   4.170  1.5531 -0.5027 -0.5916
 7388TIP3    H243580   4.776   3.378   4.302 -0.4375  1.1644  0.7352
 7389TIP3   OH243581   6.450   5.581   5.255 -0.1368 -0.2776 -0.7427
 7389TIP3    H143582   6.459   5.650   5.321 -3.3524  0.9633 -1.4015
 7389TIP3    H243583   6.506   5.609   5.183  0.4731  0.3386 -0.0475
 7390TIP3   OH243584   6.428   4.282   0.820  0.2114  0.3539  0.2898
 7390TIP3    H143585   6.454   4.219   0.752  0.1427  0.4981  0.1283
 7390TIP3    H243586   6.495   4.350   0.817  0.9989 -0.3498  1.3455
 7391TIP3   OH243587   0.956   4.485   6.130 -0.2172  0.0291  0.0542
 7391TIP3    H143588   1.013   4.536   6.187 -1.0419 -0.0024  0.9242
 7391TIP3    H243589   0.982   4.394   6.144 -2.0034 -0.2086  2.2496
 7392TIP3   OH243590   6.360   0.504  10.634  0.0176  0.6159 -0.2839
 7392TIP3    H143591   6.269   0.535  10.631 -0.1852  0.0997  0.3491
 7392TIP3    H243592   6.368   0.448  10.558 -0.1378  0.8167 -0.4514
 7393TIP3   OH243593   4.544   2.290   3.778 -0.6374 -0.6949  0.4989
 7393TIP3    H143594   4.506   2.356   3.836 -0.3136 -0.2530  0.2219
 7393TIP3    H243595   4.636   2.284   3.805 -0.1510  0.4599 -0.7745
 7394TIP3   OH243596   5.014   3.310  13.059  0.3124  0.2556  1.1486
 7394TIP3    H143597   5.044   3.290  13.148  0.5736 -1.1660  0.7725
 7394TIP3    H243598   5.038   3.232  13.008 -2.6628 -0.3525  0.4938
 7395TIP3   OH243599   3.715   0.160   2.897 -0.1044 -0.3060  0.8413
 7395TIP3    H143600   3.718   0.105   2.819 -1.6290  0.0253  0.5180
 7395TIP3    H243601   3.729   0.100   2.970 -0.8333 -0.9871  0.4355
 7396TIP3   OH243602   1.299   2.390  11.179  0.5346 -0.2585 -0.0382
 7396TIP3    H143603   1.211   2.426  11.182 -0.0078 -1.4750 -0.7557
 7396TIP3    H243604   1.329   2.392  11.270 -0.5482 -0.6086  0.3322
 7397TIP3   OH243605   5.320   5.038  17.062  0.1254 -0.5626 -0.1253
 7397TIP3    H143606   5.395   4.983  17.040 -0.8376 -2.9639  2.0343
 7397TIP3    H243607   5.328   5.052  17.157 -0.3995  2.0486 -0.3758
 7398TIP3   OH243608   4.019   4.722  11.793  0.0779 -0.0348 -0.4320
 7398TIP3    H143609   3.968   4.729  11.873  0.8104  1.1175 -0.0357
 7398TIP3    H243610   3.955   4.726  11.723 -0.6097 -1.4362  0.0722
 7399TIP3   OH243611   0.105   1.447  13.583  0.3025  0.1618 -0.0819
 7399TIP3    H143612   0.096   1.397  13.502  0.6258 -0.8322  0.4871
 7399TIP3    H243613   0.023   1.495  13.591 -0.7523 -1.6105  0.2533
 7400TIP3   OH243614   6.534   0.648   5.468 -0.2586  0.5773  0.6350
 7400TIP3    H143615   6.551   0.670   5.560 -0.7086  5.4063 -0.1835
 7400TIP3    H243616   6.440   0.635   5.464 -0.1800 -0.1040  0.9164
 7401TIP3   OH243617   1.055   2.536  16.686 -0.1445  0.2626  0.5223
 7401TIP3    H143618   1.089   2.612  16.638  0.9677 -0.4179  0.1776
 7401TIP3    H243619   1.059   2.561  16.778 -0.9399  1.0566  0.3553
 7402TIP3   OH243620   1.208   6.714   4.403  0.1154 -0.0066  0.5322
 7402TIP3    H143621   1.142   6.645   4.394 -0.0324  0.0699  1.0208
 7402TIP3    H243622   1.223   6.745   4.313  1.6577 -2.0467  0.0030
 7403TIP3   OH243623   2.180   4.672   1.292  0.4101  0.3641  0.3558
 7403TIP3    H143624   2.218   4.636   1.372 -0.1210  1.3209  1.0604
 7403TIP3    H243625   2.177   4.766   1.307 -1.6809  0.3906  0.1122
 7404TIP3   OH243626   3.666   5.236  15.772 -1.0939 -0.8076  0.5173
 7404TIP3    H143627   3.652   5.259  15.864 -0.7348  1.6262  0.0350
 7404TIP3    H243628   3.689   5.143  15.774 -0.4361 -0.6650  2.9541
 7405TIP3   OH243629   5.877   0.709  16.572 -0.4151 -0.4200 -0.0313
 7405TIP3    H143630   5.883   0.621  16.537  1.1997 -0.9001  1.3195
 7405TIP3    H243631   5.819   0.701  16.648 -1.3145 -0.0381 -0.6642
 7406TIP3   OH243632   5.811   6.394  14.280  0.0033 -0.2199 -0.4732
 7406TIP3    H143633   5.766   6.312  14.299  0.2100  0.0868  1.5954
 7406TIP3    H243634   5.745   6.462  14.294  0.8622  0.2021  2.1325
 7407TIP3   OH243635   4.940   4.446  11.649  0.0778 -0.0234 -0.4863
 7407TIP3    H143636   4.902   4.497  11.578  0.3722 -1.2711 -1.5772
 7407TIP3    H243637   4.866   4.398  11.687  0.0466  0.0400 -0.4669
 7408TIP3   OH243638   5.529   3.888   5.404  0.4880  0.0361  0.0995
 7408TIP3    H143639   5.593   3.820   5.382 -0.5283 -0.1908 -2.5531
 7408TIP3    H243640   5.513   3.878   5.497  1.6759 -2.2143  0.1156
 7409TIP3   OH243641   1.349   5.775  13.305  0.7659 -0.4817  0.0262
 7409TIP3    H143642   1.315   5.693  13.342 -0.9904 -0.5489 -1.5939
 7409TIP3    H243643   1.283   5.840  13.329  1.4624  0.1879  0.1357
 7410TIP3   OH243644   4.838   2.434  12.288  0.0007 -0.3492 -0.4298
 7410TIP3    H143645   4.780   2.375  12.336 -1.5172  1.0605 -0.4036
 7410TIP3    H243646   4.903   2.462  12.353  1.5894 -2.9188 -0.7781
 7411TIP3   OH243647   0.339   3.511   2.795  0.3991 -0.3582  0.0148
 7411TIP3    H143648   0.344   3.415   2.794 -0.6208 -0.4370  0.8141
 7411TIP3    H243649   0.251   3.530   2.763  1.3344  0.4285 -2.3198
 7412TIP3   OH243650   2.929   4.473   2.577 -0.3200  0.0093  0.0828
 7412TIP3    H143651   3.016   4.444   2.604  0.3423  0.3451 -1.5443
 7412TIP3    H243652   2.892   4.397   2.531 -0.0889  0.4780 -0.9108
 7413TIP3   OH243653   6.693   0.307   5.406  0.5433 -0.2480  0.0783
 7413TIP3    H143654   6.699   0.347   5.319 -0.3530  0.4256  0.3097
 7413TIP3    H243655   6.658   0.219   5.390 -0.6212  0.2416 -0.1660
 7414TIP3   OH243656   2.393   1.385   1.019  0.3332 -0.0858 -0.2145
 7414TIP3    H143657   2.391   1.290   1.007  0.2992 -0.2403  0.8410
 7414TIP3    H243658   2.476   1.402   1.063 -0.0247  0.2659  0.3436
 7415TIP3   OH243659   5.656   0.913  11.516 -0.1750 -0.0056  0.0229
 7415TIP3    H143660   5.602   0.927  11.438 -0.7416  1.2059  0.5986
 7415TIP3    H243661   5.745   0.904  11.483 -0.3643  0.8397 -0.7556
 7416TIP3   OH243662   3.662   2.150  14.979 -0.1514 -0.4078 -0.2959
 7416TIP3    H143663   3.623   2.075  14.934  0.6145 -1.8180  1.2910
 7416TIP3    H243664   3.689   2.116  15.064 -1.3177  2.1011  1.1806
 7417TIP3   OH243665   5.942   0.721  13.006  0.6010 -0.1433  0.1491
 7417TIP3    H143666   6.037   0.719  12.994  0.7770 -0.6791  1.5077
 7417TIP3    H243667   5.922   0.812  13.028  1.0471 -0.3899  1.6367
 7418TIP3   OH243668   5.653   3.543  16.670  0.4923 -0.2875  0.0261
 7418TIP3    H143669   5.723   3.522  16.609  0.0066  2.2705 -1.5825
 7418TIP3    H243670   5.597   3.465  16.672  0.7354 -0.6195 -2.5412
 7419TIP3   OH243671   6.772   0.409  12.108 -0.1920  0.0432 -0.2658
 7419TIP3    H143672   6.795   0.423  12.199 -1.3219 -2.0183  0.4024
 7419TIP3    H243673   6.855   0.387  12.065 -0.0621 -2.5731  1.0960
 7420TIP3   OH243674   4.540   2.492  12.680 -0.0854 -0.2346 -0.2266
 7420TIP3    H143675   4.458   2.503  12.729 -0.0826  1.0966 -0.4918
 7420TIP3    H243676   4.512   2.475  12.590 -0.0781 -1.9685  0.0625
 7421TIP3   OH243677   6.095   3.873   3.673  0.0244  0.4214  0.2923
 7421TIP3    H143678   6.080   3.945   3.734  0.6405  0.5510  0.2992
 7421TIP3    H243679   6.008   3.840   3.652 -0.2923  1.4274 -0.0125
 7422TIP3   OH243680   3.456   2.931   3.359  0.9193 -0.2833 -0.3968
 7422TIP3    H143681   3.376   2.964   3.317  1.6092  1.8557 -0.1673
 7422TIP3    H243682   3.523   2.995   3.335  2.3999 -1.6171  0.0492
 7423TIP3   OH243683   1.886   5.072  16.462  0.0589 -0.5353  0.3730
 7423TIP3    H143684   1.888   5.107  16.551  1.3360  0.3049  0.0406
 7423TIP3    H243685   1.921   5.143  16.408 -0.9697 -0.9181 -0.8500
 7424TIP3   OH243686   5.155   4.170   4.683 -0.1831 -0.6095 -0.4851
 7424TIP3    H143687   5.080   4.158   4.741  1.1764 -0.1982  1.4330
 7424TIP3    H243688   5.194   4.082   4.676 -0.0323 -0.5531 -0.3448
 7425TIP3   OH243689   1.675   1.257   3.412 -0.4526  0.7111  0.3909
 7425TIP3    H143690   1.674   1.314   3.335 -1.3031 -1.1366 -1.0472
 7425TIP3    H243691   1.755   1.206   3.403 -0.9703 -0.0958  0.2515
 7426TIP3   OH243692   1.286   0.940   0.225 -0.1461  0.3604  0.0770
 7426TIP3    H143693   1.223   0.892   0.172 -0.1456 -0.0187  0.4135
 7426TIP3    H243694   1.337   0.991   0.162  0.0351 -0.2925 -0.3119
 7427TIP3   OH243695   4.124   6.555   3.984  0.5932 -0.3610 -0.1401
 7427TIP3    H143696   4.199   6.610   3.962  0.0118  0.1937 -0.7659
 7427TIP3    H243697   4.102   6.578   4.074  1.6815 -1.1309  0.3479
 7428TIP3   OH243698   6.447   0.738  16.535  0.7815 -0.5777  0.6843
 7428TIP3    H143699   6.492   0.709  16.456  1.0315 -1.8434  1.2578
 7428TIP3    H243700   6.364   0.689  16.535  1.2543 -1.4190  1.7295
 7429TIP3   OH243701   2.136   3.526   1.748  0.1372  0.7007  0.2343
 7429TIP3    H143702   2.043   3.504   1.737  0.2055  0.6204 -0.2159
 7429TIP3    H243703   2.177   3.443   1.774  0.4647  0.1345 -1.8745
 7430TIP3   OH243704   4.106   5.205  11.085  0.0693  0.0867  0.3546
 7430TIP3    H143705   4.058   5.241  11.011 -1.1274  1.3614  1.6801
 7430TIP3    H243706   4.101   5.110  11.073  0.6963  0.2533 -1.6348
 7431TIP3   OH243707   2.956   3.267   3.944 -0.0376 -0.2367 -0.3921
 7431TIP3    H143708   2.946   3.176   3.917 -0.1107 -0.7650  1.2715
 7431TIP3    H243709   2.989   3.312   3.866 -1.9115 -1.2541 -1.8676
 7432TIP3   OH243710   2.536   1.611  12.279  0.4613  0.1133  0.0921
 7432TIP3    H143711   2.626   1.609  12.247  1.0170  0.8434  1.5219
 7432TIP3    H243712   2.525   1.699  12.314 -0.3111 -0.4417  1.3118
 7433TIP3   OH243713   5.200   5.630   2.818 -0.1139 -0.2251  0.6531
 7433TIP3    H143714   5.287   5.670   2.823 -0.3048  0.0857  1.9042
 7433TIP3    H243715   5.189   5.588   2.903 -1.5749  0.5833  0.9004
 7434TIP3   OH243716   1.615   2.993  15.213 -0.1331 -0.3432  0.2923
 7434TIP3    H143717   1.605   3.056  15.284  2.6204  0.1522  0.3577
 7434TIP3    H243718   1.529   2.989  15.171 -0.7684  2.3963  1.1715
 7435TIP3   OH243719   1.134   3.646  16.546 -0.1763  0.1364 -0.1255
 7435TIP3    H143720   1.083   3.686  16.476  1.4069  0.7738 -0.9676
 7435TIP3    H243721   1.224   3.670  16.526  0.8397 -3.3341 -0.3860
 7436TIP3   OH243722   4.831   1.423   0.923  0.8305  0.0120  0.1380
 7436TIP3    H143723   4.824   1.332   0.953 -0.4023  0.1044  0.1794
 7436TIP3    H243724   4.778   1.426   0.844  3.3672 -0.0207 -1.6841
 7437TIP3   OH243725   1.464   0.410  10.937  0.5342  0.0484  0.8320
 7437TIP3    H143726   1.444   0.470  10.865  1.0560 -1.3105 -0.4936
 7437TIP3    H243727   1.473   0.325  10.895  0.4699 -0.8601  2.5820
 7438TIP3   OH243728   1.229   4.640  17.038  0.4168  0.4231 -0.2697
 7438TIP3    H143729   1.257   4.605  17.122  0.4152  2.8502  0.8258
 7438TIP3    H243730   1.306   4.683  17.003 -0.0827  1.0691 -0.5973
 7439TIP3   OH243731   3.825   5.690  12.595 -0.2291  0.0991  0.4125
 7439TIP3    H143732   3.790   5.729  12.675  0.4066  0.1287  0.6820
 7439TIP3    H243733   3.749   5.653  12.551 -1.2526  3.2904 -0.8497
 7440TIP3   OH243734   5.225   6.452  15.357 -0.6125  0.3285  0.0222
 7440TIP3    H143735   5.273   6.530  15.331  1.3792 -0.6973  0.4330
 7440TIP3    H243736   5.133   6.479  15.358 -0.0212  2.4971 -0.3455
 7441TIP3   OH243737   1.403   4.258   0.571 -0.2730 -0.5362 -0.2602
 7441TIP3    H143738   1.423   4.220   0.656  0.1554 -0.6117 -0.3927
 7441TIP3    H243739   1.388   4.351   0.589  1.2230 -0.2703 -0.2934
 7442TIP3   OH243740   2.378   6.689  11.954  0.2210  0.3411  0.5278
 7442TIP3    H143741   2.348   6.776  11.927  3.4941  1.1877 -0.8544
 7442TIP3    H243742   2.422   6.705  12.037 -1.2332 -0.5269  1.5216
 7443TIP3   OH243743   2.059   1.472  13.128 -0.2679  0.4329 -0.1489
 7443TIP3    H143744   1.970   1.507  13.138 -0.7661 -1.0726  1.2030
 7443TIP3    H243745   2.050   1.403  13.063 -0.3947 -0.5592  0.8810
 7444TIP3   OH243746   0.409   4.064  15.073 -0.6809 -0.4702  0.3212
 7444TIP3    H143747   0.360   4.128  15.125 -0.3070 -0.8080  1.0972
 7444TIP3    H243748   0.465   4.118  15.017 -1.9672 -0.0755 -0.6442
 7445TIP3   OH243749   5.504   4.525  12.605 -0.3724 -0.2998  0.1561
 7445TIP3    H143750   5.523   4.613  12.637  1.5014 -0.0756 -1.3886
 7445TIP3    H243751   5.438   4.537  12.537 -1.7425 -0.3809  1.4271
 7446TIP3   OH243752   6.329   3.412  10.931 -0.3956  0.2027  0.3722
 7446TIP3    H143753   6.285   3.496  10.916  0.0143  0.2981 -0.3671
 7446TIP3    H243754   6.269   3.347  10.894 -0.3459  0.2516  0.2009
 7447TIP3   OH243755   3.432   2.742   0.415 -0.0249 -0.4004  0.7443
 7447TIP3    H143756   3.432   2.731   0.320 -2.3093 -0.7453  0.7162
 7447TIP3    H243757   3.524   2.751   0.439  0.6459 -1.0009 -1.4166
 7448TIP3   OH243758   1.304   5.724  11.177 -0.1809 -0.0517 -0.1914
 7448TIP3    H143759   1.380   5.782  11.175  0.6440 -1.1119 -0.4298
 7448TIP3    H243760   1.271   5.725  11.087 -0.9282  0.9834  0.0684
 7449TIP3   OH243761   1.374   4.350  11.640  0.3898  0.2052  0.4075
 7449TIP3    H143762   1.319   4.334  11.716  0.8778  0.4129  0.8082
 7449TIP3    H243763   1.399   4.442  11.647 -1.9078  1.1017 -1.5508
 7450TIP3   OH243764   5.480   1.370  13.444 -0.5688 -0.4304 -0.0006
 7450TIP3    H143765   5.462   1.330  13.529 -1.1241 -1.6221 -0.6596
 7450TIP3    H243766   5.468   1.464  13.459 -0.1765 -0.5720  1.3471
 7451TIP3   OH243767   0.630   1.400   1.073  0.3357  0.0563  0.0209
 7451TIP3    H143768   0.585   1.418   1.156 -0.5220  0.7293 -0.5736
 7451TIP3    H243769   0.719   1.374   1.099 -0.0333 -0.1256  1.1620
 7452TIP3   OH243770   1.529   5.501   4.606  0.5424  0.3476  0.1861
 7452TIP3    H143771   1.548   5.451   4.526  0.1307  0.3715  0.0712
 7452TIP3    H243772   1.567   5.588   4.589 -0.7789  0.8036 -0.5727
 7453TIP3   OH243773   6.457   0.030  15.381  0.1379 -0.7188 -0.0549
 7453TIP3    H143774   6.370  -0.009  15.390  0.7364 -2.4382 -1.2568
 7453TIP3    H243775   6.454   0.108  15.437 -2.8949  0.5438 -1.7474
 7454TIP3   OH243776   0.909   0.081   1.507  0.3627  0.3034 -0.0044
 7454TIP3    H143777   0.831   0.115   1.552 -0.0814 -0.0702 -0.4732
 7454TIP3    H243778   0.882  -0.006   1.476  0.8366  0.3363 -0.5204
 7455TIP3   OH243779   2.455   5.454   4.816 -0.2521  0.4498  0.9639
 7455TIP3    H143780   2.511   5.480   4.743 -0.2752 -0.8388  0.4484
 7455TIP3    H243781   2.516   5.417   4.881 -0.3388  0.5766  1.1167
 7456TIP3   OH243782   0.821   5.768  16.112  0.2498 -0.4870 -0.3498
 7456TIP3    H143783   0.854   5.753  16.024  1.2032 -2.8258  0.3300
 7456TIP3    H243784   0.726   5.775  16.102 -0.0053 -3.8337 -1.2894
 7457TIP3   OH243785   2.561   4.599   3.721 -0.0960 -0.3246  0.0462
 7457TIP3    H143786   2.628   4.664   3.740 -0.4234  0.3493 -0.9836
 7457TIP3    H243787   2.578   4.528   3.782  0.8969  0.2911  0.5138
 7458TIP3   OH243788   3.749   3.782   0.434 -0.5743 -0.4183  0.1648
 7458TIP3    H143789   3.661   3.783   0.397 -0.7770  1.2687  0.6111
 7458TIP3    H243790   3.771   3.689   0.441 -1.2155 -0.8801 -2.5135
 7459TIP3   OH243791   0.300   1.982  12.749  0.1054 -0.2767 -0.1378
 7459TIP3    H143792   0.314   2.030  12.667  0.1820  2.1765  1.2203
 7459TIP3    H243793   0.370   1.916  12.750  1.6445  1.2624 -0.9073
 7460TIP3   OH243794   2.624   5.965  16.046  0.0022 -0.3295  0.9200
 7460TIP3    H143795   2.631   5.885  15.993 -0.8773 -0.6330  1.2564
 7460TIP3    H243796   2.598   6.033  15.984  1.0336 -0.2166  0.5763
 7461TIP3   OH243797   2.494   3.705   1.701  0.7517 -0.4193 -0.6086
 7461TIP3    H143798   2.468   3.767   1.633  1.6873 -1.0393 -1.5692
 7461TIP3    H243799   2.446   3.733   1.779  2.1207  2.3374 -0.6303
 7462TIP3   OH243800   0.230   5.733  15.304 -0.3812  0.2832  0.3370
 7462TIP3    H143801   0.164   5.665  15.290  0.5530 -0.2366 -2.0266
 7462TIP3    H243802   0.311   5.686  15.322  0.1742  0.7301 -0.8711
 7463TIP3   OH243803   2.956   0.135  15.737  0.2079  0.1686  0.8760
 7463TIP3    H143804   2.897   0.193  15.785  0.3314 -0.0055  1.2408
 7463TIP3    H243805   2.998   0.082  15.805  0.9137  0.4137  0.6327
 7464TIP3   OH243806   0.670   0.228  11.340 -0.4216 -0.3379 -0.1778
 7464TIP3    H143807   0.733   0.203  11.273 -2.8989  0.7258 -3.0998
 7464TIP3    H243808   0.682   0.323  11.350  1.1853 -0.7077  2.4322
 7465TIP3   OH243809   4.374   0.699  13.698  0.3420 -0.0590 -0.2375
 7465TIP3    H143810   4.346   0.628  13.640 -1.0388 -0.0823  0.4383
 7465TIP3    H243811   4.354   0.669  13.786  0.6313  0.7838  0.1337
 7466TIP3   OH243812   0.976   1.444   0.569 -0.7399  0.1149  0.2874
 7466TIP3    H143813   0.913   1.468   0.502  0.0679  1.5424 -0.0094
 7466TIP3    H243814   0.946   1.359   0.601 -1.5187 -0.2852 -1.3952
 7467TIP3   OH243815   2.463   4.059  12.481 -0.4937 -0.3025 -0.1666
 7467TIP3    H143816   2.551   4.039  12.449 -0.2942  0.0534  0.1423
 7467TIP3    H243817   2.410   4.066  12.402 -0.1631 -0.1495 -0.3802
 7468TIP3   OH243818   2.252   5.303  17.172  0.5237  0.1342 -0.2063
 7468TIP3    H143819   2.226   5.394  17.157 -1.9613 -0.1898  1.5244
 7468TIP3    H243820   2.204   5.254  17.104  1.3184  0.0347 -0.7049
 7469TIP3   OH243821   5.569   5.754  13.317 -0.0890 -0.2909  0.2536
 7469TIP3    H143822   5.519   5.831  13.290  0.1236 -0.8364 -1.8734
 7469TIP3    H243823   5.504   5.683  13.319 -0.1034 -0.2527  1.2398
 7470TIP3   OH243824   1.072   3.376   0.886  0.2083 -0.0136  0.2914
 7470TIP3    H143825   1.098   3.379   0.978  1.1275  0.1507  0.0285
 7470TIP3    H243826   0.987   3.420   0.884  1.7424  3.2033  0.5445
 7471TIP3   OH243827   1.858   3.962   1.338  0.3608  0.0144 -0.3407
 7471TIP3    H143828   1.942   3.958   1.383  0.9660 -1.5556 -1.5166
 7471TIP3    H243829   1.816   4.041   1.373  1.4964 -0.1929  1.6677
 7472TIP3   OH243830   3.289   6.556  12.902 -0.0318 -0.0599  0.0195
 7472TIP3    H143831   3.322   6.526  12.817 -0.9778 -1.5783  0.1443
 7472TIP3    H243832   3.311   6.485  12.963 -2.1276 -0.4630  0.3908
 7473TIP3   OH243833   0.953   4.035   0.448  0.4589  0.0264  0.4094
 7473TIP3    H143834   0.926   4.071   0.533  1.1827  0.0894  0.6212
 7473TIP3    H243835   1.039   4.073   0.432  1.1044 -1.3423  0.4819
 7474TIP3   OH243836   6.539   3.932  14.771 -0.2231 -0.0270 -0.2298
 7474TIP3    H143837   6.604   3.883  14.821 -0.5131  1.1690  1.4138
 7474TIP3    H243838   6.458   3.881  14.780  0.5636 -2.0813 -3.1465
 7475TIP3   OH243839   4.809   2.998   5.190  0.3792 -0.1985 -0.5736
 7475TIP3    H143840   4.810   3.023   5.098 -0.1025 -1.5421 -0.9675
 7475TIP3    H243841   4.792   3.079   5.237  0.8078  0.5326 -1.6530
 7476TIP3   OH243842   4.892   4.621   0.171  0.0574 -0.7718  0.0256
 7476TIP3    H143843   4.949   4.581   0.237 -0.2800 -2.3562 -0.5891
 7476TIP3    H243844   4.952   4.651   0.102  0.4443  1.2275  1.1533
 7477TIP3   OH243845   2.074   0.643  12.596 -0.6154  0.0847 -0.4537
 7477TIP3    H143846   2.044   0.637  12.687 -0.1976  0.5079 -0.2791
 7477TIP3    H243847   2.041   0.563  12.554  0.1281 -0.6741  0.3538
 7478TIP3   OH243848   4.101   4.373  16.144  0.1894  0.6141  0.1187
 7478TIP3    H143849   4.157   4.409  16.212  1.2256  0.6776 -0.7363
 7478TIP3    H243850   4.156   4.308  16.100  0.0015  1.4614 -1.4606
 7479TIP3   OH243851   2.082   1.823  15.453  0.5129 -0.0921  0.0464
 7479TIP3    H143852   2.076   1.884  15.380 -0.0375 -0.1645  0.0306
 7479TIP3    H243853   2.009   1.846  15.510  0.7304 -0.2639  0.4037
 7480TIP3   OH243854   1.570   3.197  11.571 -0.0655  0.1757  0.9482
 7480TIP3    H143855   1.509   3.163  11.506  0.9656 -0.0227  0.0717
 7480TIP3    H243856   1.535   3.284  11.593  0.5858  1.0850 -1.2996
 7481TIP3   OH243857   3.294   4.841  13.279 -0.3636  0.5945  0.0711
 7481TIP3    H143858   3.333   4.756  13.297  1.3086  1.3875  0.3718
 7481TIP3    H243859   3.203   4.822  13.255  0.4888 -1.4400 -1.8446
 7482TIP3   OH243860   3.897   0.617  14.387 -0.3344 -0.7735 -0.2323
 7482TIP3    H143861   3.872   0.709  14.386  1.7057 -0.1607 -0.2107
 7482TIP3    H243862   3.985   0.617  14.425 -0.1883 -2.7012 -0.4864
 7483TIP3   OH243863   1.663   6.370  11.890  0.1757 -0.0814 -0.1463
 7483TIP3    H143864   1.732   6.344  11.951  0.0620 -0.1756 -0.0544
 7483TIP3    H243865   1.694   6.342  11.804  1.1041  1.5597 -0.3785
 7484TIP3   OH243866   4.069   2.655  14.685  0.5230  0.3579 -0.3636
 7484TIP3    H143867   4.032   2.712  14.618  0.6058  0.2050 -0.5429
 7484TIP3    H243868   4.021   2.573  14.675  0.9081  0.1561 -0.6021
 7485TIP3   OH243869   2.491   5.385   4.096  0.7831  0.2623 -0.1690
 7485TIP3    H143870   2.397   5.404   4.092  1.0064  1.7372  0.8119
 7485TIP3    H243871   2.495   5.290   4.110 -0.5754  0.2024 -0.0143
 7486TIP3   OH243872   4.027   3.735   5.392 -0.2339 -0.2877 -0.5297
 7486TIP3    H143873   4.067   3.821   5.381 -0.4629 -0.0159  0.6306
 7486TIP3    H243874   3.977   3.721   5.312 -0.7249  0.9506 -0.4580
 7487TIP3   OH243875   3.620   5.567   1.622 -0.2040  0.3969  0.1238
 7487TIP3    H143876   3.584   5.481   1.603 -0.9826  0.7140  0.1049
 7487TIP3    H243877   3.710   5.564   1.590 -0.8169  0.2141 -1.7085
 7488TIP3   OH243878   2.073   5.289  10.450 -0.0571 -0.0647 -0.4616
 7488TIP3    H143879   2.050   5.212  10.502  1.1263 -0.7639 -0.9339
 7488TIP3    H243880   2.077   5.257  10.360  0.5038  0.5261 -0.6580
 7489TIP3   OH243881   0.220   0.874  13.019  0.1625 -0.1867  0.2267
 7489TIP3    H143882   0.165   0.905  13.091 -1.1664 -0.4191 -0.6493
 7489TIP3    H243883   0.241   0.953  12.969 -3.0041 -0.4363 -1.8532
 7490TIP3   OH243884   2.571   3.261   5.800 -0.5183 -0.5926  0.9443
 7490TIP3    H143885   2.498   3.207   5.831  0.5178 -2.8328 -0.1992
 7490TIP3    H243886   2.644   3.239   5.858  0.0082 -0.7383  0.2542
 7491TIP3   OH243887   4.199   0.958  13.658 -0.0534  0.0133 -0.6746
 7491TIP3    H143888   4.138   0.902  13.610 -0.5679  0.2483 -0.2986
 7491TIP3    H243889   4.182   1.046  13.626  1.7755 -0.1670 -2.3679
 7492TIP3   OH243890   1.414   3.496  11.296  0.0624 -0.1361  0.1622
 7492TIP3    H143891   1.322   3.482  11.271  0.2619 -0.6617 -0.2970
 7492TIP3    H243892   1.445   3.409  11.323  0.1520  0.2288  1.2590
 7493TIP3   OH243893   4.359   3.643   1.514 -0.1866 -0.3660  0.0350
 7493TIP3    H143894   4.379   3.737   1.510  1.5870 -0.6282  1.4439
 7493TIP3    H243895   4.403   3.606   1.437  0.9603 -0.2995  0.6311
 7494TIP3   OH243896   5.067   3.499   5.097 -0.2605 -0.4655 -0.0049
 7494TIP3    H143897   5.102   3.587   5.106  0.1981 -0.7066  0.7152
 7494TIP3    H243898   4.984   3.501   5.145  1.2024 -1.1990  2.8035
 7495TIP3   OH243899   6.444   3.063  11.670  0.2823  0.2547 -0.1560
 7495TIP3    H143900   6.381   3.005  11.712 -0.3072  1.6835  1.0508
 7495TIP3    H243901   6.520   3.008  11.651 -0.9761 -1.3264 -0.8911
 7496TIP3   OH243902   5.240   0.106  15.800 -0.1258 -0.1623 -0.0694
 7496TIP3    H143903   5.146   0.089  15.809 -0.0723 -0.4942 -0.1162
 7496TIP3    H243904   5.265   0.061  15.720 -0.2923  1.5024 -1.0981
 7497TIP3   OH243905   4.357   4.804  16.315  0.7173 -0.2758  0.6807
 7497TIP3    H143906   4.402   4.888  16.324  0.1539  0.0116  0.8983
 7497TIP3    H243907   4.274   4.825  16.272 -0.1232 -0.4632  2.1124
 7498TIP3   OH243908   5.311   2.501   2.175  0.5112 -0.2702 -0.0697
 7498TIP3    H143909   5.346   2.456   2.098 -1.2430  1.6073 -2.1023
 7498TIP3    H243910   5.222   2.467   2.184  0.0195  0.9494 -0.1391
 7499TIP3   OH243911   6.072   4.887  13.497 -0.0658 -0.3005 -0.1112
 7499TIP3    H143912   6.049   4.906  13.407  1.0153  2.0141  0.0143
 7499TIP3    H243913   6.153   4.937  13.512 -0.9790  0.5744  2.5205
 7500TIP3   OH243914   5.637   1.160  13.766 -0.4863 -0.2857 -0.2657
 7500TIP3    H143915   5.568   1.217  13.732  0.5170  1.9054  1.1107
 7500TIP3    H243916   5.652   1.096  13.696 -2.3992  0.4963 -1.4678
 7501TIP3   OH243917   3.891   5.551   3.420  0.4402 -0.4770  0.3724
 7501TIP3    H143918   3.804   5.526   3.452  0.4845 -0.7605  0.2702
 7501TIP3    H243919   3.873   5.615   3.351  0.3634  0.5483  1.3218
 7502TIP3   OH243920   3.964   5.128  15.859  0.4475  0.1120  0.1430
 7502TIP3    H143921   3.880   5.086  15.878  1.2490 -0.4107  3.0160
 7502TIP3    H243922   4.029   5.067  15.895  1.9970  1.0976 -0.8921
 7503TIP3   OH243923   1.760   2.783  13.876  0.2785 -0.1242 -0.0785
 7503TIP3    H143924   1.719   2.756  13.794  0.9217  0.7977 -0.7255
 7503TIP3    H243925   1.829   2.718  13.892  0.9833  0.3889 -0.9536
 7504TIP3   OH243926   4.116   5.906  14.239  0.1537 -0.0605  0.2439
 7504TIP3    H143927   4.093   5.953  14.159  0.0946 -0.1359  0.2176
 7504TIP3    H243928   4.137   5.975  14.302  2.0020 -0.0079 -0.3637
 7505TIP3   OH243929   0.614   5.429   5.736  0.0377 -0.0655 -0.4204
 7505TIP3    H143930   0.652   5.370   5.670  0.4285 -0.0715 -0.1935
 7505TIP3    H243931   0.674   5.503   5.739 -0.1883  0.1167 -0.3470
 7506TIP3   OH243932   1.197   6.434   0.350 -0.4330  0.2658  0.3640
 7506TIP3    H143933   1.131   6.373   0.383  1.8456 -2.8415 -0.3252
 7506TIP3    H243934   1.269   6.427   0.414  1.1371 -0.2850 -1.3777
 7507TIP3   OH243935   5.190   4.386   5.150  0.0873  0.5444 -0.0158
 7507TIP3    H143936   5.273   4.340   5.137 -0.9341 -1.8099  1.3031
 7507TIP3    H243937   5.191   4.454   5.083  1.9401 -1.0607 -1.7726
 7508TIP3   OH243938   4.274   4.748  10.973  0.0884 -1.1496 -0.0211
 7508TIP3    H143939   4.232   4.689  11.035  1.2566 -2.5990 -0.5301
 7508TIP3    H243940   4.244   4.717  10.887 -0.5704  0.0628 -0.2408
 7509TIP3   OH243941   0.156   3.863  12.122 -0.2630  0.1896 -0.8737
 7509TIP3    H143942   0.239   3.908  12.107  0.1314 -0.7277 -1.5526
 7509TIP3    H243943   0.093   3.911  12.068  0.2518 -0.3513 -1.9848
 7510TIP3   OH243944   6.335   6.696  11.386 -0.3316  1.1635  0.2365
 7510TIP3    H143945   6.368   6.608  11.368 -0.2098  1.2307  0.1244
 7510TIP3    H243946   6.289   6.689  11.469 -0.2812  1.0041  0.2507
 7511TIP3   OH243947   2.085   6.474   0.107 -0.1253  0.4161 -0.2816
 7511TIP3    H143948   2.169   6.499   0.145  0.4142  1.5005 -2.0682
 7511TIP3    H243949   2.031   6.553   0.113 -0.7650 -0.0340  0.1254
 7512TIP3   OH243950   3.187   0.003  14.153 -0.5030 -0.0368  0.3354
 7512TIP3    H143951   3.160   0.032  14.066 -2.2638  0.8791  1.1453
 7512TIP3    H243952   3.138  -0.078  14.168  0.5895 -0.7635  0.0864
 7513TIP3   OH243953   5.425   4.170   6.791 -0.6672  0.1400  0.3715
 7513TIP3    H143954   5.447   4.259   6.761 -1.8076  0.3635  0.1533
 7513TIP3    H243955   5.485   4.154   6.863  1.2136  0.1422 -1.1146
 7514TIP3   OH243956   0.623   2.135  11.925  0.3490 -0.1298  0.2591
 7514TIP3    H143957   0.683   2.195  11.968  2.3217 -1.9886  0.2499
 7514TIP3    H243958   0.660   2.122  11.838 -0.0736 -1.2378  0.2213
 7515TIP3   OH243959   5.856   4.751   4.231 -0.3071 -0.1929  0.3367
 7515TIP3    H143960   5.874   4.810   4.304 -0.5331 -1.0598  1.1094
 7515TIP3    H243961   5.930   4.690   4.230 -1.2515 -1.4124  1.1283
 7516TIP3   OH243962   3.347   4.148  12.658  0.2796  0.1594  0.0452
 7516TIP3    H143963   3.355   4.117  12.748 -0.1472  2.2882  0.8527
 7516TIP3    H243964   3.355   4.243  12.663 -0.5218  0.4034 -2.0738
 7517TIP3   OH243965   3.325   0.417  11.350 -0.3404 -0.3137  0.0446
 7517TIP3    H143966   3.386   0.447  11.419 -0.8582  1.5639 -0.2544
 7517TIP3    H243967   3.240   0.412  11.394 -0.2587 -1.4590  0.0957
 7518TIP3   OH243968   3.883   3.089  11.319  0.1275 -0.3843  0.1132
 7518TIP3    H143969   3.965   3.139  11.316 -0.4650  0.6666  0.6666
 7518TIP3    H243970   3.910   2.998  11.304  1.3289 -0.0044 -0.2072
 7519TIP3   OH243971   4.006   1.790   2.134 -0.1916  0.2174  0.3452
 7519TIP3    H143972   4.011   1.731   2.209 -1.4748 -0.5936 -0.1765
 7519TIP3    H243973   3.987   1.733   2.060 -0.7664  1.1996 -0.2861
 7520TIP3   OH243974   3.685   2.246   0.065  0.0141 -0.3359  0.5900
 7520TIP3    H143975   3.720   2.235  -0.023 -0.5430 -0.5891  0.3971
 7520TIP3    H243976   3.595   2.275   0.052  0.1608  0.3821  1.0807
 7521TIP3   OH243977   4.003   4.179   2.236 -1.2210  0.0869 -0.3131
 7521TIP3    H143978   4.067   4.250   2.238 -2.3012  1.1115 -0.8484
 7521TIP3    H243979   4.002   4.144   2.325 -0.7932  0.8506 -0.0041
 7522TIP3   OH243980   4.998   2.561  14.041 -0.1087 -0.2780  0.0559
 7522TIP3    H143981   5.051   2.488  14.073  0.8544  0.0766 -0.6746
 7522TIP3    H243982   4.921   2.519  14.003  0.4669 -0.9271 -0.4288
 7523TIP3   OH243983   6.264   1.988   2.829  0.3163  0.0644  0.3183
 7523TIP3    H143984   6.324   1.966   2.758  0.9391  2.1463  0.1369
 7523TIP3    H243985   6.267   1.912   2.887  0.1703 -1.4756 -1.5902
 7524TIP3   OH243986   3.643   2.687  15.676 -1.1606 -0.2610 -0.1471
 7524TIP3    H143987   3.559   2.692  15.720 -0.1566 -0.2092  1.8659
 7524TIP3    H243988   3.670   2.778  15.665 -0.3599 -0.2889  1.3277
 7525TIP3   OH243989   5.765   2.736  12.117  0.1141 -0.8889  0.7718
 7525TIP3    H143990   5.732   2.786  12.192  0.8774 -1.5556  1.5710
 7525TIP3    H243991   5.830   2.677  12.154  2.4886  0.6034 -0.7991
 7526TIP3   OH243992   0.406   5.490   1.993  0.1410 -0.0110  0.3710
 7526TIP3    H143993   0.313   5.498   1.971  0.1542 -1.0011 -0.1414
 7526TIP3    H243994   0.442   5.438   1.921  1.1643  0.6634  0.3869
 7527TIP3   OH243995   3.222   3.076  13.873  0.1569  0.2556  0.3985
 7527TIP3    H143996   3.199   2.983  13.877 -0.2078  0.3240  0.0636
 7527TIP3    H243997   3.146   3.116  13.830  0.9522  0.4787 -0.8553
 7528TIP3   OH243998   3.411   0.665  11.637  1.0192  0.2010  0.2172
 7528TIP3    H143999   3.421   0.739  11.577 -1.9497  0.0383 -0.6030
 7528TIP3    H244000   3.473   0.600  11.605  1.4593  1.1676 -0.9750
 7529TIP3   OH244001   6.300   5.716   2.190  0.3608 -0.5801  0.0958
 7529TIP3    H144002   6.224   5.739   2.243  1.2043  0.0448  1.0721
 7529TIP3    H244003   6.339   5.641   2.234  1.2038  0.0881  0.5180
 7530TIP3   OH244004   3.448   2.216  14.208  0.1850 -0.2576  0.6864
 7530TIP3    H144005   3.388   2.167  14.263 -1.2417 -0.8838 -1.3138
 7530TIP3    H244006   3.432   2.308  14.230  0.3504 -0.5170  1.9563
 7531TIP3   OH244007   3.652   2.096  12.281 -0.4542  0.4886 -0.3434
 7531TIP3    H144008   3.639   2.001  12.287 -0.3658  0.4668 -0.4900
 7531TIP3    H244009   3.593   2.123  12.211  0.1825  0.4080 -0.9231
 7532TIP3   OH244010   5.159   2.576  15.980 -0.3069 -0.4455 -0.2606
 7532TIP3    H144011   5.218   2.509  15.948 -1.2082 -2.1968  1.5125
 7532TIP3    H244012   5.073   2.533  15.985 -1.3534  1.4309 -0.9060
 7533TIP3   OH244013   2.491   6.492  10.805 -0.0703  0.4730 -0.2324
 7533TIP3    H144014   2.545   6.451  10.737  1.3183  0.7941  0.6312
 7533TIP3    H244015   2.401   6.481  10.774  0.3827 -1.2931 -1.0672
 7534TIP3   OH244016   2.067   6.300  11.513  0.3265  0.2465  0.0626
 7534TIP3    H144017   2.145   6.345  11.479 -0.6017  1.0303 -1.1187
 7534TIP3    H244018   2.004   6.305  11.441 -1.1092  0.3420  1.2907
 7535TIP3   OH244019   3.757   2.259  16.717 -0.2151 -0.1109  0.5667
 7535TIP3    H144020   3.804   2.320  16.660  0.0400 -0.9892 -0.1882
 7535TIP3    H244021   3.664   2.275  16.699 -0.1459 -0.0143  0.3004
 7536TIP3   OH244022   3.022   2.037   2.071  0.1696  0.5063  0.7511
 7536TIP3    H144023   3.102   1.993   2.043  0.5007  1.3583  0.3419
 7536TIP3    H244024   3.046   2.129   2.078 -1.2104  1.0739 -1.1567
 7537TIP3   OH244025   2.788   5.481  14.232 -0.2848  0.3052 -0.6030
 7537TIP3    H144026   2.745   5.418  14.174 -1.7954 -0.9436  1.7077
 7537TIP3    H244027   2.875   5.445  14.246 -0.8689 -0.9002  0.0699
 7538TIP3   OH244028   4.759   0.593   3.789 -0.1011 -0.3475 -0.5379
 7538TIP3    H144029   4.775   0.687   3.784 -1.3535 -0.0908 -0.0989
 7538TIP3    H244030   4.831   0.554   3.739 -0.7705  0.9525 -2.6675
 7539TIP3   OH244031   4.284   2.709  16.268 -0.1659  0.8516  0.1323
 7539TIP3    H144032   4.320   2.686  16.182  0.1067  0.4616  0.3448
 7539TIP3    H244033   4.271   2.624  16.311 -3.5886  0.7689 -0.7872
 7540TIP3   OH244034   5.547   5.128  16.480  0.3713 -0.2013 -0.2333
 7540TIP3    H144035   5.540   5.113  16.385 -1.8057  1.0616 -0.3436
 7540TIP3    H244036   5.575   5.044  16.516 -0.6386 -1.2733 -1.8259
 7541TIP3   OH244037   0.116   4.605   1.017 -0.2884  0.4645  0.4749
 7541TIP3    H144038   0.207   4.626   0.996 -0.7487  1.9955 -0.1654
 7541TIP3    H244039   0.068   4.684   0.992 -2.2157 -1.3955 -2.1899
 7542TIP3   OH244040   0.109   0.224   4.096 -0.4241 -0.0923  0.2233
 7542TIP3    H144041   0.034   0.166   4.110 -1.5418  0.9414 -1.2311
 7542TIP3    H244042   0.071   0.311   4.087  0.9176  0.4095 -0.9322
 7543TIP3   OH244043   1.548   4.547   1.704  0.5435  0.1864 -0.2198
 7543TIP3    H144044   1.545   4.574   1.612  1.1110 -0.2564 -0.3685
 7543TIP3    H244045   1.461   4.569   1.738  0.7579  1.5694 -0.5088
 7544TIP3   OH244046   3.322   5.281  13.331  0.4299  0.2672  0.1202
 7544TIP3    H144047   3.403   5.312  13.372  0.3853  1.2600 -0.5075
 7544TIP3    H244048   3.301   5.200  13.377  1.5588  0.2131  0.5675
 7545TIP3   OH244049   1.030   2.704   4.936  0.3357  0.4145  0.2962
 7545TIP3    H144050   0.973   2.724   4.862 -0.2449 -0.3087  0.5387
 7545TIP3    H244051   0.997   2.760   5.007  0.7708  0.9642  0.0793
 7546TIP3   OH244052   4.106   3.020  16.616 -0.2006 -0.2013 -0.3404
 7546TIP3    H144053   4.178   3.070  16.654 -1.0594  0.3291  0.6445
 7546TIP3    H244054   4.137   2.929  16.615  0.7685  0.1266 -0.6648
 7547TIP3   OH244055   5.565   1.116   0.033 -0.3558  0.0282 -0.1716
 7547TIP3    H144056   5.606   1.188  -0.015  0.5331 -1.0036 -1.0035
 7547TIP3    H244057   5.603   1.121   0.121  1.6882 -0.9932 -0.9689
 7548TIP3   OH244058   4.031   4.377   4.216  0.2641  0.5058  0.1612
 7548TIP3    H144059   4.049   4.442   4.148  0.6085  0.3992  0.1453
 7548TIP3    H244060   4.028   4.428   4.298  0.7871  0.5140  0.1817
 7549TIP3   OH244061   5.068   0.753  16.238 -0.3363  0.2367  0.7263
 7549TIP3    H144062   4.987   0.716  16.272 -0.7000  0.2825 -0.0685
 7549TIP3    H244063   5.133   0.684  16.251 -0.6925 -0.1278  0.5917
 7550TIP3   OH244064   4.916   2.537  11.667  0.2115  0.0049 -0.3044
 7550TIP3    H144065   4.824   2.511  11.679 -0.6861  2.9684 -0.0732
 7550TIP3    H244066   4.922   2.562  11.575  0.3038  1.3984  0.0593
 7551TIP3   OH244067   0.028   6.103   0.364 -0.3438 -0.3280  0.4372
 7551TIP3    H144068   0.100   6.163   0.347  0.3011 -0.4548  2.4722
 7551TIP3    H244069  -0.029   6.150   0.425 -1.3657 -0.6962 -0.2025
 7552TIP3   OH244070   3.632   4.583  16.684 -0.1396  0.3160  0.0560
 7552TIP3    H144071   3.658   4.661  16.635  0.8988 -0.1208 -0.1205
 7552TIP3    H244072   3.647   4.607  16.775  1.5921 -0.1260 -0.0624
 7553TIP3   OH244073   6.428   6.198   5.043  0.5896 -0.0457  0.0840
 7553TIP3    H144074   6.403   6.106   5.042 -0.5136  0.2262  0.8867
 7553TIP3    H244075   6.452   6.217   4.952  1.0317 -1.1567 -0.0559
 7554TIP3   OH244076   2.844   6.345   3.261 -0.2990 -0.5495 -0.2118
 7554TIP3    H144077   2.804   6.268   3.222 -2.4168  0.0104  0.6898
 7554TIP3    H244078   2.775   6.382   3.317  0.5487  2.1077 -0.7665
 7555TIP3   OH244079   0.171   4.015   3.326 -0.4634  0.5907 -0.1704
 7555TIP3    H144080   0.214   4.096   3.356  0.4528  0.6014 -1.4259
 7555TIP3    H244081   0.096   4.045   3.276 -1.9035  0.5743  1.8341
 7556TIP3   OH244082   4.071   4.303  12.927  0.0161  0.4943 -0.1433
 7556TIP3    H144083   4.152   4.350  12.908  0.4110  0.4159  1.2410
 7556TIP3    H244084   4.099   4.227  12.978 -0.8010 -0.2506 -0.8003
 7557TIP3   OH244085   0.544   6.534  15.052  0.1897  0.0268  0.1654
 7557TIP3    H144086   0.624   6.582  15.037 -0.0390 -0.0221 -1.3202
 7557TIP3    H244087   0.479   6.576  14.997 -0.7926 -0.0191  1.2369
 7558TIP3   OH244088   2.397   6.408   4.672  0.3397  0.1764 -0.4150
 7558TIP3    H144089   2.484   6.375   4.694  0.2807 -0.7325 -1.4829
 7558TIP3    H244090   2.363   6.442   4.755  0.8846 -1.3625  0.4793
 7559TIP3   OH244091   3.871   5.205  14.777  0.1371  0.4370 -0.4181
 7559TIP3    H144092   3.934   5.246  14.717  1.4159 -0.3949  0.3023
 7559TIP3    H244093   3.788   5.206  14.729  0.6138  1.8328 -1.2887
 7560TIP3   OH244094   6.515   4.043  11.958  0.3311 -0.7882  0.2866
 7560TIP3    H144095   6.502   4.119  12.015  0.1003 -0.8418  0.3090
 7560TIP3    H244096   6.453   4.056  11.886  2.7349  0.8556 -1.6414
 7561TIP3   OH244097   3.707   5.651  10.347  0.5699 -0.1214  0.2260
 7561TIP3    H144098   3.776   5.592  10.377  0.3500  0.0727  1.1247
 7561TIP3    H244099   3.680   5.615  10.262  1.7322 -0.2242 -0.1118
 7562TIP3   OH244100   1.721   4.284   1.681  0.5220 -0.1957  0.1831
 7562TIP3    H144101   1.674   4.343   1.740  1.1228  0.6230 -0.1258
 7562TIP3    H244102   1.707   4.197   1.717  0.9644  0.2975  1.5924
 7563TIP3   OH244103   0.041   5.109  16.337 -0.0746  0.9622  0.1544
 7563TIP3    H144104   0.065   5.144  16.251  0.8721 -0.6212 -0.2949
 7563TIP3    H244105  -0.054   5.110  16.338 -0.2829 -1.5556 -2.1692
 7564TIP3   OH244106   4.635   6.230  12.498  0.0693 -0.6379 -0.7786
 7564TIP3    H144107   4.561   6.269  12.543  0.2127 -1.8852  0.5813
 7564TIP3    H244108   4.610   6.139  12.484  1.2688 -1.0356 -0.4357
 7565TIP3   OH244109   6.690   0.628  11.837 -0.2540  0.6653  0.3348
 7565TIP3    H144110   6.677   0.544  11.880 -2.5031  1.3872  1.1862
 7565TIP3    H244111   6.700   0.606  11.744  0.7444 -0.6163  0.7214
 7566TIP3   OH244112   4.823   1.981  15.615 -0.1683 -0.4844 -0.4572
 7566TIP3    H144113   4.877   1.909  15.584 -1.1196 -0.9274 -1.1285
 7566TIP3    H244114   4.845   1.990  15.708  2.3784  0.5363 -1.0532
 7567TIP3   OH244115   4.799   1.236   0.501 -0.3837  0.6074 -0.1206
 7567TIP3    H144116   4.889   1.243   0.470 -0.1912 -0.0034  0.2855
 7567TIP3    H244117   4.753   1.190   0.431 -0.4120  1.0504 -0.3920
 7568TIP3   OH244118   4.625   6.458  11.497  0.0586  0.1549 -0.5984
 7568TIP3    H144119   4.632   6.466  11.402 -0.0876 -0.1608 -0.6359
 7568TIP3    H244120   4.549   6.402  11.512  1.1942 -1.3752 -0.3488
 7569TIP3   OH244121   5.967   0.386   4.331  0.5399 -0.1243  0.1872
 7569TIP3    H144122   5.946   0.381   4.424  0.9280  0.3319  0.2999
 7569TIP3    H244123   5.964   0.295   4.301 -0.7631 -0.1575  0.3750
 7570TIP3   OH244124   1.005   0.641   4.133 -0.1490 -0.2241 -0.2913
 7570TIP3    H144125   0.991   0.735   4.122  1.4008 -0.0208 -0.6786
 7570TIP3    H244126   0.920   0.602   4.111 -0.9398  1.0944  0.2946
 7571TIP3   OH244127   1.045   5.221   0.147  0.1468  0.2140  0.2582
 7571TIP3    H144128   1.079   5.239   0.235 -0.3899 -0.4642  0.6181
 7571TIP3    H244129   1.054   5.126   0.138 -0.2660  0.2180 -0.2203
 7572TIP3   OH244130   5.565   3.701  11.158 -0.3448  0.4760  0.0078
 7572TIP3    H144131   5.572   3.792  11.186  2.6711  0.2465  0.3457
 7572TIP3    H244132   5.628   3.693  11.086  0.0313 -1.4935  0.4957
 7573TIP3   OH244133   5.854   5.524  14.436 -0.3916 -0.1899  0.1299
 7573TIP3    H144134   5.762   5.507  14.455 -1.0365  0.7959 -1.7829
 7573TIP3    H244135   5.872   5.607  14.481 -0.7243  0.0856 -0.2341
 7574TIP3   OH244136   3.593   0.781   3.401  0.3553 -0.3559  0.6306
 7574TIP3    H144137   3.643   0.857   3.431 -2.0220  1.2208  0.8879
 7574TIP3    H244138   3.651   0.737   3.339  1.4051  2.3796 -0.4841
 7575TIP3   OH244139   1.471   1.473  14.172  0.3176  0.1193 -0.2480
 7575TIP3    H144140   1.440   1.404  14.230  0.1703 -2.0950 -2.7696
 7575TIP3    H244141   1.566   1.459  14.168  0.4843  1.0217  0.3502
 7576TIP3   OH244142   3.117   6.720   2.400 -0.0975  0.1202  0.1244
 7576TIP3    H144143   3.031   6.693   2.432 -0.5068  0.3072 -0.7842
 7576TIP3    H244144   3.100   6.801   2.351  0.7326  0.6478  0.6765
 7577TIP3   OH244145   4.906   6.206   1.773  0.4354  0.0155  0.0081
 7577TIP3    H144146   4.961   6.138   1.734  1.3683  0.2462  0.8665
 7577TIP3    H244147   4.904   6.183   1.866  0.2953  0.8452  0.2160
 7578TIP3   OH244148   2.407   0.320   1.784 -0.1632  0.1033 -0.2458
 7578TIP3    H144149   2.329   0.309   1.837  0.1883  1.4743  0.5987
 7578TIP3    H244150   2.426   0.233   1.750 -1.0848 -0.5683  0.9143
 7579TIP3   OH244151   0.992   4.864  12.858 -0.0712  0.4045  0.6988
 7579TIP3    H144152   0.948   4.845  12.774 -1.1185 -0.0790  1.3319
 7579TIP3    H244153   0.933   4.826  12.924  0.1817  1.7470  1.7198
 7580TIP3   OH244154   4.013   6.079  11.872  0.3953  0.1055 -0.0678
 7580TIP3    H144155   4.082   6.078  11.939  1.8065 -0.0357 -1.4526
 7580TIP3    H244156   4.014   6.169  11.839  1.9789 -0.5703 -2.0631
 7581TIP3   OH244157   2.837   2.407   3.848 -0.1477  0.0858 -0.4865
 7581TIP3    H144158   2.787   2.477   3.889 -0.5683 -0.9932  0.9245
 7581TIP3    H244159   2.858   2.347   3.920 -0.4344 -1.6193 -1.7632
 7582TIP3   OH244160   3.259   3.394   3.128 -0.0817 -0.4704  0.0601
 7582TIP3    H144161   3.355   3.396   3.130 -0.1057  0.5524  0.7727
 7582TIP3    H244162   3.238   3.358   3.041  0.9317 -1.9929  0.3967
 7583TIP3   OH244163   6.758   5.659  15.138  0.3756 -0.1126 -0.4638
 7583TIP3    H144164   6.679   5.608  15.121 -0.8486  1.6666 -0.3904
 7583TIP3    H244165   6.820   5.632  15.070 -1.4111  0.6872 -2.5094
 7584TIP3   OH244166   0.919   6.422  16.281  0.1112  0.1691  0.3764
 7584TIP3    H144167   0.828   6.394  16.282  0.1545  0.0226  0.3007
 7584TIP3    H244168   0.919   6.509  16.321  0.1225 -0.3543  1.5327
 7585TIP3   OH244169   2.258   2.500  11.106  0.2669 -0.1947  0.1113
 7585TIP3    H144170   2.291   2.535  11.024 -1.7800  0.7237 -0.3775
 7585TIP3    H244171   2.233   2.577  11.157 -1.6007 -0.8245  0.2134
 7586TIP3   OH244172   6.339   4.093  15.756  0.3603  0.4355 -0.6685
 7586TIP3    H144173   6.311   4.001  15.754  2.7701 -0.3756 -0.9129
 7586TIP3    H244174   6.277   4.139  15.700  0.9553 -1.6621 -3.2064
 7587TIP3   OH244175   3.783   1.495   6.499 -0.1199 -0.3238  0.0946
 7587TIP3    H144176   3.857   1.538   6.543 -0.1991 -0.3749  0.2764
 7587TIP3    H244177   3.798   1.401   6.513 -1.5806 -0.2858  2.3541
 7588TIP3   OH244178   6.409   2.197  16.873  0.0239 -0.0325  0.3051
 7588TIP3    H144179   6.384   2.271  16.818 -2.2148  0.1221  1.4325
 7588TIP3    H244180   6.326   2.164  16.908  1.2475 -0.9968  2.4592
 7589TIP3   OH244181   0.072   6.687  12.308 -0.0877 -0.3964  0.4949
 7589TIP3    H144182   0.092   6.594  12.318 -1.1439 -0.7559 -0.3976
 7589TIP3    H244183  -0.015   6.687  12.267  1.2210  0.8924 -2.6096
 7590TIP3   OH244184   0.109   5.092  12.512 -0.3172  0.4317 -0.4797
 7590TIP3    H144185   0.060   5.173  12.500 -1.8244 -0.1547  1.1797
 7590TIP3    H244186   0.098   5.071  12.605  0.3557 -1.4712 -0.7814
 7591TIP3   OH244187   5.700   0.175   2.716  1.0201 -0.3149  0.0720
 7591TIP3    H144188   5.679   0.268   2.729  2.9827  0.2148 -0.2597
 7591TIP3    H244189   5.620   0.129   2.740 -1.3675  1.6517 -3.2920
 7592TIP3   OH244190   0.385   2.950  11.755  0.1555 -0.1663  0.1086
 7592TIP3    H144191   0.396   2.904  11.672  2.6350  1.0103 -0.3017
 7592TIP3    H244192   0.363   3.040  11.729  1.6650  0.3905  0.6641
 7593TIP3   OH244193   0.156   4.924   4.970  0.1318 -0.0817 -0.2729
 7593TIP3    H144194   0.205   4.986   5.024  1.4570 -0.4016 -1.0428
 7593TIP3    H244195   0.122   4.977   4.898 -0.3167  0.0687  0.0461
 7594TIP3   OH244196   0.303   4.682  14.444 -0.2880  0.0836  0.0948
 7594TIP3    H144197   0.249   4.750  14.402  0.4500 -0.5465 -2.0120
 7594TIP3    H244198   0.249   4.603  14.439  0.3545 -0.3105 -1.0512
 7595TIP3   OH244199   1.744   5.555  10.843 -0.9833 -0.3317  0.2158
 7595TIP3    H144200   1.667   5.600  10.809 -0.4419  1.6145  1.4066
 7595TIP3    H244201   1.818   5.602  10.804 -0.3946 -0.9953  0.5157
 7596TIP3   OH244202   4.013   6.177   4.382  0.3227 -0.1911 -0.2619
 7596TIP3    H144203   4.077   6.113   4.352  0.5619 -0.0800  0.0123
 7596TIP3    H244204   3.946   6.178   4.313  0.2642 -0.8101 -0.2158
 7597TIP3   OH244205   4.571   0.395   5.372  0.4091  0.1543  0.2963
 7597TIP3    H144206   4.561   0.448   5.293 -1.3903  0.7328  0.8736
 7597TIP3    H244207   4.485   0.357   5.386  1.2048 -1.4864  0.9345
 7598TIP3   OH244208   0.185   0.639  12.189 -0.2603  0.2056  0.3983
 7598TIP3    H144209   0.144   0.643  12.103  1.1046 -0.4904 -0.3212
 7598TIP3    H244210   0.250   0.710  12.189  1.4273 -1.2534 -0.1139
 7599TIP3   OH244211   4.621   6.037  13.664  0.2499  0.2020  0.2755
 7599TIP3    H144212   4.699   5.995  13.699  0.7552 -0.5212 -1.6023
 7599TIP3    H244213   4.636   6.131  13.677  0.0254 -0.0222  2.6467
 7600TIP3   OH244214   6.612   6.722  15.975  0.6346 -0.2247  0.4329
 7600TIP3    H144215   6.641   6.632  15.989  1.0467 -0.1594  0.0075
 7600TIP3    H244216   6.519   6.714  15.951  0.4458 -0.4721  1.2130
 7601TIP3   OH244217   6.762   4.898   0.198  0.0193  0.2024 -0.0323
 7601TIP3    H144218   6.850   4.925   0.226  0.0389 -1.2423  1.3749
 7601TIP3    H244219   6.776   4.816   0.150 -0.4574  0.6035 -0.8948
 7602TIP3   OH244220   6.364   6.395  11.496 -0.4067  0.1049  0.0859
 7602TIP3    H144221   6.438   6.378  11.438 -0.6787  1.2511 -0.6277
 7602TIP3    H244222   6.288   6.362  11.449 -0.3546 -1.2566  0.9054
 7603TIP3   OH244223   1.434   4.546   3.222  0.3898 -0.3052  0.5310
 7603TIP3    H144224   1.344   4.556   3.253  0.7453 -1.5822  2.0773
 7603TIP3    H244225   1.470   4.635   3.224 -0.6670  0.1477  0.3333
 7604TIP3   OH244226   5.387   1.924   0.286 -0.2417 -0.3398 -0.1003
 7604TIP3    H144227   5.413   1.876   0.207 -1.5008 -1.8701  0.3453
 7604TIP3    H244228   5.354   1.856   0.344 -1.8480  1.0534  0.6930
 7605TIP3   OH244229   5.615   0.521  14.753  0.4854  0.4703 -0.1298
 7605TIP3    H144230   5.664   0.603  14.749  0.6635  0.3427 -0.5356
 7605TIP3    H244231   5.576   0.511  14.666 -1.7814  1.4997  0.6717
 7606TIP3   OH244232   0.240   3.258   5.234  0.2637 -0.2854  0.4500
 7606TIP3    H144233   0.293   3.277   5.312 -0.1014 -0.5003  0.7586
 7606TIP3    H244234   0.235   3.341   5.188  0.4142 -0.1344  0.7023
 7607TIP3   OH244235   2.614   0.624  14.172 -0.2440  0.0053  0.1532
 7607TIP3    H144236   2.613   0.684  14.097  1.3329  1.0641  0.9237
 7607TIP3    H244237   2.523   0.597  14.181 -0.6910  0.8455 -1.3595
 7608TIP3   OH244238   5.935   6.482  16.308 -0.5431 -0.3564 -0.2002
 7608TIP3    H144239   5.974   6.424  16.243  0.9797 -0.0358  0.3832
 7608TIP3    H244240   5.921   6.426  16.384  0.9458 -0.0155  0.3696
 7609TIP3   OH244241   4.831   0.624   1.587  0.0820  0.2639 -0.1768
 7609TIP3    H144242   4.864   0.559   1.648  2.2530  0.9438 -0.5447
 7609TIP3    H244243   4.789   0.690   1.643 -0.1189 -0.3107  0.3631
 7610TIP3   OH244244   4.465   3.209   1.341 -0.4905 -0.6987 -0.3840
 7610TIP3    H144245   4.515   3.162   1.408 -0.1586 -1.4900 -1.1716
 7610TIP3    H244246   4.472   3.154   1.263  1.1420  1.3313 -1.7705
 7611TIP3   OH244247   3.897   2.094   1.301  0.1097  0.4297 -0.0239
 7611TIP3    H144248   3.827   2.142   1.257  0.9166  1.3871 -0.2980
 7611TIP3    H244249   3.969   2.157   1.309  0.6075 -0.2373  1.1076
 7612TIP3   OH244250   4.867   4.615  16.739  0.3122 -0.6035 -0.1730
 7612TIP3    H144251   4.874   4.601  16.644  0.2906  1.0366 -0.4368
 7612TIP3    H244252   4.929   4.552  16.777  1.4244 -0.2665 -1.3563
 7613TIP3   OH244253   3.194   6.478   0.178  0.0949 -0.2390 -0.1559
 7613TIP3    H144254   3.106   6.491   0.211  0.3839  0.7103  0.2884
 7613TIP3    H244255   3.233   6.566   0.178  1.5429 -0.8253  1.1191
 7614TIP3   OH244256   1.496   1.132   1.919  0.2961  0.3362  0.6740
 7614TIP3    H144257   1.541   1.101   1.998  2.2596  0.4167 -0.3471
 7614TIP3    H244258   1.539   1.215   1.898 -0.0412  0.2177 -0.5852
 7615TIP3   OH244259   6.706   4.396  10.934  0.1633  0.1413 -0.1901
 7615TIP3    H144260   6.633   4.406  10.874  1.0330 -1.3862 -1.5828
 7615TIP3    H244261   6.757   4.476  10.925  0.3727 -0.1270 -1.6794
 7616TIP3   OH244262   0.796   5.525   1.672  0.5318  0.7515  0.5781
 7616TIP3    H144263   0.713   5.571   1.685  0.9177  1.1192  1.9995
 7616TIP3    H244264   0.853   5.589   1.628  0.7206  1.2839  1.5566
 7617TIP3   OH244265   5.332   2.518   4.771  0.5583  0.6494  0.1253
 7617TIP3    H144266   5.342   2.584   4.839  0.9203  0.0549  0.6533
 7617TIP3    H244267   5.347   2.435   4.815  0.7245  0.2512 -0.6651
 7618TIP3   OH244268   4.163   5.767  16.942  0.2122  0.1173  0.2325
 7618TIP3    H144269   4.196   5.715  17.015  0.3180  1.6969  1.3750
 7618TIP3    H244270   4.070   5.777  16.959 -0.2220 -1.3180 -1.0597
 7619TIP3   OH244271   4.080   0.315  11.915  0.0342 -0.5055 -0.4520
 7619TIP3    H144272   4.130   0.289  11.837  1.1749 -3.0590  1.0227
 7619TIP3    H244273   3.993   0.278  11.900 -0.3852  0.7710 -1.3676
 7620TIP3   OH244274   3.254   4.747  15.932 -0.8252  0.6295  0.0134
 7620TIP3    H144275   3.192   4.794  15.876 -1.9930 -0.7309  0.1082
 7620TIP3    H244276   3.340   4.766  15.893 -1.1691  3.0567  0.2403
 7621TIP3   OH244277   6.066   3.462  13.134 -0.2194 -0.0437  0.3609
 7621TIP3    H144278   6.131   3.420  13.191 -0.2643 -1.3852 -0.5386
 7621TIP3    H244279   6.058   3.403  13.059 -0.0388  1.7640 -1.1365
 7622TIP3   OH244280   3.286   6.025   3.190 -0.3906  0.1073  0.2743
 7622TIP3    H144281   3.319   6.114   3.180 -0.8572  0.3675  1.0282
 7622TIP3    H244282   3.277   6.013   3.284 -0.0166 -0.8568  0.2013
 7623TIP3   OH244283   4.454   2.154  14.984  0.5782 -0.0938 -0.2361
 7623TIP3    H144284   4.491   2.115  14.905 -0.4248 -2.2656  0.3064
 7623TIP3    H244285   4.528   2.158  15.046  0.9728  0.0443 -0.7086
 7624TIP3   OH244286   5.182   3.155   3.506 -0.0861  0.2470 -0.2772
 7624TIP3    H144287   5.097   3.189   3.536 -0.1696  0.0442 -0.2817
 7624TIP3    H244288   5.243   3.180   3.576 -0.2371 -0.0179 -0.0458
 7625TIP3   OH244289   3.502   1.973   5.796 -0.2896 -0.4126  0.2433
 7625TIP3    H144290   3.477   1.901   5.853  1.5627 -0.6323  0.8784
 7625TIP3    H244291   3.595   1.958   5.779 -0.2533  0.9463 -0.9363
 7626TIP3   OH244292   1.729   2.883  12.275 -0.1595 -0.3081  0.0941
 7626TIP3    H144293   1.758   2.969  12.246  1.9732 -0.3452  1.8029
 7626TIP3    H244294   1.647   2.867  12.228 -0.8392  2.7987  0.0429
 7627TIP3   OH244295   0.972   1.890  16.259  0.5247 -0.4661 -0.1009
 7627TIP3    H144296   0.877   1.880  16.261  0.2558  1.6456  2.1458
 7627TIP3    H244297   1.003   1.837  16.333  0.9519  0.0133  0.0653
 7628TIP3   OH244298   4.730   3.412   1.428 -0.5706  0.1418 -0.0825
 7628TIP3    H144299   4.699   3.383   1.513  0.4299 -1.0775 -0.1031
 7628TIP3    H244300   4.767   3.334   1.388 -1.6673  0.5112 -1.9599
 7629TIP3   OH244301   5.582   1.032  13.110 -0.3430 -0.6307 -0.3748
 7629TIP3    H144302   5.575   1.121  13.143  1.7147  0.3502 -2.3067
 7629TIP3    H244303   5.492   1.007  13.088 -1.0859  0.5419  1.1682
 7630TIP3   OH244304   2.868   5.652  14.608 -0.1468  0.1457  0.1536
 7630TIP3    H144305   2.795   5.610  14.563  0.9436 -0.8937 -0.7529
 7630TIP3    H244306   2.946   5.613  14.567  0.9073  1.0297  1.2455
 7631TIP3   OH244307   4.031   5.979   1.001 -0.0442  0.7096  0.1290
 7631TIP3    H144308   4.127   5.979   1.003  0.2313 -3.4963 -1.6010
 7631TIP3    H244309   4.010   5.993   0.909 -0.7626 -1.7552 -0.1659
 7632TIP3   OH244310   0.545   3.517   3.772 -0.0876  0.0762  0.7308
 7632TIP3    H144311   0.523   3.477   3.688  2.2252  0.3579 -0.0799
 7632TIP3    H244312   0.540   3.611   3.756  3.4055  0.2479 -0.1350
 7633TIP3   OH244313   2.084   1.610   6.279 -0.1162 -0.7452  0.1518
 7633TIP3    H144314   2.108   1.533   6.330  0.8847 -1.3746 -1.2043
 7633TIP3    H244315   2.013   1.581   6.223  0.0660 -0.6022 -0.1567
 7634TIP3   OH244316   5.161   2.209  15.060 -0.4313  0.2925  0.2191
 7634TIP3    H144317   5.219   2.147  15.103  0.2072  1.7416  1.5496
 7634TIP3    H244318   5.201   2.226  14.975 -1.3248 -2.0571 -0.7605
 7635TIP3   OH244319   1.627   3.866   5.750  0.4011 -0.6030  0.1145
 7635TIP3    H144320   1.588   3.869   5.837 -0.7504  1.8101 -0.4217
 7635TIP3    H244321   1.691   3.795   5.756  0.8633 -0.0846  3.1398
 7636TIP3   OH244322   0.776   1.221   3.062 -0.3192 -0.2293 -0.3120
 7636TIP3    H144323   0.714   1.240   2.991  0.4453 -0.8826 -1.1677
 7636TIP3    H244324   0.723   1.226   3.142 -1.3393 -0.1664 -0.9783
 7637TIP3   OH244325   6.178   1.213  14.291 -0.8665 -0.1268  0.8194
 7637TIP3    H144326   6.270   1.223  14.315 -0.8523  0.7042  0.4583
 7637TIP3    H244327   6.130   1.219  14.374 -0.6115 -0.4149  0.9900
 7638TIP3   OH244328   4.953   1.569   5.434  0.0323  0.4442  0.6451
 7638TIP3    H144329   4.877   1.613   5.472  0.0661  0.5402  0.6002
 7638TIP3    H244330   4.920   1.483   5.407 -1.0772  1.8341 -3.0482
 7639TIP3   OH244331   0.094   3.124   6.171 -0.5096 -0.3394  0.7622
 7639TIP3    H144332   0.008   3.120   6.212 -0.3331  1.5594  1.4376
 7639TIP3    H244333   0.144   3.185   6.226  0.1352  1.3818 -1.5542
 7640TIP3   OH244334   2.658   0.539   0.010  0.0812  0.2589 -0.0248
 7640TIP3    H144335   2.589   0.602  -0.010  0.2039  0.7441  1.0008
 7640TIP3    H244336   2.720   0.547  -0.063 -0.7770  0.0450 -0.7917
 7641TIP3   OH244337   6.097   4.175   0.076  0.1193 -0.2784  0.7798
 7641TIP3    H144338   6.096   4.112   0.148  1.2667  0.2102  1.2680
 7641TIP3    H244339   6.119   4.124  -0.002 -1.2679 -0.8353  0.7326
 7642TIP3   OH244340   2.667   2.956  12.365  1.0974 -0.2019  0.0154
 7642TIP3    H144341   2.677   2.873  12.411 -0.3766  0.3263  1.3851
 7642TIP3    H244342   2.577   2.983  12.383  0.0581 -0.3656 -4.0258
 7643TIP3   OH244343   1.516   4.028   2.403  0.3553 -0.7363  0.7044
 7643TIP3    H144344   1.580   4.069   2.462 -2.4050  4.4025  0.6593
 7643TIP3    H244345   1.476   3.959   2.456  1.2805  0.4488  3.1098
 7644TIP3   OH244346   1.366   1.147   3.854  0.5228 -0.1070  0.7322
 7644TIP3    H144347   1.350   1.060   3.817 -1.2968  0.0510  1.0667
 7644TIP3    H244348   1.361   1.133   3.949  0.5287  0.2993  0.7927
 7645TIP3   OH244349   1.460   2.545   3.327 -0.3397  0.0852  0.0784
 7645TIP3    H144350   1.481   2.632   3.293  1.8249  0.5378  2.2304
 7645TIP3    H244351   1.510   2.485   3.272 -1.4589  0.1899 -1.1070
 7646TIP3   OH244352   4.676   6.642  14.242 -0.1765 -0.3002  0.4359
 7646TIP3    H144353   4.706   6.573  14.302  2.5736 -0.9120 -1.4433
 7646TIP3    H244354   4.751   6.658  14.185 -2.2089  1.1572 -2.0281
 7647TIP3   OH244355   3.237   3.956   4.788 -0.2676 -0.4556  0.3758
 7647TIP3    H144356   3.167   3.976   4.851  1.7232 -0.0449  2.6078
 7647TIP3    H244357   3.245   4.036   4.736  1.0941  1.0808  2.7574
 7648TIP3   OH244358   5.629   2.297  12.609 -0.1531 -0.3459 -0.3115
 7648TIP3    H144359   5.560   2.249  12.562  1.7794 -2.5383 -1.1320
 7648TIP3    H244360   5.654   2.367  12.549 -2.3809  1.2698  0.5022
 7649TIP3   OH244361   4.594   0.007  11.359 -0.1398  0.1962 -0.0841
 7649TIP3    H144362   4.614   0.039  11.447 -0.4320  0.5268 -0.1347
 7649TIP3    H244363   4.679  -0.006  11.318  0.0092 -0.3883  0.4017
 7650TIP3   OH244364   5.210   1.303   1.469 -0.2548  0.0939  0.4142
 7650TIP3    H144365   5.280   1.347   1.421  0.0416 -0.0759  0.6883
 7650TIP3    H244366   5.238   1.305   1.560  0.2352 -1.5132  0.3231
 7651TIP3   OH244367   4.252   2.558  15.744 -0.2970 -0.5928 -0.2960
 7651TIP3    H144368   4.191   2.624  15.712  2.1270  1.5727 -0.8115
 7651TIP3    H244369   4.205   2.475  15.735 -3.2395  0.9536 -0.2780
 7652TIP3   OH244370   6.599   5.095  13.368 -0.5369  0.3909  0.2781
 7652TIP3    H144371   6.627   5.176  13.411 -0.8855  1.3817 -1.2690
 7652TIP3    H244372   6.608   5.114  13.274 -0.3949 -1.4564 -0.1176
 7653TIP3   OH244373   0.472   0.387   4.054 -0.4775  0.0991 -0.0044
 7653TIP3    H144374   0.459   0.334   4.133 -1.4589  0.6102  0.1983
 7653TIP3    H244375   0.512   0.468   4.086  2.5151 -1.0636 -0.5044
 7654TIP3   OH244376   5.237   3.536   5.473 -0.7297  0.0653  0.1751
 7654TIP3    H144377   5.255   3.599   5.403  0.1864 -0.3209  0.0461
 7654TIP3    H244378   5.313   3.543   5.531 -0.0892 -1.6544 -0.3941
 7655TIP3   OH244379   5.413   0.413  11.880 -0.8353 -0.3507  0.5208
 7655TIP3    H144380   5.460   0.460  11.949 -1.4037  1.1088 -0.0360
 7655TIP3    H244381   5.324   0.404  11.913 -1.0017 -0.0310  0.1745
 7656TIP3   OH244382   0.756   1.527  12.091 -0.9295  0.0016 -0.1739
 7656TIP3    H144383   0.749   1.622  12.087  0.3092  0.1007 -0.2810
 7656TIP3    H244384   0.763   1.499  11.999  1.0020  0.0160 -0.0530
 7657TIP3   OH244385   5.126   1.150   1.822  0.3155 -0.7962  0.5162
 7657TIP3    H144386   5.175   1.162   1.740 -0.4697 -0.0038  0.1505
 7657TIP3    H244387   5.192   1.159   1.891  0.4504  2.1682  0.1194
 7658TIP3   OH244388   0.003   5.964   4.749  0.1488  0.6272  0.1140
 7658TIP3    H144389  -0.082   5.966   4.705  0.0597  1.7357  0.2928
 7658TIP3    H244390   0.033   6.055   4.746  1.3163  0.2555  0.0901
 7659TIP3   OH244391   3.621   2.256   5.123 -0.2945 -1.0295 -0.2609
 7659TIP3    H144392   3.548   2.278   5.180  0.1755  0.8251 -0.3139
 7659TIP3    H244393   3.650   2.170   5.153 -1.7844 -1.2959  0.4763
 7660TIP3   OH244394   4.784   6.078   4.042  0.2881  0.3427 -0.6758
 7660TIP3    H144395   4.737   6.018   3.984 -0.3921  0.3381 -0.1237
 7660TIP3    H244396   4.876   6.062   4.021  0.0834 -0.1671 -1.2536
 7661TIP3   OH244397   2.002   5.524  12.501  0.6706 -0.1191 -0.1210
 7661TIP3    H144398   2.052   5.455  12.458 -0.8677 -0.7964 -0.8742
 7661TIP3    H244399   1.944   5.478  12.562 -1.5612  0.2865 -1.8066
 7662TIP3   OH244400   2.433   2.805   4.940 -0.2941 -0.0235 -0.3268
 7662TIP3    H144401   2.514   2.754   4.950 -0.7572 -0.4776  1.3625
 7662TIP3    H244402   2.424   2.852   5.023 -2.7867 -1.4983  0.3164
 7663TIP3   OH244403   3.617   2.120   0.586 -0.4421  0.1593 -0.3309
 7663TIP3    H144404   3.602   2.158   0.673 -0.5052  3.3836 -1.6059
 7663TIP3    H244405   3.707   2.088   0.589 -0.1263  1.0741  0.6822
 7664TIP3   OH244406   4.307   1.031  11.344 -0.3237  0.6256  0.0059
 7664TIP3    H144407   4.348   0.969  11.283 -1.3837 -0.1282  0.0410
 7664TIP3    H244408   4.368   1.036  11.417 -0.1313 -0.2432 -0.0792
 7665TIP3   OH244409   0.459   0.946  16.029  0.1200  0.0471  0.2737
 7665TIP3    H144410   0.436   1.025  15.980 -1.7660 -0.5748  0.0423
 7665TIP3    H244411   0.386   0.934  16.090  0.1010 -1.7634 -0.0435
 7666TIP3   OH244412   6.697   5.867  15.335 -0.0826  0.1996 -0.2139
 7666TIP3    H144413   6.756   5.849  15.408 -0.0100  0.6745 -0.1520
 7666TIP3    H244414   6.715   5.797  15.272  1.4171  0.9885 -0.7235
 7667TIP3   OH244415   2.241   0.499  10.866 -0.6026 -0.0127 -0.3137
 7667TIP3    H144416   2.162   0.480  10.917 -1.3913  0.0499 -1.4766
 7667TIP3    H244417   2.303   0.432  10.892 -1.5673 -1.0101 -0.4928
 7668TIP3   OH244418   0.373   1.931  10.790  0.3182  0.3512  0.2194
 7668TIP3    H144419   0.454   1.976  10.815  0.7747 -0.7544  0.7803
 7668TIP3    H244420   0.403   1.852  10.745 -0.4447 -0.3079  0.8535
 7669TIP3   OH244421   1.136   5.422   3.686  0.2696  0.3994  0.4997
 7669TIP3    H144422   1.145   5.398   3.594 -1.2402  0.0060  0.4365
 7669TIP3    H244423   1.204   5.371   3.731  0.9625  0.5312 -0.3692
 7670TIP3   OH244424   6.030   1.924  15.847  0.3377 -0.3728  0.2295
 7670TIP3    H144425   5.992   1.983  15.912 -1.0673  0.4797 -1.2763
 7670TIP3    H244426   5.964   1.856  15.835  0.7765 -0.7638  0.0070
 7671TIP3   OH244427   6.032   4.171   4.089  0.8228 -0.5263  0.3877
 7671TIP3    H144428   6.097   4.189   4.158 -0.3210  0.3001  1.2769
 7671TIP3    H244429   5.968   4.114   4.131  0.7567 -1.0237 -0.3739
 7672TIP3   OH244430   0.820   1.442  14.960 -0.2405  0.2230  0.2008
 7672TIP3    H144431   0.763   1.443  14.883 -0.6222  0.4592  0.4809
 7672TIP3    H244432   0.786   1.372  15.015 -1.4617  1.5689  1.2397
 7673TIP3   OH244433   0.085   3.434   5.960  0.2952  0.1612 -0.0072
 7673TIP3    H144434   0.131   3.395   5.886  3.4062  0.7174  1.4983
 7673TIP3    H244435   0.000   3.388   5.962  0.0444  0.1581 -3.8404
 7674TIP3   OH244436   3.062   0.434   1.155 -0.0352  0.1529  0.5334
 7674TIP3    H144437   3.002   0.505   1.133  0.5625  0.6018  0.3322
 7674TIP3    H244438   3.076   0.443   1.249 -0.2342  0.0831  0.5707
 7675TIP3   OH244439   3.988   0.690  16.287 -0.1699  0.1280 -0.0475
 7675TIP3    H144440   3.901   0.721  16.263 -0.1397  0.7650  0.6505
 7675TIP3    H244441   4.007   0.731  16.371  1.4170  1.2026 -0.8671
 7676TIP3   OH244442   4.894   0.303  16.392  0.3144  0.1741  0.4161
 7676TIP3    H144443   4.945   0.251  16.330  0.4232 -0.2661  0.8761
 7676TIP3    H244444   4.817   0.331  16.342  0.1921 -0.5321  0.2048
 7677TIP3   OH244445   2.459   3.408   3.988  0.0666 -0.3340 -0.0209
 7677TIP3    H144446   2.459   3.404   4.084 -0.6960  3.5875  0.3007
 7677TIP3    H244447   2.547   3.437   3.965  0.1152 -0.8558 -0.5343
 7678TIP3   OH244448   1.637   3.061   3.233  0.3317  0.0032 -0.6466
 7678TIP3    H144449   1.715   3.104   3.198 -0.4461  0.8011 -1.4796
 7678TIP3    H244450   1.630   3.093   3.323  0.3590  0.7995 -0.9209
 7679TIP3   OH244451   4.268   6.014   1.991  0.4618  0.0414  0.3615
 7679TIP3    H144452   4.297   6.071   1.920  0.9692 -0.0106  0.5210
 7679TIP3    H244453   4.172   6.018   1.988  0.4876  0.4308 -0.0064
 7680TIP3   OH244454   4.519   0.007   2.171 -0.0974  0.7320 -0.3085
 7680TIP3    H144455   4.540  -0.016   2.080  1.0450 -0.2950  0.1849
 7680TIP3    H244456   4.426   0.031   2.169  0.3957  2.8193 -2.1224
 7681TIP3   OH244457   6.076   6.649  13.948  0.8759 -0.5755 -0.3798
 7681TIP3    H144458   6.058   6.599  14.027 -0.2356  0.4470  0.0497
 7681TIP3    H244459   6.024   6.729  13.958  1.0156 -0.2541 -1.9637
 7682TIP3   OH244460   5.603   4.294   1.696  0.4058  0.6935  0.0786
 7682TIP3    H144461   5.597   4.212   1.746  0.1672  0.3476 -0.5111
 7682TIP3    H244462   5.521   4.339   1.716 -0.4415 -0.1814 -1.2598
 7683TIP3   OH244463   4.225   2.570  15.334 -0.5312  0.0637 -0.0242
 7683TIP3    H144464   4.256   2.509  15.268  1.1169  0.8801 -0.0640
 7683TIP3    H244465   4.129   2.564  15.329 -0.5863  1.2401 -3.6228
 7684TIP3   OH244466   3.240   5.488   0.177 -0.5181 -0.6184 -0.7822
 7684TIP3    H144467   3.174   5.554   0.196 -0.8085 -0.8690 -0.9122
 7684TIP3    H244468   3.210   5.410   0.224 -0.9027 -1.0549 -1.7438
 7685TIP3   OH244469   5.074   3.711  15.548 -0.3903  0.2836  0.5919
 7685TIP3    H144470   5.098   3.798  15.580  0.4191 -0.0652  0.9642
 7685TIP3    H244471   5.046   3.726  15.458  0.9230  0.7866  0.2300
 7686TIP3   OH244472   0.664   2.388   0.459  0.3354  0.3237  0.1757
 7686TIP3    H144473   0.603   2.322   0.496  1.7678 -0.2104  1.7278
 7686TIP3    H244474   0.669   2.456   0.527  2.8529 -0.5519  0.9831
 7687TIP3   OH244475   6.002   0.682  16.950  0.2388 -0.4381 -0.4070
 7687TIP3    H144476   5.980   0.614  16.887  0.2596  0.2275 -1.1422
 7687TIP3    H244477   5.918   0.719  16.976  0.2568 -0.3973 -0.4063
 7688TIP3   OH244478   4.636   2.030  16.288  0.1336  0.4287 -0.3540
 7688TIP3    H144479   4.630   2.049  16.195 -1.2525  1.1322 -0.1373
 7688TIP3    H244480   4.546   2.027  16.319  0.5708  0.5970  1.0390
 7689TIP3   OH244481   4.451   3.015   4.730 -0.7618  0.0320 -0.2099
 7689TIP3    H144482   4.442   3.021   4.825 -1.9079  1.4416 -0.3624
 7689TIP3    H244483   4.538   3.052   4.712 -0.1435 -1.1107  0.3317
 7690TIP3   OH244484   5.317   4.954   1.051  0.2181  0.0891 -0.2116
 7690TIP3    H144485   5.226   4.926   1.036  0.8020 -0.6870 -2.8796
 7690TIP3    H244486   5.318   5.047   1.025  0.3596 -0.1510 -1.0905
 7691TIP3   OH244487   6.301   3.644   5.554  0.6188 -0.2699 -0.2372
 7691TIP3    H144488   6.305   3.716   5.617  0.8907  1.0232 -1.6466
 7691TIP3    H244489   6.209   3.616   5.555  0.7126 -0.5923  1.0290
 7692TIP3   OH244490   5.825   1.553   1.905  0.1598  0.1503  0.1786
 7692TIP3    H144491   5.881   1.591   1.972  0.4503 -1.1082  0.6733
 7692TIP3    H244492   5.798   1.628   1.851  0.3727  1.0949  1.3514
 7693TIP3   OH244493   0.455   5.160   5.845 -0.2900 -0.2476 -0.6544
 7693TIP3    H144494   0.481   5.068   5.841 -0.6157 -0.3963  0.2923
 7693TIP3    H244495   0.372   5.164   5.799 -1.4456 -0.9036  1.2496
 7694TIP3   OH244496   3.172   4.939   3.486  0.6586  0.2095 -0.8057
 7694TIP3    H144497   3.116   4.952   3.563  1.1173 -1.3545 -0.1710
 7694TIP3    H244498   3.131   4.991   3.417  0.7504  2.4330  0.7204
 7695TIP3   OH244499   0.734   1.258  11.635  0.7078  0.2276  0.0211
 7695TIP3    H144500   0.718   1.285  11.544 -0.4722  0.9891  0.4258
 7695TIP3    H244501   0.816   1.208  11.631  1.2943  1.2183 -1.2805
 7696TIP3   OH244502   5.724   5.547   1.640 -0.0744  0.1744  0.6043
 7696TIP3    H144503   5.730   5.452   1.633  1.5724  0.1055  2.2134
 7696TIP3    H244504   5.721   5.578   1.549 -1.7949 -1.4166  0.0537
 7697TIP3   OH244505   2.394   6.759   1.031 -0.2288 -0.1740 -0.3693
 7697TIP3    H144506   2.308   6.723   1.051  0.1538 -0.6955  0.4161
 7697TIP3    H244507   2.430   6.698   0.966  0.1178 -0.7992  0.3945
 7698TIP3   OH244508   6.746   1.965   3.828 -0.3635 -0.1584  0.1222
 7698TIP3    H144509   6.704   1.887   3.863 -0.5661 -0.2193 -0.2412
 7698TIP3    H244510   6.813   1.988   3.892 -0.3209 -0.6133  0.2435
 7699TIP3   OH244511   2.640   4.589   2.676  0.1317 -0.4070  0.4517
 7699TIP3    H144512   2.719   4.611   2.627 -1.1399  0.3756 -1.3539
 7699TIP3    H244513   2.606   4.511   2.633 -0.5211 -0.2503  0.6696
 7700TIP3   OH244514   1.524   4.058   3.220 -0.0134  0.3826  0.3661
 7700TIP3    H144515   1.513   4.122   3.290 -1.5936 -0.4211  0.9094
 7700TIP3    H244516   1.599   4.089   3.170  0.3506  1.6747  1.6562
 7701TIP3   OH244517   2.351   3.592  12.128  0.7563  0.1445 -0.2987
 7701TIP3    H144518   2.286   3.591  12.198  1.2395 -0.2983  0.1420
 7701TIP3    H244519   2.356   3.501  12.099  0.1453  0.4105 -1.2980
 7702TIP3   OH244520   4.293   3.951   0.761 -1.0370 -0.2431 -0.2011
 7702TIP3    H144521   4.279   4.044   0.744 -0.8980 -0.4698 -1.6772
 7702TIP3    H244522   4.377   3.932   0.721 -0.5830 -0.8145  0.9635
 7703TIP3   OH244523   2.274   6.610   1.483 -0.5263  0.5769 -0.0585
 7703TIP3    H144524   2.308   6.601   1.394  1.2943 -1.4521  0.7352
 7703TIP3    H244525   2.209   6.541   1.492  0.5862 -0.4113  0.6846
 7704TIP3   OH244526   2.634   4.614  13.499  0.5221  0.4399  0.3913
 7704TIP3    H144527   2.581   4.586  13.574 -0.0138 -2.1332 -0.8340
 7704TIP3    H244528   2.724   4.604  13.528  0.3178 -0.0899  0.8754
 7705TIP3   OH244529   5.689   3.824   4.773 -0.0311  0.4799  0.3079
 7705TIP3    H144530   5.610   3.870   4.744  0.3432  1.5751  0.9493
 7705TIP3    H244531   5.729   3.883   4.837  0.6785 -0.5827  0.8924
 7706TIP3   OH244532   2.596   3.733   3.188  0.1515  0.2935  0.2978
 7706TIP3    H144533   2.664   3.668   3.206  0.5167  0.5850 -0.0054
 7706TIP3    H244534   2.604   3.797   3.259 -1.6900 -1.1385  1.8874
 7707TIP3   OH244535   4.817   2.277   5.322 -0.4139 -0.1515 -0.1411
 7707TIP3    H144536   4.796   2.365   5.291  0.7661  0.6007  1.1043
 7707TIP3    H244537   4.870   2.239   5.252 -1.6268 -0.2218 -1.0621
 7708TIP3   OH244538   2.765   2.045   0.128 -0.6333 -0.2876 -0.1117
 7708TIP3    H144539   2.841   2.059   0.071 -0.3604 -1.1146  0.0338
 7708TIP3    H244540   2.789   1.970   0.182 -2.8289 -2.9291 -2.4459
 7709TIP3   OH244541   5.211   6.457   3.013  0.2481  0.5360  0.7698
 7709TIP3    H144542   5.189   6.472   2.921  1.5837 -0.4470  0.2657
 7709TIP3    H244543   5.126   6.459   3.058 -0.7532 -1.4938 -0.8516
 7710TIP3   OH244544   1.303   5.508   5.337 -0.3280  0.0933  0.2358
 7710TIP3    H144545   1.387   5.530   5.379  0.0943 -1.0396  0.0340
 7710TIP3    H244546   1.282   5.585   5.285  0.5942  0.4065  0.2937
 7711TIP3   OH244547   1.154   6.020  10.948  0.6895 -1.3413  0.1861
 7711TIP3    H144548   1.148   6.053  10.858  0.7000 -0.1357  0.6139
 7711TIP3    H244549   1.104   6.082  11.000  2.7080 -0.6096  1.3704
 7712TIP3   OH244550   2.859   3.295  12.508  0.3904 -0.3214  0.0013
 7712TIP3    H144551   2.834   3.335  12.425  1.5951  0.2659 -0.1041
 7712TIP3    H244552   2.787   3.314  12.567  0.1937  0.5579 -0.5070
 7713TIP3   OH244553   2.634   1.054   3.924  0.1512 -0.2520 -0.2443
 7713TIP3    H144554   2.682   1.089   3.999  1.3532 -1.8135 -0.2170
 7713TIP3    H244555   2.658   1.110   3.851  1.3566 -0.4747 -0.0377
 7714TIP3   OH244556   4.247   0.435   4.538  0.7736  0.0319  0.3146
 7714TIP3    H144557   4.279   0.470   4.621 -0.1536  0.8345  0.3428
 7714TIP3    H244558   4.155   0.415   4.554  1.0819 -1.7694  0.0771
 7715TIP3   OH244559   4.480   1.471  13.822 -0.2978  0.1289  0.0949
 7715TIP3    H144560   4.497   1.564  13.839  1.0131  0.1338 -1.1038
 7715TIP3    H244561   4.434   1.441  13.900 -1.2152  1.8915  0.3006
 7716TIP3   OH244562   2.406   1.274  13.827 -0.3650  0.4768 -0.2395
 7716TIP3    H144563   2.408   1.182  13.852 -0.6943  0.5345  0.0015
 7716TIP3    H244564   2.416   1.323  13.909 -0.2491  0.6557 -0.3581
 7717TIP3   OH244565   1.042   1.774   3.933 -0.2170  0.1545 -0.4406
 7717TIP3    H144566   1.074   1.798   3.846  1.4814  0.3432  0.1817
 7717TIP3    H244567   1.104   1.708   3.964 -1.4387 -0.7244  0.2053
 7718TIP3   OH244568   6.012   3.344   3.254 -0.3582  0.3543  0.3070
 7718TIP3    H144569   5.921   3.356   3.229 -0.3509  1.0121  0.5538
 7718TIP3    H244570   6.012   3.266   3.309 -0.9859  1.0293  1.3063
 7719TIP3   OH244571   5.230   4.215   2.245 -0.2862  0.0974 -0.3214
 7719TIP3    H144572   5.257   4.125   2.266 -0.5400 -0.8661 -3.4957
 7719TIP3    H244573   5.310   4.259   2.218 -0.4611  0.1696 -0.7316
 7720TIP3   OH244574   4.194   2.433   0.794 -0.2062  0.0003 -0.0296
 7720TIP3    H144575   4.284   2.461   0.813 -0.8470  2.7976 -0.7509
 7720TIP3    H244576   4.143   2.462   0.870 -0.9331  1.1293 -0.9108
 7721TIP3   OH244577   5.864   0.578   0.096 -0.0274 -0.0793  0.0179
 7721TIP3    H144578   5.812   0.552   0.172  0.0478  1.2103  0.5456
 7721TIP3    H244579   5.947   0.531   0.107  0.4943  1.0946  1.4969
 7722TIP3   OH244580   3.538   0.804  13.189  0.0601 -0.0649  0.2528
 7722TIP3    H144581   3.587   0.728  13.159  1.1830 -0.2734  2.4228
 7722TIP3    H244582   3.448   0.789  13.158  0.9164 -0.5568 -2.2447
 7723TIP3   OH244583   1.043   1.917   2.737 -0.5057 -0.5385  0.2808
 7723TIP3    H144584   1.038   1.864   2.657 -0.4791 -1.6135  0.9608
 7723TIP3    H244585   1.026   2.006   2.708  1.3665 -0.6084 -1.2219
 7724TIP3   OH244586   2.492   3.443  16.152  0.0630 -0.1903 -0.1363
 7724TIP3    H144587   2.417   3.464  16.209 -1.6131 -1.0490 -1.9070
 7724TIP3    H244588   2.524   3.359  16.184  0.8498  0.5496  1.1339
 7725TIP3   OH244589   0.481   0.831  16.364  0.4876 -0.2132 -0.1896
 7725TIP3    H144590   0.469   0.920  16.398 -1.7775 -0.8421  0.9180
 7725TIP3    H244591   0.409   0.820  16.302 -0.7398 -1.9809  1.4188
 7726TIP3   OH244592   0.565   6.042   5.667  0.3575  0.0192 -0.0836
 7726TIP3    H144593   0.483   6.061   5.622  0.8945 -0.0228 -1.1153
 7726TIP3    H244594   0.539   6.005   5.751 -0.6795 -1.1555 -0.8915
 7727TIP3   OH244595   0.810   6.574   3.128 -0.3068  0.2246  0.2446
 7727TIP3    H144596   0.731   6.595   3.078 -0.8261 -0.9602  0.5471
 7727TIP3    H244597   0.781   6.513   3.195  1.0293 -0.9083 -0.1583
 7728TIP3   OH244598   4.532   4.242  10.634  0.1061 -0.3932 -0.3198
 7728TIP3    H144599   4.462   4.182  10.608 -0.6784 -0.7252  2.2390
 7728TIP3    H244600   4.590   4.246  10.558 -1.5552 -1.7937 -1.7528
 7729TIP3   OH244601   0.780   4.852  12.255 -0.0588  0.6445 -0.4613
 7729TIP3    H144602   0.729   4.801  12.317  0.8905  1.2263  0.8518
 7729TIP3    H244603   0.738   4.938  12.254 -0.6008  0.3815 -1.3250
 7730TIP3   OH244604   3.341   1.558  11.344 -0.9598  0.2460  0.2278
 7730TIP3    H144605   3.336   1.494  11.414  3.0550 -0.0682  0.4216
 7730TIP3    H244606   3.378   1.510  11.270  1.5039  2.0477  0.1697
 7731TIP3   OH244607   4.132   0.145   6.489  0.2538  0.3135 -0.0160
 7731TIP3    H144608   4.070   0.188   6.430 -0.8394 -0.3142  0.6493
 7731TIP3    H244609   4.141   0.056   6.454  0.6191  0.3359  0.0156
 7732TIP3   OH244610   1.139   6.581  10.700  0.5902  0.1550  0.1812
 7732TIP3    H144611   1.132   6.591  10.605  0.6240  1.0162  0.2580
 7732TIP3    H244612   1.065   6.630  10.735 -1.2905 -2.6856  0.5406
 7733TIP3   OH244613   2.954   1.626  13.920 -0.4371  0.1128 -0.1438
 7733TIP3    H144614   3.021   1.687  13.952  0.5027 -1.2485  0.5890
 7733TIP3    H244615   2.913   1.672  13.847  0.6739  1.3604 -0.0197
 7734TIP3   OH244616   1.992   6.524   4.347 -0.2119  0.2980  0.3984
 7734TIP3    H144617   1.973   6.583   4.419 -0.4171  1.1150 -0.3108
 7734TIP3    H244618   2.079   6.488   4.367 -1.1735 -1.1817  2.1404
 7735TIP3   OH244619   3.023   3.358  13.808  0.3185 -0.5950  0.1825
 7735TIP3    H144620   2.979   3.273  13.802  1.1841 -0.9623 -1.4947
 7735TIP3    H244621   3.080   3.361  13.732  0.4335  1.4370  0.2929
 7736TIP3   OH244622   3.370   4.088  11.334  0.0665 -0.6290 -0.5646
 7736TIP3    H144623   3.461   4.059  11.329  0.1143 -0.5614 -0.1467
 7736TIP3    H244624   3.338   4.053  11.418 -0.0100  0.1172 -0.2727
 7737TIP3   OH244625   4.928   3.812  11.918 -0.6245 -0.0675  0.3086
 7737TIP3    H144626   4.963   3.760  11.846  3.1077  1.3257  0.8757
 7737TIP3    H244627   4.908   3.748  11.987 -0.0654 -1.0632 -0.4383
 7738TIP3   OH244628   1.985   3.683  16.899 -0.4303 -0.1981 -0.5185
 7738TIP3    H144629   2.047   3.718  16.963  0.4685 -0.7195 -1.0707
 7738TIP3    H244630   2.036   3.620  16.849 -1.0152  0.4021 -1.9349
 7739TIP3   OH244631   0.551   1.354  16.420 -0.0249 -0.0481  0.2016
 7739TIP3    H144632   0.516   1.336  16.508 -1.0465 -2.1816 -0.5553
 7739TIP3    H244633   0.487   1.414  16.381  0.3232  0.7420  0.8180
 7740TIP3   OH244634   2.193   0.241  11.458  0.0857 -0.1925  0.3784
 7740TIP3    H144635   2.201   0.208  11.369 -2.2899 -0.5956  0.2555
 7740TIP3    H244636   2.194   0.163  11.513 -1.1886 -0.1963  0.4374
 7741TIP3   OH244637   2.757   2.348   3.079  0.7792 -0.1210 -0.0734
 7741TIP3    H144638   2.706   2.408   3.133  0.3599 -0.4976 -0.0415
 7741TIP3    H244639   2.848   2.366   3.102  0.5867 -2.1680  2.8968
 7742TIP3   OH244640   1.897   0.496   3.026  0.4761 -0.2920 -0.6878
 7742TIP3    H144641   1.947   0.465   3.101 -0.3559 -0.8973 -0.3609
 7742TIP3    H244642   1.880   0.418   2.974  1.2860  0.1665 -1.6706
 7743TIP3   OH244643   3.526   4.529  12.082  0.0767  0.6097 -0.2399
 7743TIP3    H144644   3.440   4.570  12.085 -0.0825  0.2169  0.9792
 7743TIP3    H244645   3.587   4.602  12.071 -0.4133  0.8626 -1.4191
 7744TIP3   OH244646   3.732   0.026  12.287  0.2672 -0.3275 -0.1335
 7744TIP3    H144647   3.744  -0.065  12.258 -1.3999  0.2562 -3.0372
 7744TIP3    H244648   3.809   0.071  12.255  0.0731 -0.3521 -0.6581
 7745TIP3   OH244649   0.559   3.730  15.151  0.9738 -0.4265 -0.1014
 7745TIP3    H144650   0.536   3.703  15.239  0.6255  0.1569 -0.0093
 7745TIP3    H244651   0.595   3.818  15.161 -0.3622  0.2112 -0.6826
 7746TIP3   OH244652   1.467   0.024   5.974 -0.1498 -0.1938  0.0577
 7746TIP3    H144653   1.542   0.067   5.933  0.3083 -2.1906 -1.3402
 7746TIP3    H244654   1.503  -0.015   6.054  0.0905 -0.3336 -0.1157
 7747TIP3   OH244655   6.009   3.063  14.683 -0.1083 -0.5924  0.1864
 7747TIP3    H144656   5.986   3.101  14.768 -0.2812 -0.1175 -0.0699
 7747TIP3    H244657   6.013   3.138  14.624  0.0735 -0.9160 -0.2137
 7748TIP3   OH244658   4.804   3.037   0.136  0.1599  0.1000  0.2828
 7748TIP3    H144659   4.844   2.953   0.157  2.4724  0.8870 -0.6580
 7748TIP3    H244660   4.768   3.068   0.219 -0.8037 -1.8108  0.6284
 7749TIP3   OH244661   0.035   1.644  14.985  0.5442 -0.4624  0.1115
 7749TIP3    H144662   0.115   1.687  14.953 -0.7474  0.8950 -1.5648
 7749TIP3    H244663  -0.036   1.701  14.954 -1.0417 -0.7026  2.9721
 7750TIP3   OH244664   2.090   1.378  13.974 -0.2612 -0.5704 -0.4477
 7750TIP3    H144665   2.065   1.286  13.979 -2.3955 -0.1286 -1.8775
 7750TIP3    H244666   2.117   1.391  13.883  0.7501  0.0769 -0.0775
 7751TIP3   OH244667   6.347   5.174  15.158 -0.2404  0.1891  0.2134
 7751TIP3    H144668   6.405   5.205  15.088 -0.7786  1.9864  0.5148
 7751TIP3    H244669   6.380   5.218  15.237 -1.5060  0.6016  0.5285
 7752TIP3   OH244670   1.247   2.522   0.904  0.4739  0.1085 -0.5449
 7752TIP3    H144671   1.277   2.432   0.887 -1.0771 -0.8386  1.3098
 7752TIP3    H244672   1.233   2.525   0.999 -1.6774  1.5752 -0.8277
 7753TIP3   OH244673   1.023   5.700   3.673  0.1880 -0.0060  0.2074
 7753TIP3    H144674   0.941   5.679   3.718  0.0972 -1.4319 -0.5843
 7753TIP3    H244675   1.075   5.620   3.679  2.0914  1.2541  1.8136
 7754TIP3   OH244676   6.355   5.506   2.827  0.5538  0.3038 -0.2756
 7754TIP3    H144677   6.319   5.472   2.909 -0.8038  1.6798 -0.2586
 7754TIP3    H244678   6.293   5.478   2.760  1.7199 -0.9198 -0.9001
 7755TIP3   OH244679   4.529   0.384  16.948 -0.2760 -0.1469 -0.0647
 7755TIP3    H144680   4.508   0.470  16.912 -1.7901  0.0599  1.1851
 7755TIP3    H244681   4.556   0.401  17.038  0.7448 -0.8837 -0.2073
 7756TIP3   OH244682   5.312   3.570   2.513 -0.5530 -0.5259  0.5338
 7756TIP3    H144683   5.231   3.620   2.525  0.0032 -0.0063  2.2871
 7756TIP3    H244684   5.308   3.501   2.580 -0.5428 -1.8828 -0.7936
 7757TIP3   OH244685   5.834   3.583  10.533 -0.1516  0.7378  0.1966
 7757TIP3    H144686   5.856   3.676  10.536 -0.4511  0.8076  0.3565
 7757TIP3    H244687   5.849   3.557  10.443  1.1064  0.6456  0.4189
 7758TIP3   OH244688   4.232   6.276  13.046 -0.1221  0.0839  0.1139
 7758TIP3    H144689   4.295   6.348  13.046  0.8797 -0.6614  2.7619
 7758TIP3    H244690   4.285   6.197  13.057 -1.3992 -0.7667  0.4163
 7759TIP3   OH244691   2.387   0.021  13.263  1.0880  0.3438  1.1256
 7759TIP3    H144692   2.370  -0.048  13.327  2.6623 -0.9385  0.2400
 7759TIP3    H244693   2.310   0.022  13.206  1.4898 -1.4724  0.4963
 7760TIP3   OH244694   5.920   5.023  15.648  0.7017 -0.1680  0.2143
 7760TIP3    H144695   5.826   5.040  15.655  0.5820 -0.5762 -0.3203
 7760TIP3    H244696   5.947   5.005  15.738  0.1489 -0.6357  0.2947
 7761TIP3   OH244697   4.053   0.317  15.866 -0.2814 -0.2386  0.4478
 7761TIP3    H144698   4.111   0.370  15.921 -0.1896  0.1203  0.0103
 7761TIP3    H244699   4.054   0.362  15.781 -2.4486  0.7034  0.8599
 7762TIP3   OH244700   3.678   6.353  16.445 -0.0279 -0.3418  0.8573
 7762TIP3    H144701   3.726   6.423  16.399 -0.1274 -0.3373  0.7598
 7762TIP3    H244702   3.589   6.386  16.453  0.0247 -0.2806  1.1903
 7763TIP3   OH244703   1.972   1.647   2.931 -0.0143  0.0864 -0.7715
 7763TIP3    H144704   1.937   1.641   3.020  1.1740  0.1786 -0.2769
 7763TIP3    H244705   1.902   1.614   2.875  0.0835 -2.3903  0.4002
 7764TIP3   OH244706   2.402   5.810  16.506  0.0477 -0.4493  0.3776
 7764TIP3    H144707   2.350   5.796  16.427 -1.6535  0.1974  1.3240
 7764TIP3    H244708   2.470   5.871  16.480 -2.8531  3.0787  0.2004
 7765TIP3   OH244709   6.174   0.134  12.532 -0.6395 -0.1108 -0.1063
 7765TIP3    H144710   6.245   0.107  12.590 -0.9554  0.0967  0.3808
 7765TIP3    H244711   6.135   0.209  12.575  0.8296  1.8022 -1.9141
 7766TIP3   OH244712   4.610   1.313   4.259  0.3337 -0.3374 -0.4574
 7766TIP3    H144713   4.649   1.372   4.194  1.4942 -0.3496  0.1901
 7766TIP3    H244714   4.603   1.229   4.214 -1.4764  0.2897 -1.4406
 7767TIP3   OH244715   1.584   1.609   5.647  0.0436  0.0676 -0.1011
 7767TIP3    H144716   1.595   1.528   5.697 -2.0143  0.0440  0.3672
 7767TIP3    H244717   1.491   1.629   5.652  0.5553  2.7906  0.2672
 7768TIP3   OH244718   4.445   6.595   6.024  0.1744  0.6628  0.1066
 7768TIP3    H144719   4.365   6.622   5.978 -0.0667  0.1141  0.1972
 7768TIP3    H244720   4.515   6.647   5.983 -0.2625  1.3595  0.2226
 7769TIP3   OH244721   1.846   6.411   4.119  0.0890  0.5073 -0.1929
 7769TIP3    H144722   1.762   6.457   4.125 -0.7799 -1.1011  0.7758
 7769TIP3    H244723   1.894   6.440   4.197 -1.1808 -1.4724  1.4388
 7770TIP3   OH244724   5.712   0.098  16.210 -0.0303 -0.1804 -0.4901
 7770TIP3    H144725   5.621   0.127  16.209 -0.4714 -1.4368  0.4282
 7770TIP3    H244726   5.732   0.077  16.119 -1.4097 -2.0284 -0.4147
 7771TIP3   OH244727   2.978   0.632  12.232  0.1515 -0.0778  0.3803
 7771TIP3    H144728   2.958   0.674  12.315 -0.7596 -2.2953  1.3374
 7771TIP3    H244729   2.904   0.654  12.175 -0.6886 -0.9815  1.1085
 7772TIP3   OH244730   1.179   3.498  15.348 -0.1755  0.2615  0.1800
 7772TIP3    H144731   1.190   3.569  15.411 -0.9344  1.1038 -0.5925
 7772TIP3    H244732   1.087   3.505  15.320  0.6121  1.1612 -2.4329
 7773TIP3   OH244733   6.341   2.494   5.504 -0.1851  0.3409 -0.1318
 7773TIP3    H144734   6.392   2.490   5.585  1.1799 -0.5540 -0.9852
 7773TIP3    H244735   6.339   2.587   5.481 -1.4613  0.7476  1.4084
 7774TIP3   OH244736   0.939   5.670  16.757 -0.0376 -0.2064 -0.1200
 7774TIP3    H144737   0.933   5.574  16.754  1.3705 -0.3763  1.1761
 7774TIP3    H244738   0.850   5.700  16.740 -0.4807 -1.7359 -0.6815
 7775TIP3   OH244739   0.125   2.360   4.324 -0.1230 -0.0624 -0.0289
 7775TIP3    H144740   0.192   2.396   4.266  0.0217 -0.0643  0.1364
 7775TIP3    H244741   0.148   2.393   4.410 -1.1878  1.1502 -0.1845
 7776TIP3   OH244742   5.577   3.541  14.692  0.5425  0.0493  0.3204
 7776TIP3    H144743   5.665   3.544  14.656  0.7347 -1.4486  0.5981
 7776TIP3    H244744   5.569   3.453  14.730 -0.7898  0.4319  1.0094
 7777TIP3   OH244745   5.193   2.128  10.800 -0.3702  0.2099  0.0153
 7777TIP3    H144746   5.099   2.148  10.799 -0.3433  0.3753  0.7111
 7777TIP3    H244747   5.200   2.049  10.747 -0.8292  0.5068 -0.5039
 7778TIP3   OH244748   2.392   4.970   0.183  0.3097  0.9146 -0.3255
 7778TIP3    H144749   2.460   4.990   0.119  0.9560 -0.2659 -0.0311
 7778TIP3    H244750   2.436   4.919   0.251 -0.7595  0.5429  0.1204
 7779TIP3   OH244751   3.322   6.567   0.892 -0.4136 -0.2280 -0.6571
 7779TIP3    H144752   3.359   6.655   0.883 -1.4528  0.1296 -1.6858
 7779TIP3    H244753   3.397   6.508   0.878  1.0043  0.3988  3.1134
 7780TIP3   OH244754   2.586   1.177   5.944  0.5222 -0.1098 -0.0734
 7780TIP3    H144755   2.647   1.162   5.872  1.3570  0.4024  0.5057
 7780TIP3    H244756   2.547   1.091   5.961  0.4885 -0.2773 -0.9791
 7781TIP3   OH244757   5.242   4.887   5.562 -0.0523  0.4900 -0.0287
 7781TIP3    H144758   5.188   4.809   5.577 -1.4056  1.3305 -0.3613
 7781TIP3    H244759   5.322   4.854   5.521 -0.4258 -0.7577  0.2196
 7782TIP3   OH244760   3.531   2.613  17.106  0.1229  0.0095 -0.3894
 7782TIP3    H144761   3.536   2.684  17.171  0.1769  0.6855 -1.1239
 7782TIP3    H244762   3.498   2.655  17.027 -1.0505 -1.0362 -0.4927
 7783TIP3   OH244763   0.871   0.337  10.915 -0.0056 -0.0341  0.0867
 7783TIP3    H144764   0.941   0.394  10.948 -0.9558  1.1117  0.1736
 7783TIP3    H244765   0.908   0.297  10.836  0.7199  0.6022  0.0906
 7784TIP3   OH244766   4.105   6.401   0.361  0.4583  0.0275  0.0742
 7784TIP3    H144767   4.084   6.450   0.441 -1.3205 -1.0083  0.3069
 7784TIP3    H244768   4.022   6.392   0.316  1.3514  0.1298 -1.6639
 7785TIP3   OH244769   2.883   6.377  13.282 -0.2971  0.5254  0.1904
 7785TIP3    H144770   2.942   6.324  13.227  1.5110 -0.0038  2.4835
 7785TIP3    H244771   2.924   6.463  13.285 -0.8873  0.8175 -0.0185
 7786TIP3   OH244772   5.067   2.905   0.436 -0.1239  0.1572  0.0974
 7786TIP3    H144773   5.032   2.895   0.524 -0.4673  1.2835  0.1033
 7786TIP3    H244774   5.161   2.918   0.448 -0.1544  0.1972  0.2896
 7787TIP3   OH244775   3.044   0.787  12.475 -0.1940 -0.0539 -0.4196
 7787TIP3    H144776   3.092   0.864  12.445 -1.6115  0.9035 -0.3257
 7787TIP3    H244777   3.108   0.715  12.471  0.3484  0.4638 -3.4401
 7788TIP3   OH244778   3.189   4.518   1.241  0.0388  0.2665  0.8355
 7788TIP3    H144779   3.147   4.433   1.235  2.5407 -1.0934  1.2087
 7788TIP3    H244780   3.130   4.577   1.194 -1.1322 -1.9185 -0.6323
 7789TIP3   OH244781   0.257   0.967   0.338 -0.0570 -0.0170  0.1783
 7789TIP3    H144782   0.216   0.910   0.403 -0.5570  0.2638  0.1142
 7789TIP3    H244783   0.238   0.926   0.254  0.9828 -0.6285  0.2238
 7790TIP3   OH244784   0.003   6.719  13.157  0.0718 -0.0217  0.9527
 7790TIP3    H144785  -0.051   6.789  13.195  0.2023 -0.0032  1.1072
 7790TIP3    H244786   0.070   6.765  13.107 -0.5614 -0.0616  0.0514
 7791TIP3   OH244787   1.687   5.043   4.881  0.7110  0.3557 -0.2842
 7791TIP3    H144788   1.741   5.070   4.955  0.2303  0.3765  0.0635
 7791TIP3    H244789   1.676   5.122   4.829  1.5616  0.2031 -0.7106
 7792TIP3   OH244790   1.666   4.442  13.929  0.6955 -0.3574 -0.1964
 7792TIP3    H144791   1.725   4.452  13.855  1.6060 -1.6781  0.3152
 7792TIP3    H244792   1.717   4.396  13.995 -0.1486  0.6410  1.2101
 7793TIP3   OH244793   4.983   4.544  12.126 -0.1903  0.0011  0.7146
 7793TIP3    H144794   4.910   4.533  12.187 -1.6129  1.5243 -0.6226
 7793TIP3    H244795   5.000   4.638  12.125  0.9746 -0.1929  0.0525
 7794TIP3   OH244796   1.323   1.406  12.906 -0.0126  0.3610  1.2440
 7794TIP3    H144797   1.378   1.335  12.938  0.4697 -0.1802 -0.6587
 7794TIP3    H244798   1.234   1.380  12.929  0.1635 -0.8413  0.6452
 7795TIP3   OH244799   1.316   4.182  13.737  0.4089  0.6001  0.8478
 7795TIP3    H144800   1.228   4.144  13.734  0.8413 -0.5009  1.4627
 7795TIP3    H244801   1.303   4.274  13.717 -0.6382  0.0838 -1.0615
 7796TIP3   OH244802   2.486   1.302  16.552  0.3974 -0.3472 -0.3422
 7796TIP3    H144803   2.560   1.285  16.611 -0.1602  0.3696  0.5798
 7796TIP3    H244804   2.510   1.256  16.472  1.1366 -1.4445  0.4598
 7797TIP3   OH244805   3.769   4.826   2.265 -0.0739  0.1522 -0.0501
 7797TIP3    H144806   3.689   4.782   2.295 -0.2682  0.8005  0.4002
 7797TIP3    H244807   3.807   4.862   2.345  1.3511 -1.2310 -0.0659
 7798TIP3   OH244808   4.476   6.006   4.310  0.7372 -0.0393  0.0285
 7798TIP3    H144809   4.484   6.036   4.220  0.7662 -0.8600 -0.2469
 7798TIP3    H244810   4.385   5.980   4.319  0.7162  0.1107  0.2630
 7799TIP3   OH244811   4.590   2.871   3.931  0.1019 -0.2493  0.0781
 7799TIP3    H144812   4.618   2.892   4.020 -0.0787 -1.7920  0.5219
 7799TIP3    H244813   4.664   2.824   3.893  0.0718  0.1588 -0.5104
 7800TIP3   OH244814   3.167   2.990   0.779 -0.2497 -0.0821 -0.3996
 7800TIP3    H144815   3.195   2.960   0.692  2.2545  0.5759  0.0968
 7800TIP3    H244816   3.162   2.910   0.832  0.7167 -0.2421 -0.5327
 7801TIP3   OH244817   3.916   6.327  11.550  0.1062  0.0913 -0.0557
 7801TIP3    H144818   3.948   6.324  11.641  1.6936  2.3987 -0.4423
 7801TIP3    H244819   3.848   6.394  11.552  0.7647  0.8042 -0.6828
 7802TIP3   OH244820   5.996   1.038  11.780 -0.2111 -0.2017 -0.0305
 7802TIP3    H144821   5.991   0.949  11.748  0.0105 -0.3146  0.2483
 7802TIP3    H244822   6.077   1.073  11.744  0.5653 -0.6600  1.2279
 7803TIP3   OH244823   5.109   1.514  16.549 -0.0919  0.0248 -0.7967
 7803TIP3    H144824   5.049   1.486  16.480  0.3275 -2.2429 -0.3290
 7803TIP3    H244825   5.083   1.463  16.625  0.1847  1.6409  0.4397
 7804TIP3   OH244826   2.374   1.512   3.437  0.4349  0.5567  0.3127
 7804TIP3    H144827   2.448   1.483   3.490 -0.3578  1.2511  1.8715
 7804TIP3    H244828   2.409   1.518   3.348  1.4171 -2.2087  0.4024
 7805TIP3   OH244829   5.467   4.433  16.927  1.2031  0.4137  0.2483
 7805TIP3    H144830   5.469   4.524  16.897  1.7042  0.0274 -0.9564
 7805TIP3    H244831   5.390   4.428  16.984 -0.2181  1.0544 -1.4999
 7806TIP3   OH244832   3.498   3.734  13.920  0.3383 -0.2651 -0.7725
 7806TIP3    H144833   3.458   3.649  13.906  0.2237 -0.6089  1.3924
 7806TIP3    H244834   3.505   3.772  13.832 -1.1118 -1.8043 -1.5992
 7807TIP3   OH244835   2.874   2.609  12.447 -0.9167  0.1701 -0.0069
 7807TIP3    H144836   2.887   2.559  12.528 -0.0507  1.5932  0.7867
 7807TIP3    H244837   2.946   2.582  12.390  0.9521  2.0770  1.2882
 7808TIP3   OH244838   0.643   2.710  12.896 -0.2804  0.3052 -0.3052
 7808TIP3    H144839   0.618   2.673  12.980  0.3415  0.9783  0.1831
 7808TIP3    H244840   0.624   2.804  12.904 -0.6985  0.2992 -1.0970
 7809TIP3   OH244841   1.008   2.379   1.687  0.0479  0.0225 -0.5942
 7809TIP3    H144842   1.041   2.373   1.777  0.2873  1.1171 -0.5979
 7809TIP3    H244843   0.939   2.445   1.691  2.1357  2.4258 -1.7535
 7810TIP3   OH244844   3.166   4.351  14.771  0.8370  1.0017  0.4143
 7810TIP3    H144845   3.123   4.272  14.739  2.0453  1.1182 -1.6593
 7810TIP3    H244846   3.116   4.376  14.849 -1.7071  0.1584 -0.8467
 7811TIP3   OH244847   4.792   2.109   4.637  0.7749 -0.4301 -0.6016
 7811TIP3    H144848   4.702   2.141   4.641  0.9425 -0.0850  1.6941
 7811TIP3    H244849   4.841   2.168   4.694  2.1413 -1.5638 -0.5538
 7812TIP3   OH244850   5.113   1.974   0.020  0.0956 -0.2110 -0.6708
 7812TIP3    H144851   5.192   1.949  -0.027  0.3379 -2.5047  0.8090
 7812TIP3    H244852   5.144   2.029   0.092  0.0939  0.4912 -1.1933
 7813TIP3   OH244853   5.710   0.782  14.701 -0.4568  0.0416 -0.5152
 7813TIP3    H144854   5.798   0.799  14.667 -0.1923 -0.3658 -0.0467
 7813TIP3    H244855   5.655   0.849  14.660 -0.1747 -0.5256 -1.8811
 7814TIP3   OH244856   5.735   3.038  13.123 -0.7230  0.2918  0.0706
 7814TIP3    H144857   5.650   3.076  13.146 -1.1624 -0.6800  0.1354
 7814TIP3    H244858   5.742   2.961  13.180 -0.3984 -0.3845 -0.8634
 7815TIP3   OH244859   3.988   4.379   1.257  0.3102  0.2837  0.3181
 7815TIP3    H144860   3.996   4.442   1.186  1.0729 -0.5969 -0.4008
 7815TIP3    H244861   3.908   4.406   1.304  1.5744  2.8825  1.1886
 7816TIP3   OH244862   0.180   2.169   3.704  0.0159  0.2599  0.1141
 7816TIP3    H144863   0.158   2.109   3.633 -0.0014  0.4144 -0.0135
 7816TIP3    H244864   0.095   2.200   3.735  0.0439  1.5799 -1.0025
 7817TIP3   OH244865   5.655   2.984   0.641  0.0802  0.0859 -0.6458
 7817TIP3    H144866   5.583   3.028   0.685  0.4546 -1.2494  1.4100
 7817TIP3    H244867   5.638   2.890   0.654  1.2005 -0.3031 -1.7650
 7818TIP3   OH244868   4.697   2.351   3.465  0.2027  0.3225  0.8594
 7818TIP3    H144869   4.737   2.350   3.551 -1.7359 -3.6652  1.9527
 7818TIP3    H244870   4.621   2.409   3.475  1.0083  1.3588  1.1958
 7819TIP3   OH244871   1.522   1.114   5.902  0.4553 -0.0003 -0.4148
 7819TIP3    H144872   1.534   1.035   5.850 -2.4060 -0.7483 -0.1419
 7819TIP3    H244873   1.525   1.084   5.993 -1.1362  0.0316 -0.3129
 7820TIP3   OH244874   4.709   5.704   3.428 -0.7084 -0.2278 -0.1477
 7820TIP3    H144875   4.766   5.698   3.505 -0.1671 -2.5508 -0.6368
 7820TIP3    H244876   4.719   5.794   3.397  0.0869  0.3805  1.7106
 7821TIP3   OH244877   0.588   2.509   3.166 -0.2266 -0.4090 -0.1683
 7821TIP3    H144878   0.547   2.423   3.172 -1.1458 -0.3050 -3.1599
 7821TIP3    H244879   0.557   2.557   3.242 -3.0014 -1.4476 -0.5563
 7822TIP3   OH244880   3.128   0.908  16.689  0.2482 -0.5767  0.6259
 7822TIP3    H144881   3.063   0.966  16.649  1.6775 -0.9391 -2.5591
 7822TIP3    H244882   3.094   0.820  16.674  0.6859 -0.7107  0.3898
 7823TIP3   OH244883   0.227   0.031   3.206  0.0379  0.5522 -0.2572
 7823TIP3    H144884   0.176  -0.013   3.138 -0.3721  0.9801 -0.2343
 7823TIP3    H244885   0.257   0.112   3.164 -0.2461  0.8333  0.0768
 7824TIP3   OH244886   1.126   0.254  11.461 -0.1262 -0.0703  0.5644
 7824TIP3    H144887   1.058   0.195  11.429 -0.4232 -0.0532  1.1558
 7824TIP3    H244888   1.136   0.231  11.554  1.3374 -0.7243  0.2754
 7825TIP3   OH244889   5.316   2.757  15.002  0.3635  0.4311 -0.1266
 7825TIP3    H144890   5.397   2.787  14.961 -0.1236  1.3894 -0.4351
 7825TIP3    H244891   5.322   2.788  15.092  0.9582 -0.7335  0.2421
 7826TIP3   OH244892   4.724   3.713  14.142  0.0185 -0.5060  0.3289
 7826TIP3    H144893   4.807   3.736  14.183 -0.1727 -1.5553  1.3371
 7826TIP3    H244894   4.730   3.618  14.127  0.5770 -0.0680 -3.2343
 7827TIP3   OH244895   3.513   1.696  15.418  0.3116  0.4032 -0.2330
 7827TIP3    H144896   3.573   1.747  15.363 -0.2303  1.7860  0.4046
 7827TIP3    H244897   3.569   1.630  15.459  1.3348  1.3427 -0.0502
 7828TIP3   OH244898   4.780   4.325  13.476 -0.2226  0.0582  0.5552
 7828TIP3    H144899   4.775   4.420  13.480  0.2253  0.0604  1.1975
 7828TIP3    H244900   4.717   4.300  13.408 -0.1350  0.8247  0.1858
 7829TIP3   OH244901   3.373   4.590  10.304 -0.5758 -0.3487  0.3350
 7829TIP3    H144902   3.296   4.587  10.361 -0.3753 -0.3060  0.6091
 7829TIP3    H244903   3.363   4.514  10.246 -0.7082 -0.4736  0.5215
 7830TIP3   OH244904   6.723   2.287   4.584 -0.6531  0.5327 -0.1916
 7830TIP3    H144905   6.716   2.370   4.537 -2.0426  1.3187  1.2881
 7830TIP3    H244906   6.666   2.228   4.536 -1.1466  0.9920 -0.1849
 7831TIP3   OH244907   5.059   0.481  14.977 -0.2511 -0.3517  0.6869
 7831TIP3    H144908   5.026   0.395  14.953  1.6143 -0.8095 -0.4389
 7831TIP3    H244909   5.153   0.477  14.960 -0.2209  2.1690 -0.2934
 7832TIP3   OH244910   4.463   1.511   1.750 -0.5405  0.4301 -0.0427
 7832TIP3    H144911   4.412   1.533   1.828  0.7891  0.9998  0.7086
 7832TIP3    H244912   4.527   1.447   1.781 -2.5397 -2.4945 -1.5877
 7833TIP3   OH244913   3.425   4.241   3.283  0.0732 -0.4922  0.3934
 7833TIP3    H144914   3.334   4.248   3.255 -0.3170 -1.0368  1.4356
 7833TIP3    H244915   3.421   4.246   3.379  0.9283 -2.3751  0.5780
 7834TIP3   OH244916   5.257   3.696   3.954 -0.0440 -0.1085 -0.5891
 7834TIP3    H144917   5.168   3.733   3.959  0.7000  2.1165 -2.3484
 7834TIP3    H244918   5.315   3.772   3.956  2.1448 -1.5511  3.4181
 7835TIP3   OH244919   3.076   0.750  14.477  0.2571 -0.3259  0.8538
 7835TIP3    H144920   3.131   0.672  14.472 -0.1514 -0.5774  0.1620
 7835TIP3    H244921   2.991   0.718  14.505  0.0215 -0.1637  0.3278
 7836TIP3   OH244922   5.927   1.645   4.507 -0.1369  0.3583  0.3048
 7836TIP3    H144923   5.872   1.568   4.520 -2.0531  1.3062 -1.5522
 7836TIP3    H244924   5.874   1.718   4.539  1.3543  1.0443  1.3761
 7837TIP3   OH244925   2.460   1.638  10.746  0.2664  0.6236 -0.6905
 7837TIP3    H144926   2.535   1.582  10.728  0.3071  0.9708 -1.7079
 7837TIP3    H244927   2.481   1.682  10.829  0.3133 -0.6946  0.0151
 7838TIP3   OH244928   2.066   4.025   3.763  0.6630 -0.0132 -0.7239
 7838TIP3    H144929   2.137   4.089   3.756  0.7726 -0.0242  0.1568
 7838TIP3    H244930   1.989   4.077   3.784  0.9877 -0.2473  1.2384
 7839TIP3   OH244931   0.307   6.546   0.149 -0.2641 -0.2288  0.6759
 7839TIP3    H144932   0.384   6.564   0.096  0.7191 -1.8430  1.4734
 7839TIP3    H244933   0.289   6.628   0.195  0.0144  0.6231 -0.6828
 7840TIP3   OH244934   2.252   1.642   5.584  0.5307 -0.4111  0.1341
 7840TIP3    H144935   2.268   1.573   5.520 -1.8868 -0.1288 -0.8842
 7840TIP3    H244936   2.223   1.597   5.663  0.8853 -0.6306  0.1409
 7841TIP3   OH244937   3.647   6.342  15.716  0.2007 -0.5368 -0.0955
 7841TIP3    H144938   3.676   6.346  15.625  2.0172  1.4030  0.4735
 7841TIP3    H244939   3.663   6.252  15.743  0.2564 -0.9651 -1.5090
 7842TIP3   OH244940   5.646   4.692  15.112  0.0248  0.5438  0.5218
 7842TIP3    H144941   5.698   4.728  15.184  0.5252  0.7441  0.0650
 7842TIP3    H244942   5.693   4.718  15.033 -0.2075 -0.1614  0.1405
 7843TIP3   OH244943   6.195   2.383   2.793 -0.4812 -0.0896  0.0285
 7843TIP3    H144944   6.185   2.363   2.700  0.4617  1.1981 -0.3803
 7843TIP3    H244945   6.110   2.416   2.820 -0.6703 -0.1560 -0.4697
 7844TIP3   OH244946   6.211   6.327   3.296  0.0094  0.1294  0.1161
 7844TIP3    H144947   6.131   6.373   3.271  1.1038  1.9197 -0.2528
 7844TIP3    H244948   6.238   6.282   3.216  0.3220  1.0036 -0.2854
 7845TIP3   OH244949   4.224   1.830   0.001 -0.3274 -0.1641 -0.5642
 7845TIP3    H144950   4.139   1.785   0.001  0.1569 -1.1213 -0.0571
 7845TIP3    H244951   4.208   1.911   0.049 -0.7781 -0.7055  0.2346
 7846TIP3   OH244952   2.041   1.007   2.486  0.0285 -0.1765  0.0664
 7846TIP3    H144953   2.033   1.100   2.508 -0.4595 -0.1452 -0.2075
 7846TIP3    H244954   2.016   0.961   2.566  1.9730 -0.0897  0.7557
 7847TIP3   OH244955   4.355   3.973   5.781 -0.5016  0.2053 -0.6953
 7847TIP3    H144956   4.325   3.883   5.779  2.7654 -1.0686  0.7376
 7847TIP3    H244957   4.322   4.008   5.864  3.9849 -2.1943  2.4928
 7848TIP3   OH244958   1.324   1.689  16.016  0.1926  0.5080 -0.4506
 7848TIP3    H144959   1.348   1.724  16.102 -2.8911 -0.3561  0.9174
 7848TIP3    H244960   1.405   1.652  15.981  1.7359  1.6570  1.6646
 7849TIP3   OH244961   3.923   2.781   1.851 -0.1232 -0.2028 -0.0449
 7849TIP3    H144962   3.987   2.780   1.922  0.3084  1.2916 -0.3630
 7849TIP3    H244963   3.867   2.857   1.871 -2.3651 -1.9318  0.6737
 7850TIP3   OH244964   0.607   0.053  15.267 -0.4678  0.1550  0.4410
 7850TIP3    H144965   0.535  -0.011  15.270  0.0587 -0.4764 -0.1309
 7850TIP3    H244966   0.604   0.088  15.178  1.6760 -1.9720 -0.5851
 7851TIP3   OH244967   0.391   6.756   5.560 -0.1829 -0.1873 -0.1499
 7851TIP3    H144968   0.398   6.851   5.575 -1.8298 -0.0612 -0.0540
 7851TIP3    H244969   0.373   6.720   5.646  2.0761 -0.8253  0.1258
 7852TIP3   OH244970   1.789   1.812   0.800 -0.5345  0.5721 -0.2701
 7852TIP3    H144971   1.798   1.853   0.886  0.7923  0.1753 -0.1943
 7852TIP3    H244972   1.766   1.884   0.741 -2.2680  0.7159  0.5322
 7853TIP3   OH244973   1.004   5.237   2.299 -0.5243  0.1194  0.0413
 7853TIP3    H144974   1.049   5.224   2.382 -1.9738  0.1302  0.8676
 7853TIP3    H244975   0.977   5.329   2.299 -0.2761  0.2019 -0.5874
 7854TIP3   OH244976   1.961   2.752   3.997  0.2020  0.1340 -0.2206
 7854TIP3    H144977   2.045   2.790   3.972  0.4316  0.9026  1.5923
 7854TIP3    H244978   1.982   2.663   4.025  0.1419 -0.2505 -1.3453
 7855TIP3   OH244979   3.188   2.860  14.290  0.1593  0.4153 -0.1202
 7855TIP3    H144980   3.103   2.838  14.328 -0.3222 -0.0767 -1.4232
 7855TIP3    H244981   3.174   2.853  14.196  2.0942 -1.4697 -0.3491
 7856TIP3   OH244982   1.678   6.236  13.269  0.0196 -0.2844  0.0764
 7856TIP3    H144983   1.687   6.171  13.200  0.6195 -0.4641  0.3180
 7856TIP3    H244984   1.606   6.204  13.323 -0.4335 -0.1567 -0.4399
 7857TIP3   OH244985   1.057   2.714   5.774 -0.2428 -0.0655 -0.5496
 7857TIP3    H144986   1.115   2.714   5.850  0.3366 -0.5533 -0.9821
 7857TIP3    H244987   0.969   2.722   5.811  0.0828  0.5259  0.1235
 7858TIP3   OH244988   1.790   4.882  15.231  0.2572  0.0911 -0.3864
 7858TIP3    H144989   1.765   4.905  15.320 -0.5621  0.8710 -0.7960
 7858TIP3    H244990   1.760   4.792  15.220 -0.3401  0.2500 -0.1174
 7859TIP3   OH244991   4.111   4.697  13.030  0.0519  0.2897 -0.0114
 7859TIP3    H144992   4.187   4.640  13.031 -1.2080 -1.6344  3.5040
 7859TIP3    H244993   4.052   4.658  12.965  1.4431  1.0453 -1.7997
 7860TIP3   OH244994   2.788   3.337  13.459  0.0202  0.0606  0.0602
 7860TIP3    H144995   2.861   3.398  13.454 -0.3948  0.6266  0.7661
 7860TIP3    H244996   2.825   3.258  13.500 -0.1001  0.9099  1.8938
 7861TIP3   OH244997   1.049   2.448   3.630 -0.8408  0.1873 -0.2521
 7861TIP3    H144998   1.135   2.408   3.636 -1.1826 -0.5228 -0.0189
 7861TIP3    H244999   1.019   2.428   3.541 -1.6096 -1.3439  0.3181
 7862TIP3   OH245000   6.410   5.168  14.505 -0.1461 -0.7391 -0.0016
 7862TIP3    H145001   6.408   5.078  14.539  0.0490 -0.3183  1.1637
 7862TIP3    H245002   6.362   5.219  14.570 -0.1000  0.0285 -0.5643
 7863TIP3   OH245003   4.392   0.202  12.183  0.2425  0.3084  0.3196
 7863TIP3    H145004   4.316   0.151  12.212  1.1706 -0.5718  1.3027
 7863TIP3    H245005   4.356   0.264  12.119 -0.8262 -2.1768 -1.6875
 7864TIP3   OH245006   2.772   6.370  13.663  0.5843  0.4502 -0.2338
 7864TIP3    H145007   2.810   6.458  13.672  1.6320 -0.1312  1.4160
 7864TIP3    H245008   2.823   6.316  13.724 -2.1813 -0.6129  1.2891
 7865TIP3   OH245009   5.790   5.889   3.795  0.0777 -0.0364 -0.3744
 7865TIP3    H145010   5.793   5.793   3.794  0.7862 -0.0160 -1.4002
 7865TIP3    H245011   5.843   5.914   3.871 -0.9964 -0.4650  0.5463
 7866TIP3   OH245012   2.253   3.205  15.562 -0.3628 -0.2143 -0.4028
 7866TIP3    H145013   2.274   3.260  15.638 -1.8106 -0.6753  0.3710
 7866TIP3    H245014   2.183   3.253  15.517  0.3237 -0.0623 -1.3348
 7867TIP3   OH245015   4.494   5.792   0.358 -0.0539 -0.1638 -0.0765
 7867TIP3    H145016   4.471   5.703   0.331 -0.4492 -0.6130  1.5792
 7867TIP3    H245017   4.484   5.791   0.454  1.8046  1.1359  0.1774
 7868TIP3   OH245018   3.604   2.229   2.237 -0.4838  0.0888 -0.3423
 7868TIP3    H145019   3.587   2.136   2.222  0.3435  0.0300 -1.0327
 7868TIP3    H245020   3.601   2.239   2.333  0.3156 -0.8487 -0.1975
 7869TIP3   OH245021   5.366   5.547  12.751  0.1195  0.2861 -0.6985
 7869TIP3    H145022   5.449   5.594  12.745 -0.1968  0.9870  0.2846
 7869TIP3    H245023   5.350   5.536  12.845 -1.4517  1.1613 -0.8260
 7870TIP3   OH245024   2.484   3.521   4.553  0.4521 -0.2363  0.0614
 7870TIP3    H145025   2.419   3.453   4.573  1.8097 -2.5034 -2.5370
 7870TIP3    H245026   2.568   3.481   4.573  1.2648  1.2998 -0.1080
 7871TIP3   OH245027   4.259   2.903   2.191 -0.1384  0.4332  0.0482
 7871TIP3    H145028   4.246   2.934   2.102  1.7416  0.0467 -0.4157
 7871TIP3    H245029   4.265   2.808   2.182 -2.4556  0.1380  0.9786
 7872TIP3   OH245030   1.017   1.965  13.427  0.4163  0.0536 -0.4658
 7872TIP3    H145031   0.999   2.025  13.355  2.6839 -0.1911 -1.3230
 7872TIP3    H245032   1.001   2.017  13.506  0.5464  1.1996 -1.1669
 7873TIP3   OH245033   0.931   5.982  16.975  0.1204  0.4515 -0.0345
 7873TIP3    H145034   0.942   5.888  16.964  0.9088  0.6469 -1.0728
 7873TIP3    H245035   0.921   6.016  16.886 -0.3506  1.3315  0.3365
 7874TIP3   OH245036   5.142   2.676   2.348  0.0602 -0.0673  0.2409
 7874TIP3    H145037   5.120   2.586   2.371  1.4248 -0.1574  1.3411
 7874TIP3    H245038   5.192   2.668   2.266 -1.4820 -0.1026 -0.7315
 7875TIP3   OH245039   5.310   3.280   5.763 -0.0447  0.7015 -0.3695
 7875TIP3    H145040   5.291   3.197   5.806 -1.1806  1.8705  1.5083
 7875TIP3    H245041   5.321   3.257   5.670  3.1122 -2.0094  0.5024
 7876TIP3   OH245042   3.208   5.315   2.440  0.6179  0.3718 -0.4125
 7876TIP3    H145043   3.226   5.234   2.391  0.7989 -1.1942  2.0555
 7876TIP3    H245044   3.118   5.304   2.471  0.2624  1.6539 -0.9160
 7877TIP3   OH245045   4.855   4.937  15.665 -0.5799  0.0382  0.2229
 7877TIP3    H145046   4.873   4.994  15.590  1.7108  0.8189  1.2620
 7877TIP3    H245047   4.938   4.892  15.681 -1.6987 -1.9060  0.8587
 7878TIP3   OH245048   4.549   5.199   6.305  0.3695  0.2400  0.3500
 7878TIP3    H145049   4.638   5.229   6.326  0.0296  1.4551  0.1247
 7878TIP3    H245050   4.545   5.203   6.209  0.8094 -2.0601  0.1741
 7879TIP3   OH245051   0.939   1.368   4.655  0.4499  0.1147  0.2253
 7879TIP3    H145052   0.856   1.325   4.675  0.7856 -0.5620  0.2004
 7879TIP3    H245053   0.939   1.448   4.708  0.3695 -0.5471  1.2533
 7880TIP3   OH245054   1.474   2.055   0.625  0.2849 -0.0488 -0.4033
 7880TIP3    H145055   1.543   2.118   0.646  1.6968 -1.3041 -1.0760
 7880TIP3    H245056   1.506   1.972   0.658 -0.9497 -0.6607 -0.6836
 7881TIP3   OH245057   4.134   3.643   5.887 -0.0897 -0.1529  0.2568
 7881TIP3    H145058   4.145   3.548   5.897  0.6256 -0.4406 -2.5260
 7881TIP3    H245059   4.221   3.675   5.866 -0.8200  0.6223 -1.8427
 7882TIP3   OH245060   0.821   5.267   1.546 -0.1263 -0.6409  0.6634
 7882TIP3    H145061   0.806   5.348   1.594 -1.1440 -0.9504  0.8718
 7882TIP3    H245062   0.844   5.296   1.457 -0.0712 -0.1251  0.8419
 7883TIP3   OH245063   0.051   4.430  15.369  0.5807 -0.1702 -0.0681
 7883TIP3    H145064   0.126   4.464  15.418  0.2915  0.6998 -0.2167
 7883TIP3    H245065   0.010   4.507  15.330 -1.3085 -0.4066  1.2767
 7884TIP3   OH245066   5.448   1.792  14.357 -0.1782  0.3507  0.0904
 7884TIP3    H145067   5.500   1.713  14.364 -0.5410  0.2102  1.3869
 7884TIP3    H245068   5.359   1.761  14.340 -0.4636  0.4236  1.3627
 7885TIP3   OH245069   6.779   2.507   4.004  0.3084  0.5223 -0.3435
 7885TIP3    H145070   6.730   2.532   3.925  0.7871  1.1549 -0.4508
 7885TIP3    H245071   6.840   2.580   4.017  1.7479 -0.5967 -0.6587
 7886TIP3   OH245072   2.684   0.600  14.740  0.3397  0.5317 -0.4090
 7886TIP3    H145073   2.611   0.573  14.684  0.4217  0.1475 -0.3304
 7886TIP3    H245074   2.762   0.570  14.694  0.4599  1.0931 -0.5755
 7887TIP3   OH245075   5.182   4.397  17.136  0.0425  0.3594 -0.6070
 7887TIP3    H145076   5.224   4.315  17.161  0.4918  0.7801  0.0347
 7887TIP3    H245077   5.097   4.370  17.102 -0.0338 -0.3319  0.0973
 7888TIP3   OH245078   4.535   4.577  12.541  0.0424  0.0417  0.1721
 7888TIP3    H145079   4.552   4.491  12.502  0.2213 -0.2549  0.8790
 7888TIP3    H245080   4.455   4.564  12.592  1.1230 -0.2630  1.8692
 7889TIP3   OH245081   1.503   6.593   4.475 -0.1644  0.7050 -0.0505
 7889TIP3    H145082   1.521   6.620   4.385 -2.9221 -1.2596 -1.3359
 7889TIP3    H245083   1.408   6.581   4.478  0.0665 -1.3720  2.4798
 7890TIP3   OH245084   0.592   1.706   0.339 -0.4503  0.3802  0.3854
 7890TIP3    H145085   0.562   1.732   0.426 -1.6487  1.4241 -0.3179
 7890TIP3    H245086   0.562   1.776   0.281 -1.1910 -1.1282 -1.1337
 7891TIP3   OH245087   6.404   1.352  14.413 -0.9262 -0.0961  0.5223
 7891TIP3    H145088   6.482   1.405  14.397 -0.2525 -1.7603 -2.5413
 7891TIP3    H245089   6.334   1.416  14.424  0.5473  1.4274  1.6003
 7892TIP3   OH245090   0.478   4.540  12.921  0.1059 -0.1947  0.2531
 7892TIP3    H145091   0.479   4.593  13.000  0.3001 -0.3705  0.3681
 7892TIP3    H245092   0.518   4.457  12.946 -1.1301 -0.7827  0.3366
 7893TIP3   OH245093   5.199   5.704   2.070  0.4534  0.1280 -0.1399
 7893TIP3    H145094   5.221   5.635   2.133  1.6851  0.4086 -0.2265
 7893TIP3    H245095   5.214   5.664   1.984  0.0714  0.1547 -0.2194
 7894TIP3   OH245096   4.423   5.499  13.132  0.1075  0.0387 -0.0003
 7894TIP3    H145097   4.470   5.451  13.064 -2.2404 -3.2356  0.4940
 7894TIP3    H245098   4.360   5.553  13.084 -1.3624 -2.0633 -0.5610
 7895TIP3   OH245099   1.793   3.081  12.049 -0.0527  0.4041 -0.9565
 7895TIP3    H145100   1.806   3.152  12.113 -2.7548 -0.4787  0.7700
 7895TIP3    H245101   1.758   3.125  11.972 -0.7810  1.0989 -0.2575
 7896TIP3   OH245102   2.777   2.054  12.665 -0.0205  0.0635 -0.0126
 7896TIP3    H145103   2.712   2.092  12.605  0.1332  0.8059  0.2822
 7896TIP3    H245104   2.787   2.119  12.734  0.7051 -0.2499  0.1879
 7897TIP3   OH245105   1.328   5.273  14.953 -0.6840  0.1762 -0.3131
 7897TIP3    H145106   1.266   5.255  15.023  0.0826 -0.7822  0.1361
 7897TIP3    H245107   1.413   5.281  14.996 -0.3332  0.4686 -1.0301
 7898TIP3   OH245108   4.640   2.037   0.603 -0.5379 -0.0384 -0.2429
 7898TIP3    H145109   4.684   2.098   0.663 -1.1586 -0.6737  0.8814
 7898TIP3    H245110   4.711   1.986   0.564 -0.2257 -0.6114  1.0578
 7899TIP3   OH245111   6.080   0.102  13.397 -0.3504  0.0971  0.1407
 7899TIP3    H145112   6.122   0.021  13.427 -0.7492 -0.7372 -1.4265
 7899TIP3    H245113   5.987   0.080  13.391 -1.0157  1.6899  2.8175
 7900TIP3   OH245114   3.454   5.820  10.848  0.5442  0.0158  0.3594
 7900TIP3    H145115   3.453   5.810  10.943 -0.7897  0.7030  0.4464
 7900TIP3    H245116   3.365   5.797  10.821  0.0171  2.5745 -0.3821
 7901TIP3   OH245117   2.880   2.601   2.515 -0.4859  0.3934  0.5433
 7901TIP3    H145118   2.854   2.680   2.469 -0.8759 -0.6231 -1.0467
 7901TIP3    H245119   2.799   2.566   2.550 -0.9842 -1.3521 -2.1318
 7902TIP3   OH245120   1.968   4.055   4.947 -0.0746  0.4254  0.0448
 7902TIP3    H145121   1.930   4.067   4.860 -0.4918 -2.6156 -0.3145
 7902TIP3    H245122   2.052   4.100   4.943 -0.2516  0.6793 -1.8077
 7903TIP3   OH245123   3.757   3.920   3.028 -0.2877  0.0959  0.1018
 7903TIP3    H145124   3.844   3.904   2.991 -0.4113  1.5104 -0.8947
 7903TIP3    H245125   3.748   4.016   3.027 -2.3941 -0.0541 -1.1299
 7904TIP3   OH245126   2.149   3.347   3.202  0.3810  0.3776  0.6377
 7904TIP3    H145127   2.233   3.382   3.172  1.4914 -2.1915  0.4699
 7904TIP3    H245128   2.134   3.270   3.148 -1.4391  0.0345  1.5526
 7905TIP3   OH245129   4.910   3.909   2.756  0.6277  0.4400 -0.0592
 7905TIP3    H145130   4.947   3.987   2.715  0.8221  0.2395 -0.2677
 7905TIP3    H245131   4.986   3.857   2.783  0.5856 -1.0800 -2.5500
 7906TIP3   OH245132   6.132   2.059   2.092  0.0370 -0.0368 -0.6716
 7906TIP3    H145133   6.210   2.062   2.148 -0.9980  0.1980  0.8054
 7906TIP3    H245134   6.120   1.967   2.072  0.4223 -0.1207 -0.5198
 7907TIP3   OH245135   0.379   5.019   2.679 -0.0836 -0.4625  0.7629
 7907TIP3    H145136   0.449   5.056   2.733  0.1365 -0.4115  0.4485
 7907TIP3    H245137   0.366   5.085   2.610 -1.8411  0.4985  1.9421
 7908TIP3   OH245138   4.214   2.987  15.654  0.1391  0.4203 -0.1839
 7908TIP3    H145139   4.182   3.048  15.588  0.7435 -0.7337 -1.5994
 7908TIP3    H245140   4.301   2.961  15.623  1.5062  1.6566  2.3083
 7909TIP3   OH245141   3.157   4.871  13.910 -0.0567  0.3312  0.2382
 7909TIP3    H145142   3.066   4.884  13.936 -0.3572 -0.0961 -0.5582
 7909TIP3    H245143   3.175   4.942  13.849  0.3592  0.8043  0.9028
 7910TIP3   OH245144   4.077   2.674   5.059 -0.6706  0.4169  0.1738
 7910TIP3    H145145   3.986   2.653   5.076 -0.1723 -1.9172  0.3758
 7910TIP3    H245146   4.126   2.622   5.124  0.8414  0.0596 -1.1881
 7911TIP3   OH245147   6.195   4.388  13.427  0.0612  0.0299 -0.3223
 7911TIP3    H145148   6.209   4.460  13.487  0.3919  0.7843 -1.2835
 7911TIP3    H245149   6.144   4.324  13.477 -1.2986  1.4497  0.1715
 7912TIP3   OH245150   4.356   4.344   3.597  0.0364 -0.2036  0.0178
 7912TIP3    H145151   4.349   4.324   3.504  0.0577 -0.7527  0.1324
 7912TIP3    H245152   4.365   4.259   3.639  0.1149  0.0488  0.5148
 7913TIP3   OH245153   3.391   2.888  15.317 -0.3996 -0.6753  0.1342
 7913TIP3    H145154   3.361   2.912  15.229 -1.4656  0.1299  0.6857
 7913TIP3    H245155   3.377   2.794  15.323 -0.7142 -0.6662 -0.4246
 7914TIP3   OH245156   4.047   0.218  12.998  0.2846 -0.1218  0.1820
 7914TIP3    H145157   3.989   0.293  13.012  0.2222 -0.2999  0.9624
 7914TIP3    H245158   4.127   0.241  13.045  0.0428 -0.7893  0.9483
 7915TIP3   OH245159   3.007   0.323   0.511 -0.0883 -0.1261  0.1469
 7915TIP3    H145160   3.038   0.401   0.463  0.8995 -0.6733 -0.1392
 7915TIP3    H245161   2.938   0.356   0.568  0.3389  0.9767  0.0609
 7916TIP3   OH245162   2.751   5.558   0.463  0.4798  0.7197  0.8815
 7916TIP3    H145163   2.718   5.589   0.547 -2.8529  0.3865 -0.1676
 7916TIP3    H245164   2.747   5.463   0.469 -1.5579  0.6889 -0.1995
 7917TIP3   OH245165   0.910   3.181  13.798 -0.7547  0.1601  0.1971
 7917TIP3    H145166   0.964   3.195  13.875  0.8414 -0.4714 -0.7712
 7917TIP3    H245167   0.828   3.226  13.818  0.4360  1.9496  1.3196
 7918TIP3   OH245168   0.129   6.269  14.806  0.5067 -0.2009  0.4151
 7918TIP3    H145169   0.139   6.214  14.728  0.1963 -1.0466  0.9616
 7918TIP3    H245170   0.186   6.345  14.789 -0.9941  0.5758 -1.4472
 7919TIP3   OH245171   4.244   2.340  12.826 -0.0626  0.2886 -0.5628
 7919TIP3    H145172   4.248   2.436  12.827  0.9845  0.3121  2.7993
 7919TIP3    H245173   4.184   2.317  12.897  1.0542 -1.5604 -0.1515
 7920TIP3   OH245174   3.253   3.077   3.231  0.6737 -0.3689  0.2859
 7920TIP3    H145175   3.243   3.031   3.148 -0.1285 -0.8671  0.6411
 7920TIP3    H245176   3.170   3.124   3.242  0.7795 -0.2931  0.7898
 7921TIP3   OH245177   1.841   3.322   0.609 -0.0155 -0.5041 -0.3251
 7921TIP3    H145178   1.893   3.395   0.573  1.1792 -1.0169  0.2913
 7921TIP3    H245179   1.792   3.288   0.535 -0.6814  0.9921 -0.6073
 7922TIP3   OH245180   4.448   2.854   3.248 -0.1520 -0.1964 -0.2736
 7922TIP3    H145181   4.477   2.945   3.245  0.2932 -0.2364  1.4781
 7922TIP3    H245182   4.524   2.804   3.216 -0.2112  0.0140 -0.7469
 7923TIP3   OH245183   1.516   1.336  14.792 -0.0891  0.4396 -0.0952
 7923TIP3    H145184   1.471   1.316  14.710 -1.6550  0.0561  0.8159
 7923TIP3    H245185   1.599   1.375  14.765 -0.1959 -0.4615 -1.8597
 7924TIP3   OH245186   5.693   6.428   1.179 -0.0618 -0.6967  0.0317
 7924TIP3    H145187   5.670   6.373   1.254 -0.1580  0.5141  0.9068
 7924TIP3    H245188   5.747   6.498   1.215 -0.5582  0.2251 -0.9277
 7925TIP3   OH245189   1.427   1.342  15.048 -0.0577  0.0600 -0.4158
 7925TIP3    H145190   1.501   1.293  15.085 -0.3391  0.5548  0.8407
 7925TIP3    H245191   1.444   1.343  14.953  0.9356 -0.8205 -0.2655
 7926TIP3   OH245192   2.337   6.483  14.510 -0.4351 -0.4845 -0.0353
 7926TIP3    H145193   2.391   6.442  14.577  1.4734  1.1031 -0.5092
 7926TIP3    H245194   2.345   6.577  14.526 -2.6056 -0.1559 -0.5089
 7927TIP3   OH245195   5.464   0.758  13.661 -0.5120 -0.0462 -0.5338
 7927TIP3    H145196   5.482   0.813  13.585  2.3589 -2.1204 -1.5077
 7927TIP3    H245197   5.520   0.793  13.730 -0.1880 -0.5133 -0.5571
 7928TIP3   OH245198   2.377   2.821  15.678  0.1360  0.5868  0.6227
 7928TIP3    H145199   2.433   2.897  15.666  1.1490  0.2306  2.6087
 7928TIP3    H245200   2.290   2.850  15.651  1.1614  1.2134 -2.3543
 7929TIP3   OH245201   4.728   1.259   1.322  0.4760 -0.4588 -0.1111
 7929TIP3    H145202   4.818   1.250   1.353  0.7680  0.5419 -0.6351
 7929TIP3    H245203   4.676   1.211   1.386  0.7272  3.4157  3.4283
 7930TIP3   OH245204   0.447   3.686   2.970 -0.3622 -0.0036  0.3424
 7930TIP3    H145205   0.394   3.645   2.901 -0.6143 -1.1076  1.1637
 7930TIP3    H245206   0.383   3.721   3.032 -0.1669  2.3194 -0.6779
 7931TIP3   OH245207   4.308   1.499  17.065 -0.3360 -0.4165  0.5643
 7931TIP3    H145208   4.253   1.497  17.143  0.6100  1.6463  1.3616
 7931TIP3    H245209   4.263   1.560  17.006  0.3414  0.1841  0.6530
 7932TIP3   OH245210   0.874   2.202   0.574  0.3955  0.0813  0.7083
 7932TIP3    H145211   0.783   2.176   0.564 -0.1451  2.3510 -1.1225
 7932TIP3    H245212   0.873   2.262   0.649 -0.0299  1.5082 -0.3833
 7933TIP3   OH245213   3.205   2.856   0.535 -0.0216 -0.2447  0.4043
 7933TIP3    H145214   3.153   2.900   0.468 -1.3213  1.8165  2.6173
 7933TIP3    H245215   3.294   2.856   0.500 -0.5694  1.1540 -1.1041
 7934TIP3   OH245216   6.534   3.454   6.702 -0.1374 -0.0320 -0.2705
 7934TIP3    H145217   6.537   3.550   6.699  1.7186 -0.0783 -1.7541
 7934TIP3    H245218   6.620   3.429   6.738 -0.4723 -1.1438 -0.2205
 7935TIP3   OH245219   2.818   2.745  16.275  0.1138 -0.0001  0.1777
 7935TIP3    H145220   2.861   2.673  16.320 -1.5957 -1.2463 -0.0686
 7935TIP3    H245221   2.786   2.802  16.345 -0.6855 -0.8095  0.4866
 7936TIP3   OH245222   4.720   1.437   0.677 -0.3472  0.0017  0.1838
 7936TIP3    H145223   4.744   1.373   0.611 -1.9855 -0.7734  0.2963
 7936TIP3    H245224   4.778   1.512   0.659 -0.7702 -0.1373 -2.1833
 7937TIP3   OH245225   5.287   0.330   4.213  0.1705  0.2088  0.2477
 7937TIP3    H145226   5.224   0.269   4.250  1.1505  0.0549  1.7497
 7937TIP3    H245227   5.353   0.275   4.171  0.4686  0.2641  0.6342
 7938TIP3   OH245228   5.687   6.099  11.881 -0.1793 -0.3300 -0.0072
 7938TIP3    H145229   5.772   6.058  11.893 -0.4449 -1.1220 -0.7373
 7938TIP3    H245230   5.649   6.054  11.805 -1.6277 -0.6162  0.8597
 7939TIP3   OH245231   1.422   6.675  14.657 -0.2310 -0.0147  0.2650
 7939TIP3    H145232   1.494   6.705  14.601  1.0986 -1.4413  1.1543
 7939TIP3    H245233   1.462   6.658  14.742 -1.7727 -0.1525  0.9990
 7940TIP3   OH245234   6.259   2.791   5.001  0.1830  0.2323 -0.4759
 7940TIP3    H145235   6.327   2.781   5.068 -0.8021 -0.5289  0.4494
 7940TIP3    H245236   6.264   2.883   4.976  0.0871  0.7207  1.1948
 7941TIP3   OH245237   1.818   6.374  13.920  0.0308 -0.0904 -0.4382
 7941TIP3    H145238   1.816   6.425  13.839 -2.0646 -1.4308 -1.3301
 7941TIP3    H245239   1.840   6.285  13.891  0.6246 -0.3196  0.6699
 7942TIP3   OH245240   0.650   5.673   3.040  0.6874  0.1064  0.3503
 7942TIP3    H145241   0.595   5.595   3.037 -0.6447  1.0519 -0.3080
 7942TIP3    H245242   0.642   5.713   2.953  1.1552  1.1060  0.7437
 7943TIP3   OH245243   3.537   4.480   3.671  0.0816  0.0071 -0.4209
 7943TIP3    H145244   3.478   4.510   3.602 -1.4565 -1.4154  0.2096
 7943TIP3    H245245   3.479   4.452   3.742  1.5782  0.2006  0.9328
 7944TIP3   OH245246   1.102   4.532  12.028 -0.7011 -0.1489  0.3253
 7944TIP3    H145247   1.159   4.560  12.100 -1.2497  0.3215  0.5851
 7944TIP3    H245248   1.016   4.518  12.068 -1.0207  0.1339 -0.2387
 7945TIP3   OH245249   5.752   2.723   3.126  0.4007 -0.1072 -0.3129
 7945TIP3    H145250   5.668   2.761   3.099  0.3188  0.6587  0.9617
 7945TIP3    H245251   5.779   2.671   3.050 -0.7793  0.3556 -1.0943
 7946TIP3   OH245252   0.958   1.796  14.357 -0.3026 -0.1923  0.3153
 7946TIP3    H145253   0.965   1.884  14.394  0.5074 -0.1308  0.0406
 7946TIP3    H245254   0.955   1.811  14.262 -1.1980 -0.4134  0.2951
 7947TIP3   OH245255   3.482   4.816   3.026  0.9804 -0.1165 -0.0989
 7947TIP3    H145256   3.535   4.761   3.083  0.0998 -0.5593  0.3164
 7947TIP3    H245257   3.397   4.822   3.071  0.2343 -0.5548 -1.4055
 7948TIP3   OH245258   4.159   0.931  14.376 -0.4598  0.7543  0.4419
 7948TIP3    H145259   4.235   0.989  14.366  1.8840 -2.0823  0.3815
 7948TIP3    H245260   4.149   0.920  14.470 -0.3482  0.5997  0.4360
 7949TIP3   OH245261   0.052   2.523   5.382  0.1206  0.3690 -0.2211
 7949TIP3    H145262   0.070   2.439   5.425 -0.5508  0.1757 -0.3011
 7949TIP3    H245263   0.093   2.588   5.438  0.4277  0.0049 -0.0187
 7950TIP3   OH245264   2.122   1.144   1.677  0.0475 -0.2647 -0.3145
 7950TIP3    H145265   2.095   1.075   1.737 -0.0554  0.2000  0.1873
 7950TIP3    H245266   2.107   1.108   1.589 -1.4042 -0.3369 -0.0639
 7951TIP3   OH245267   3.573   3.665   5.185  0.0041 -0.3187 -0.3130
 7951TIP3    H145268   3.510   3.712   5.129  1.0617  2.0390  0.3289
 7951TIP3    H245269   3.558   3.701   5.273  0.1999 -1.9816  0.4360
 7952TIP3   OH245270   3.342   6.568   2.371 -0.0034 -0.4096  0.6475
 7952TIP3    H145271   3.293   6.634   2.419 -0.9167 -1.7815  1.6712
 7952TIP3    H245272   3.434   6.593   2.383 -0.2833  0.0458  1.9893
 7953TIP3   OH245273   0.202   1.457  15.306 -0.2767 -0.0253  0.5659
 7953TIP3    H145274   0.147   1.422  15.376  0.0546  0.9857  1.3585
 7953TIP3    H245275   0.231   1.542  15.339 -0.8950  0.9163 -1.1816
 7954TIP3   OH245276   2.513   4.125  14.661  0.1936 -0.1352  0.0101
 7954TIP3    H145277   2.526   4.044  14.710  1.8370  0.4160  0.5409
 7954TIP3    H245278   2.467   4.183  14.722 -1.7427 -0.8843 -0.6463
 7955TIP3   OH245279   3.863   6.515   1.785  0.4991 -0.0014  0.2712
 7955TIP3    H145280   3.840   6.429   1.750  0.2956  0.4367 -0.7068
 7955TIP3    H245281   3.816   6.522   1.867 -0.1302 -0.4971 -0.0446
 7956TIP3   OH245282   3.024   2.421   0.876  0.6278 -0.1206  0.1564
 7956TIP3    H145283   3.038   2.370   0.796  0.6647  1.5855 -1.0010
 7956TIP3    H245284   3.085   2.383   0.939  2.4269 -0.0063 -1.3869
 7957TIP3   OH245285   5.109   4.579   2.243 -0.3488  0.4849  0.0202
 7957TIP3    H145286   5.175   4.509   2.244 -0.1809  0.6309 -0.6812
 7957TIP3    H245287   5.119   4.621   2.329  2.4720  2.3427 -1.0603
 7958TIP3   OH245288   1.225   0.037   4.148 -0.0522  0.1391 -0.4503
 7958TIP3    H145289   1.239  -0.012   4.066  0.3511  1.7036 -1.3499
 7958TIP3    H245290   1.142   0.082   4.136  0.2971  0.8549 -0.2561
 7959TIP3   OH245291   6.099   3.854   1.289 -0.4141  0.4040  0.1681
 7959TIP3    H145292   6.009   3.838   1.317  0.3778 -1.6972  1.7468
 7959TIP3    H245293   6.150   3.784   1.329  2.0573  1.9180 -0.1084
 7960TIP3   OH245294   0.689   4.128  16.521 -0.4867 -0.1552 -0.3629
 7960TIP3    H145295   0.728   4.066  16.459 -0.3242  0.1939 -0.6103
 7960TIP3    H245296   0.595   4.110  16.517 -0.3427 -1.1647  0.4156
 7961TIP3   OH245297   1.523   3.342   5.524 -0.5620  0.1034 -0.2992
 7961TIP3    H145298   1.502   3.430   5.555 -1.6658  0.0189 -0.7692
 7961TIP3    H245299   1.478   3.283   5.584  1.2173 -0.2139  0.8007
 7962TIP3   OH245300   4.502   2.801  15.128 -0.6044 -0.4515  0.4582
 7962TIP3    H145301   4.530   2.742  15.197  2.0017 -0.5937 -0.6050
 7962TIP3    H245302   4.523   2.888  15.160  0.8873 -0.5361 -0.2064
 7963TIP3   OH245303   5.374   6.595  12.954  0.4076  0.5800 -0.5330
 7963TIP3    H145304   5.334   6.674  12.992 -2.3999  0.3399 -2.6730
 7963TIP3    H245305   5.314   6.524  12.978  0.1074 -0.0328 -2.8532
 7964TIP3   OH245306   1.712   2.598   6.462  0.3511 -0.2854 -0.2088
 7964TIP3    H145307   1.759   2.659   6.405  0.1055 -0.7013 -0.8661
 7964TIP3    H245308   1.676   2.653   6.531  0.7572  0.2122 -0.3877
 7965TIP3   OH245309   0.989   4.091   3.137  0.3061  0.0785 -0.2150
 7965TIP3    H145310   1.081   4.066   3.135 -0.2429 -2.0746 -1.6935
 7965TIP3    H245311   0.943   4.015   3.102 -1.9955  1.3234 -0.0522
 7966TIP3   OH245312   1.004   1.499   4.427  0.7138 -0.0776 -0.0423
 7966TIP3    H145313   0.941   1.568   4.409  1.3194  0.5251  0.1157
 7966TIP3    H245314   0.958   1.440   4.486  0.4004  0.5118  0.3122
 7967TIP3   OH245315   3.878   4.572   6.328  0.0960  0.0112  0.0134
 7967TIP3    H145316   3.793   4.615   6.312 -0.6150 -1.5448 -0.6458
 7967TIP3    H245317   3.866   4.483   6.294  2.5169  0.2119 -1.5707
 7968TIP3   OH245318   4.643   4.924  15.265 -0.2041 -0.0331 -0.0582
 7968TIP3    H145319   4.549   4.905  15.273 -0.0633 -0.3513  1.0774
 7968TIP3    H245320   4.647   5.016  15.238 -0.8398 -0.1870 -0.7256
 7969TIP3   OH245321   6.695   6.371   2.374  0.5015  0.0876 -0.4579
 7969TIP3    H145322   6.630   6.370   2.444  1.8049 -1.5809  0.8148
 7969TIP3    H245323   6.705   6.279   2.349  2.9079  0.1713 -0.0562
 7970TIP3   OH245324   2.902   4.061  10.930  0.2215 -0.6196  0.0170
 7970TIP3    H145325   2.898   4.057  10.834  1.2796 -1.5530 -0.0089
 7970TIP3    H245326   2.892   3.970  10.959 -3.5258 -0.0374  1.0139
 7971TIP3   OH245327   1.574   6.498   4.116  0.7254  0.6280 -0.0515
 7971TIP3    H145328   1.494   6.463   4.156  1.5866 -0.8796  0.4467
 7971TIP3    H245329   1.560   6.592   4.113 -0.7377  0.4704  0.7690
 7972TIP3   OH245330   0.220   4.559  12.819 -0.3248  0.1707  0.3757
 7972TIP3    H145331   0.164   4.514  12.882 -0.8393 -0.6128 -0.6046
 7972TIP3    H245332   0.309   4.541  12.848 -0.5415 -0.8948  0.4040
 7973TIP3   OH245333   0.009   6.295  12.527 -0.0653 -0.1642 -0.4472
 7973TIP3    H145334   0.066   6.343  12.588  0.1932  1.4678 -1.8978
 7973TIP3    H245335   0.030   6.332  12.441 -0.6733 -2.1557 -1.5052
 7974TIP3   OH245336   3.918   5.310   2.527  0.6764  0.4698  0.4528
 7974TIP3    H145337   3.924   5.290   2.434 -2.3430 -3.2842  0.7997
 7974TIP3    H245338   3.862   5.388   2.531 -0.6197 -0.3332 -0.9222
 7975TIP3   OH245339   1.767   0.045   2.062  0.2274  0.4820 -0.2283
 7975TIP3    H145340   1.819  -0.034   2.080 -0.0581  0.1209 -0.9415
 7975TIP3    H245341   1.700   0.045   2.130  0.3363  0.1974 -0.1164
 7976TIP3   OH245342   1.244   2.140  16.291 -0.4588 -0.0039  0.0025
 7976TIP3    H145343   1.270   2.122  16.381  2.2002  0.4546 -0.6038
 7976TIP3    H245344   1.229   2.235  16.288  1.3580  0.2912 -0.4419
 7977TIP3   OH245345   2.766   6.090  12.894  0.0001  0.1140  0.2689
 7977TIP3    H145346   2.742   6.079  12.802  1.1182 -1.0474  0.0813
 7977TIP3    H245347   2.862   6.092  12.894  0.0845 -1.4581  1.5300
 7978TIP3   OH245348   4.947   4.094   0.702 -0.1520  0.0574 -0.1830
 7978TIP3    H145349   4.989   4.008   0.709  1.2285  0.8157  1.2915
 7978TIP3    H245350   4.885   4.083   0.630 -0.7310 -2.4552  0.5792
 7979TIP3   OH245351   5.300   4.033   6.574  0.0790  1.0069 -0.5672
 7979TIP3    H145352   5.328   4.058   6.662 -1.6056 -1.1271  0.7033
 7979TIP3    H245353   5.261   4.112   6.537  0.3758  1.8303  0.8199
 7980TIP3   OH245354   6.779   5.628   3.959  0.1160 -0.1239  0.6906
 7980TIP3    H145355   6.830   5.548   3.964  0.1874 -0.0353  4.6370
 7980TIP3    H245356   6.841   5.697   3.986 -0.6900  0.8210  0.1804
 7981TIP3   OH245357   3.245   6.680  10.813  0.5319  0.2043 -0.1227
 7981TIP3    H145358   3.305   6.732  10.867 -0.4075  1.9996 -0.7282
 7981TIP3    H245359   3.221   6.606  10.869  3.2660 -0.6121  0.1499
 7982TIP3   OH245360   3.725   3.069  12.783  0.1212  0.4626 -0.1977
 7982TIP3    H145361   3.637   3.096  12.758 -0.3460 -0.2911  0.5869
 7982TIP3    H245362   3.753   3.133  12.849 -0.0316  0.4182 -0.0904
 7983TIP3   OH245363   0.585   6.636   1.585 -0.2634  0.0708 -0.1783
 7983TIP3    H145364   0.513   6.696   1.568  1.3946  1.7660 -1.8335
 7983TIP3    H245365   0.580   6.572   1.514 -0.5974 -0.2802  0.1617
 7984TIP3   OH245366   4.309   0.745   0.988  0.9251 -0.1117  0.2268
 7984TIP3    H145367   4.239   0.686   0.959  2.7413 -1.3379 -1.9713
 7984TIP3    H245368   4.286   0.766   1.079 -2.6315  0.1327 -0.5806
 7985TIP3   OH245369   1.346   1.490  11.569  0.6663  0.5273  0.0656
 7985TIP3    H145370   1.394   1.460  11.647  0.7785 -0.9137 -0.5264
 7985TIP3    H245371   1.366   1.425  11.502 -0.1025  1.2912 -0.9368
 7986TIP3   OH245372   3.614   1.311  10.894 -0.6752  0.2551 -0.9430
 7986TIP3    H145373   3.570   1.233  10.860  2.7575 -1.5488 -1.7614
 7986TIP3    H245374   3.658   1.349  10.818  3.1252 -1.0077  0.3683
 7987TIP3   OH245375   3.227   1.266   1.866 -0.0980 -0.0415 -0.1717
 7987TIP3    H145376   3.274   1.342   1.833 -1.2956  0.5545 -0.5766
 7987TIP3    H245377   3.187   1.227   1.788 -1.5226  0.3605  0.3358
 7988TIP3   OH245378   3.319   5.808   2.159  0.4814 -0.1427 -0.0361
 7988TIP3    H145379   3.303   5.851   2.243 -0.7200 -0.5580 -0.0329
 7988TIP3    H245380   3.413   5.792   2.158  0.9358  2.1533  0.1158
 7989TIP3   OH245381   4.290   4.837   4.281 -0.7608  0.5319 -0.5332
 7989TIP3    H145382   4.222   4.843   4.214 -1.2662 -1.4361 -0.2562
 7989TIP3    H245383   4.258   4.772   4.343  0.8554  0.4012  0.2327
 7990TIP3   OH245384   5.428   3.311   1.040 -0.3080 -0.7682  0.7178
 7990TIP3    H145385   5.346   3.286   1.083  0.7083  0.2549  3.4741
 7990TIP3    H245386   5.408   3.393   0.996 -1.3405 -1.7478 -0.7129
 7991TIP3   OH245387   6.657   5.066  13.931 -0.1807  0.2592  0.5999
 7991TIP3    H145388   6.652   4.971  13.941 -2.2298  0.2408  0.0255
 7991TIP3    H245389   6.678   5.079  13.839  1.6524  0.3919  1.0125
 7992TIP3   OH245390   5.533   2.557  14.797 -0.4833  0.7548  0.2139
 7992TIP3    H145391   5.492   2.575  14.882 -2.1629  1.7367 -0.7618
 7992TIP3    H245392   5.481   2.606  14.734  0.0074 -0.8544 -1.5471
 7993TIP3   OH245393   4.677   2.963  14.907  0.0156 -0.1882 -0.0681
 7993TIP3    H145394   4.738   2.906  14.861 -0.9542  1.0309 -3.1318
 7993TIP3    H245395   4.620   2.904  14.956  1.0078 -1.5933 -0.5627
 7994TIP3   OH245396   6.730   3.751  14.924 -0.4169 -0.4294 -0.3826
 7994TIP3    H145397   6.785   3.709  14.990 -1.9102 -2.7737 -0.5374
 7994TIP3    H245398   6.713   3.682  14.859 -3.8111  0.0166 -0.1469
 7995TIP3   OH245399   6.301   5.616  11.662 -0.2151 -0.4620 -0.5968
 7995TIP3    H145400   6.247   5.661  11.727 -0.6831  1.2664 -2.1109
 7995TIP3    H245401   6.248   5.618  11.582  1.1657 -0.7436 -1.5478
 7996TIP3   OH245402   5.676   4.053   5.585 -0.3830 -0.7233 -0.0346
 7996TIP3    H145403   5.683   4.005   5.667  0.8197 -1.0616 -0.3183
 7996TIP3    H245404   5.763   4.046   5.545 -0.5887  0.5171 -0.7414
 7997TIP3   OH245405   1.888   3.597  10.459 -0.1169 -0.4337 -0.0353
 7997TIP3    H145406   1.876   3.632  10.371 -0.8918 -0.9639 -0.1522
 7997TIP3    H245407   1.799   3.580  10.491  0.1002  0.5431  1.1777
 7998TIP3   OH245408   4.531   3.035  10.880  0.3178 -0.4790  0.4027
 7998TIP3    H145409   4.555   3.000  10.794  0.7794  1.0291 -0.1057
 7998TIP3    H245410   4.459   3.096  10.862 -0.8645 -1.5243  1.3475
 7999TIP3   OH245411   2.859   4.019  12.854 -0.4914  0.0022 -0.4418
 7999TIP3    H145412   2.776   4.062  12.874 -0.2137 -0.5521  2.3205
 7999TIP3    H245413   2.924   4.070  12.901  0.2393 -1.5963  0.3499
 8000TIP3   OH245414   5.862   3.845  10.488 -0.0531  0.2436 -0.7616
 8000TIP3    H145415   5.893   3.891  10.410  1.1666  0.1188 -0.3584
 8000TIP3    H245416   5.826   3.915  10.543 -2.0111  0.2100 -1.8862
 8001TIP3   OH245417   2.933   4.197  13.628 -0.3198 -0.1743  0.0948
 8001TIP3    H145418   2.926   4.169  13.537  1.1484  0.6630 -0.3055
 8001TIP3    H245419   2.843   4.217  13.654 -0.7746 -0.5558 -1.1194
 8002TIP3   OH245420   5.195   5.671  11.725 -0.2874  1.0420  0.1802
 8002TIP3    H145421   5.215   5.727  11.650 -1.5355 -1.0273 -1.8096
 8002TIP3    H245422   5.220   5.583  11.696 -0.7026  0.1885  2.2634
 8003TIP3   OH245423   1.829   2.849  13.460  0.6007 -0.0259  0.1698
 8003TIP3    H145424   1.866   2.886  13.380  0.2227  0.7952  0.3658
 8003TIP3    H245425   1.878   2.892  13.530 -1.4928  1.9991  0.4801
 8004TIP3   OH245426   0.245   3.365   4.175 -0.0588 -0.1777  0.0137
 8004TIP3    H145427   0.331   3.369   4.133  0.4661 -0.2033  1.0599
 8004TIP3    H245428   0.264   3.364   4.269 -1.2210  0.3807  0.2729
 8005TIP3   OH245429   0.847   6.604  15.397 -0.3154  0.3425  0.2510
 8005TIP3    H145430   0.865   6.609  15.491  1.3984 -2.5010  0.2109
 8005TIP3    H245431   0.773   6.544  15.390 -0.0150  0.0280 -0.2445
 8006TIP3   OH245432   6.674   4.254  14.811  0.1202 -0.0736 -0.2708
 8006TIP3    H145433   6.679   4.319  14.881  1.0447 -0.0507 -0.3466
 8006TIP3    H245434   6.743   4.190  14.832  1.9317  1.0783 -2.2770
 8007TIP3   OH245435   3.457   3.368  14.052  0.1851  0.0281  0.3248
 8007TIP3    H145436   3.403   3.415  13.988  0.6515  0.7245  0.4342
 8007TIP3    H245437   3.458   3.278  14.020  0.0002  0.2652 -0.3786
 8008TIP3   OH245438   1.541   5.084  12.783 -0.3810  0.6519 -0.2664
 8008TIP3    H145439   1.603   5.027  12.830  1.3775 -0.3072 -3.4104
 8008TIP3    H245440   1.455   5.056  12.813  0.5886  0.4353  2.6011
 8009TIP3   OH245441   3.162   0.699   0.919 -0.0698  0.2196  0.1493
 8009TIP3    H145442   3.082   0.751   0.916  0.4342  1.0648  0.8987
 8009TIP3    H245443   3.136   0.614   0.883 -1.1679  0.6404 -0.1092
 8010TIP3   OH245444   6.400   2.206  11.050 -1.1593  0.1154 -0.2405
 8010TIP3    H145445   6.348   2.287  11.048 -1.5216 -0.0458  1.1034
 8010TIP3    H245446   6.471   2.226  11.111 -2.9417 -1.4709  2.5818
 8011TIP3   OH245447   3.851   6.221   0.565 -0.2459 -0.5614  0.0556
 8011TIP3    H145448   3.825   6.216   0.473  0.0014 -1.2749  0.0176
 8011TIP3    H245449   3.942   6.248   0.563 -0.5712  0.5910  0.1419
 8012TIP3   OH245450   4.110   3.054   5.310 -0.2725  0.6556  0.3631
 8012TIP3    H145451   4.074   3.012   5.388  1.3281 -0.6172  0.4607
 8012TIP3    H245452   4.040   3.049   5.245 -0.0567 -2.5871  0.2429
 8013TIP3   OH245453   6.647   1.776  11.837 -0.6142 -0.0463 -0.3788
 8013TIP3    H145454   6.636   1.803  11.928 -0.8263 -0.1219 -0.3828
 8013TIP3    H245455   6.656   1.857  11.788 -0.9332  0.0083 -0.3479
 8014TIP3   OH245456   3.349   6.707   0.212  0.3213  0.2316 -0.2385
 8014TIP3    H145457   3.359   6.720   0.118  0.2328  0.5685 -0.2031
 8014TIP3    H245458   3.436   6.725   0.248  1.0657 -2.3610 -0.4959
 8015TIP3   OH245459   4.944   5.616   2.332 -0.2263  0.2907 -0.1597
 8015TIP3    H145460   5.005   5.544   2.316 -0.1691  0.3224 -0.0828
 8015TIP3    H245461   4.861   5.574   2.352 -0.8796  0.2285 -2.6821
 8016TIP3   OH245462   2.898   0.064  13.753  0.1465 -0.2437 -0.3207
 8016TIP3    H145463   2.902   0.127  13.681  1.3724  0.6984  0.5330
 8016TIP3    H245464   2.975   0.084  13.806 -0.0071 -1.7994  0.5358
 8017TIP3   OH245465   2.224   4.047   0.551  0.2302 -0.1658  0.3449
 8017TIP3    H145466   2.161   4.086   0.490  1.5251  1.0450 -0.2881
 8017TIP3    H245467   2.309   4.076   0.518  1.1934 -2.4223  0.6976
 8018TIP3   OH245468   4.362   1.021   3.701  0.1617 -0.1915 -0.8499
 8018TIP3    H145469   4.447   1.064   3.717  0.8013 -0.8973 -2.1626
 8018TIP3    H245470   4.319   1.021   3.786  2.1017 -1.1015  0.2129
 8019TIP3   OH245471   3.185   4.157   1.226 -0.1229 -0.2320 -0.6553
 8019TIP3    H145472   3.134   4.076   1.221  0.5523 -0.6184 -1.5134
 8019TIP3    H245473   3.148   4.213   1.158  0.1404 -0.2505 -0.8152
 8020TIP3   OH245474   2.629   1.772  15.406  0.2808  0.0292  0.0737
 8020TIP3    H145475   2.680   1.847  15.376 -0.9315  1.0032  0.3756
 8020TIP3    H245476   2.538   1.797  15.391 -0.2498 -0.5376  2.0688
 8021TIP3   OH245477   0.637   6.473   3.338  0.4959 -0.5366 -0.0355
 8021TIP3    H145478   0.613   6.382   3.321  0.7753 -0.3576 -1.5409
 8021TIP3    H245479   0.554   6.519   3.344  0.3544 -0.5292 -1.5886
 8022TIP3   OH245480   0.528   6.639   0.664  0.4705  0.0872  0.1627
 8022TIP3    H145481   0.598   6.679   0.716 -0.4659  0.6257  1.0230
 8022TIP3    H245482   0.450   6.691   0.683 -0.4523 -1.2651  0.1858
 8023TIP3   OH245483   1.927   6.575  15.745 -0.1077 -0.0055 -0.4092
 8023TIP3    H145484   1.954   6.487  15.719  1.4878 -0.3426  2.0738
 8023TIP3    H245485   1.922   6.572  15.840  0.5271  2.7315 -0.2063
 8024TIP3   OH245486   6.570   0.697  15.120 -0.2140 -0.1820  0.4741
 8024TIP3    H145487   6.488   0.652  15.100 -0.3930 -0.1390  1.0631
 8024TIP3    H245488   6.542   0.783  15.154  0.1663  1.4523 -2.9858
 8025TIP3   OH245489   4.693   6.130  11.220  0.4613  0.0256  0.4112
 8025TIP3    H145490   4.689   6.119  11.125 -1.4610 -0.1756  0.4889
 8025TIP3    H245491   4.644   6.209  11.238  1.2192  0.3287  1.2220
 8026TIP3   OH245492   5.682   5.880   5.671 -0.3355 -0.2327  0.0660
 8026TIP3    H145493   5.674   5.794   5.713  2.3557 -0.5213  0.1096
 8026TIP3    H245494   5.769   5.911   5.695 -1.1873  2.5026 -0.0362
 8027TIP3   OH245495   2.829   4.314   4.402  0.2955  0.3396  0.0425
 8027TIP3    H145496   2.772   4.238   4.406  0.2167  0.3127 -1.1746
 8027TIP3    H245497   2.844   4.338   4.494 -0.9281 -0.1966  0.4041
 8028TIP3   OH245498   2.661   1.749   0.411  0.3486  0.2751  0.2955
 8028TIP3    H145499   2.741   1.801   0.413  0.1116  0.8224 -2.1641
 8028TIP3    H245500   2.599   1.801   0.360 -0.8928 -1.0700  0.3569
 8029TIP3   OH245501   5.352   2.492   5.072 -0.0323 -0.6204  0.9366
 8029TIP3    H145502   5.387   2.496   5.162 -0.3814  1.5226  1.0165
 8029TIP3    H245503   5.420   2.446   5.023  0.8525 -0.5119  2.0025
 8030TIP3   OH245504   0.763   0.334  15.467 -0.2198 -0.0288  0.1454
 8030TIP3    H145505   0.746   0.410  15.411 -1.2555 -0.3076  0.0595
 8030TIP3    H245506   0.684   0.281  15.461  0.7433 -1.4961 -0.3806
 8031TIP3   OH245507   5.946   5.672   5.111 -0.4509 -0.1506 -0.5745
 8031TIP3    H145508   5.922   5.694   5.201 -1.9207  0.2216 -1.0233
 8031TIP3    H245509   6.018   5.732   5.090  0.2363 -0.5667  0.4874
 8032TIP3   OH245510   3.436   5.289  12.686  0.0479 -0.1099 -0.7814
 8032TIP3    H145511   3.468   5.208  12.726  2.2247  0.3162 -1.4953
 8032TIP3    H245512   3.388   5.333  12.756  0.8573 -0.9483  0.3473
 8033TIP3   OH245513   5.191   1.780  10.959 -0.0119 -0.0170  0.5072
 8033TIP3    H145514   5.247   1.752  11.031 -0.4631 -1.4965  0.3374
 8033TIP3    H245515   5.129   1.840  10.998  1.4668  1.4094  0.7604
 8034TIP3   OH245516   2.650   2.740  14.992 -0.3833 -0.2478  0.2242
 8034TIP3    H145517   2.642   2.801  15.065  2.2886  0.8330 -0.2550
 8034TIP3    H245518   2.627   2.792  14.915 -0.1577 -0.4528  0.0162
 8035TIP3   OH245519   1.702   5.577   0.177 -0.0910 -0.0537  0.5257
 8035TIP3    H145520   1.773   5.588   0.113 -1.0304  1.7407 -0.2865
 8035TIP3    H245521   1.738   5.516   0.241  1.2160 -1.2662 -1.2405
 8036TIP3   OH245522   3.182   0.933  15.758  0.1253  0.3342 -0.4239
 8036TIP3    H145523   3.211   0.859  15.812 -2.1903  0.5106  1.2191
 8036TIP3    H245524   3.155   0.893  15.675  3.9691  0.0828 -1.7649
 8037TIP3   OH245525   5.776   0.823   4.990  0.1722 -0.5270  0.3922
 8037TIP3    H145526   5.769   0.896   5.051  0.0552 -0.4928  0.3376
 8037TIP3    H245527   5.754   0.746   5.042 -3.4726 -0.1807 -0.3930
 8038TIP3   OH245528   5.225   6.570   4.561 -0.1516  0.8455 -0.2401
 8038TIP3    H145529   5.242   6.631   4.632 -0.8178  1.7703 -0.8618
 8038TIP3    H245530   5.169   6.502   4.601  0.1823  0.9003  0.3259
 8039TIP3   OH245531   4.818   2.947   3.328 -1.1853 -0.7056  0.1720
 8039TIP3    H145532   4.825   3.042   3.334  1.4398 -0.8523  0.6680
 8039TIP3    H245533   4.826   2.928   3.235  1.4821 -0.5111  0.2735
 8040TIP3   OH245534   0.985   2.359   0.389 -0.2891  0.7448  0.0774
 8040TIP3    H145535   1.073   2.323   0.380 -0.2893  0.8501 -0.3790
 8040TIP3    H245536   0.938   2.296   0.444 -0.3946 -0.1398 -1.0002
 8041TIP3   OH245537   3.163   3.306  15.771 -0.2840  0.1704 -0.2153
 8041TIP3    H145538   3.069   3.294  15.759  0.0979 -0.9102 -2.8071
 8041TIP3    H245539   3.179   3.398  15.748 -0.7317  0.4875  0.6935
 8042TIP3   OH245540   3.948   3.858  15.328 -0.5164 -0.4548 -0.2739
 8042TIP3    H145541   3.863   3.814  15.328 -0.4808 -0.6084 -1.9064
 8042TIP3    H245542   3.938   3.929  15.264 -0.1284  1.0354  1.2631
 8043TIP3   OH245543   6.471   0.577  17.169  0.3853  0.0098  0.4147
 8043TIP3    H145544   6.390   0.626  17.180  0.2030 -0.1895 -0.0199
 8043TIP3    H245545   6.444   0.486  17.163  0.5649 -0.0050 -0.4093
 8044TIP3   OH245546   4.280   0.747  16.039 -0.3380  0.1577  0.6950
 8044TIP3    H145547   4.323   0.817  15.991 -0.0274 -0.8524 -0.5472
 8044TIP3    H245548   4.323   0.747  16.125  1.3535 -0.0723 -0.1205
 8045TIP3   OH245549   5.425   0.459  13.819 -0.2871 -0.8462 -0.1510
 8045TIP3    H145550   5.385   0.541  13.790  1.8965  0.6339  0.7260
 8045TIP3    H245551   5.505   0.452  13.767  0.6107 -1.2885  1.2283
 8046TIP3   OH245552   2.616   4.199   5.074 -0.0751  0.3468  0.4127
 8046TIP3    H145553   2.616   4.139   5.148 -0.4988  0.3726  0.4365
 8046TIP3    H245554   2.649   4.147   5.001  1.8472  0.7452  0.9464
 8047TIP3   OH245555   1.076   5.259  13.099  0.2906  0.7998 -0.0738
 8047TIP3    H145556   1.009   5.256  13.168  1.1617 -0.7572  0.7415
 8047TIP3    H245557   1.033   5.223  13.022  0.8102 -2.5014  1.0569
 8048TIP3   OH245558   0.851   0.538   0.374 -0.0205 -0.2578 -0.1652
 8048TIP3    H145559   0.779   0.599   0.388 -0.0551 -0.3128 -0.1064
 8048TIP3    H245560   0.833   0.465   0.433 -0.9756 -1.1937 -1.5681
 8049TIP3   OH245561   6.570   0.985  16.696  0.2017 -0.0841 -0.3747
 8049TIP3    H145562   6.489   1.024  16.663  0.0010  0.3464  0.5738
 8049TIP3    H245563   6.573   0.898  16.656 -1.7313 -0.8757  0.9873
 8050TIP3   OH245564   4.422   2.436  13.161  0.5901 -0.1626 -0.3660
 8050TIP3    H145565   4.479   2.451  13.086  1.1147  2.2190  0.4382
 8050TIP3    H245566   4.469   2.474  13.235 -0.6019 -1.0829  0.9040
 8051TIP3   OH245567   5.233   0.601   3.983  0.1386  0.4834 -0.5066
 8051TIP3    H145568   5.324   0.589   4.013 -0.9649 -1.7289  2.4560
 8051TIP3    H245569   5.222   0.535   3.915  0.2207 -0.7105  0.5965
 8052TIP3   OH245570   3.844   3.189  16.312 -0.0728  0.7368  0.4905
 8052TIP3    H145571   3.933   3.169  16.283 -0.4439 -0.8472  0.3296
 8052TIP3    H245572   3.809   3.247  16.244  0.4982  0.5265  0.0121
 8053TIP3   OH245573   3.003   4.158   3.621 -0.8247  0.2174 -0.3947
 8053TIP3    H145574   3.023   4.076   3.666  1.4004  0.4890 -0.7802
 8053TIP3    H245575   2.964   4.214   3.689  1.4214  0.2226  0.9830
 8054TIP3   OH245576   2.843   5.918  14.641  0.4366  0.3341 -0.2325
 8054TIP3    H145577   2.789   5.954  14.711  0.4167 -0.7993  0.3567
 8054TIP3    H245578   2.830   5.823  14.646  0.9091  0.1862 -1.3805
 8055TIP3   OH245579   6.272   2.930  15.229  0.0007  0.3063  0.2187
 8055TIP3    H145580   6.182   2.930  15.262 -0.0408  0.5336  0.1052
 8055TIP3    H245581   6.282   2.845  15.186 -0.7792  1.0274 -1.4582
 8056TIP3   OH245582   2.749   1.056   1.382 -0.6147 -0.2668  0.2056
 8056TIP3    H145583   2.743   1.107   1.302  0.8554  0.0748  0.2729
 8056TIP3    H245584   2.783   0.971   1.354  0.0399 -0.0982  0.4656
 8057TIP3   OH245585   4.022   1.359  12.239  0.8301 -0.3613 -0.0099
 8057TIP3    H145586   4.079   1.382  12.312  1.3299  0.5026 -0.6571
 8057TIP3    H245587   3.940   1.330  12.281  0.3840  1.9849  0.9065
 8058TIP3   OH245588   4.692   4.263   2.163 -0.0730 -0.4373  0.6921
 8058TIP3    H145589   4.781   4.229   2.151  0.1836 -0.4761  2.3649
 8058TIP3    H245590   4.704   4.357   2.177 -0.6509  0.2064 -2.4009
 8059TIP3   OH245591   1.935   3.026   3.094 -0.2449 -0.1482 -0.2209
 8059TIP3    H145592   1.923   2.982   3.010 -1.7715 -1.5691  0.6851
 8059TIP3    H245593   1.973   3.111   3.071 -0.3421 -0.6066 -2.3074
 8060TIP3   OH245594   6.117   0.946  17.147 -0.5138  0.3068 -0.3863
 8060TIP3    H145595   6.171   1.022  17.169  0.6482 -0.6709  0.3281
 8060TIP3    H245596   6.028   0.979  17.146 -0.3749  1.1315  2.8671
 8061TIP3   OH245597   1.893   6.234  14.477 -0.1295  0.1245  0.3965
 8061TIP3    H145598   1.989   6.232  14.483  0.0572 -0.5763 -1.7996
 8061TIP3    H245599   1.869   6.320  14.512  1.0602 -0.4735  2.9072
 8062TIP3   OH245600   4.994   3.285  15.503 -0.1544 -0.4204 -0.4062
 8062TIP3    H145601   4.973   3.274  15.595 -3.6202  1.5348 -0.7718
 8062TIP3    H245602   5.072   3.340  15.502  0.5030 -1.2717  1.3016
 8063TIP3   OH245603   0.315   5.868  16.222 -0.1534  0.0778  0.1052
 8063TIP3    H145604   0.244   5.876  16.159 -1.1330  1.0160  1.2841
 8063TIP3    H245605   0.331   5.957  16.252  2.5325  0.1254 -1.1497
 8064TIP3   OH245606   6.006   4.075   1.073 -0.3476  0.1436 -0.3981
 8064TIP3    H145607   5.981   4.038   0.988 -0.0437  0.8940 -0.8263
 8064TIP3    H245608   6.065   4.010   1.110  1.1134  0.6766 -1.6594
 8065TIP3   OH245609   1.802   3.640  12.406  0.3416 -0.5633  0.3788
 8065TIP3    H145610   1.736   3.588  12.359  0.4484 -0.2716 -0.1052
 8065TIP3    H245611   1.753   3.687  12.473  0.3607 -1.9518  1.4108
 8066TIP3   OH245612   4.857   4.778   5.114 -1.0516  0.3646 -0.2393
 8066TIP3    H145613   4.777   4.733   5.089  0.0137 -2.0108  0.3444
 8066TIP3    H245614   4.883   4.827   5.036 -2.8759  0.9419 -0.5208
 8067TIP3   OH245615   6.386   3.037   5.785 -0.8873 -0.7081 -0.4310
 8067TIP3    H145616   6.315   3.035   5.848 -0.8922 -1.2303 -0.4463
 8067TIP3    H245617   6.449   2.973   5.817 -0.3028 -0.0749 -0.2856
 8068TIP3   OH245618   5.735   0.470   0.324  0.2642 -0.2405  0.3259
 8068TIP3    H145619   5.796   0.481   0.397  0.3046 -1.4012  0.4864
 8068TIP3    H245620   5.657   0.432   0.364  0.8966 -2.4911 -0.4493
 8069TIP3   OH245621   1.447   0.029   0.786 -0.4818 -0.1657 -0.0510
 8069TIP3    H145622   1.487   0.035   0.699 -2.7704 -0.8904 -1.2500
 8069TIP3    H245623   1.361   0.070   0.776 -0.8721 -0.4380  1.8305
 8070TIP3   OH245624   1.269   1.954   1.996 -0.1390  0.0196 -0.0524
 8070TIP3    H145625   1.192   2.010   1.981 -1.3535 -0.5364  3.3019
 8070TIP3    H245626   1.232   1.867   2.008  1.4935 -1.1086 -2.4823
 8071TIP3   OH245627   5.166   4.570  16.331 -0.4569 -0.5540  0.5203
 8071TIP3    H145628   5.197   4.488  16.291 -2.0926 -0.4858 -1.0122
 8071TIP3    H245629   5.153   4.629  16.257 -0.1877  0.8177  1.5294
 8072TIP3   OH245630   3.016   3.252   1.265 -0.3036 -0.2165  0.4088
 8072TIP3    H145631   3.033   3.209   1.181 -0.8632 -1.5408  0.9481
 8072TIP3    H245632   3.099   3.294   1.288  0.6165 -1.9351  0.3742
 8073TIP3   OH245633   2.268   3.725   2.374  0.0092 -0.6950  0.1183
 8073TIP3    H145634   2.264   3.629   2.376 -1.1721 -0.8218 -2.6035
 8073TIP3    H245635   2.358   3.745   2.351  0.4425 -1.0867  1.3995
 8074TIP3   OH245636   5.181   0.853   5.378  0.3000 -0.0820 -0.9578
 8074TIP3    H145637   5.220   0.928   5.333 -0.7692  0.9128 -0.2947
 8074TIP3    H245638   5.197   0.869   5.471  0.6193 -1.0113 -0.8464
 8075TIP3   OH245639   0.249   4.828  15.219  0.2799  0.4692  0.3307
 8075TIP3    H145640   0.234   4.923  15.225 -0.1500  0.4464 -0.3029
 8075TIP3    H245641   0.344   4.820  15.210  0.5625  0.7143  2.5084
 8076TIP3   OH245642   1.876   4.918   4.584  0.2815  0.1152 -0.0962
 8076TIP3    H145643   1.833   4.833   4.571  0.6301 -0.2966  1.3134
 8076TIP3    H245644   1.951   4.899   4.641  1.1780  1.1524 -0.8871
 8077TIP3   OH245645   5.060   1.350   2.513  0.5798 -0.1274 -0.8300
 8077TIP3    H145646   5.013   1.269   2.535 -1.3548  1.4801  1.4869
 8077TIP3    H245647   5.074   1.344   2.419 -1.4857 -2.1618 -1.1059
 8078TIP3   OH245648   5.646   4.495  16.398 -0.4068  0.4404 -0.1528
 8078TIP3    H145649   5.585   4.444  16.345 -0.0958 -0.6180  0.4706
 8078TIP3    H245650   5.611   4.489  16.487  0.7176 -0.3858  0.2517
 8079TIP3   OH245651   3.695   2.740   4.739  0.3416  0.5650  0.3852
 8079TIP3    H145652   3.724   2.823   4.776  0.6904  1.5232 -1.8774
 8079TIP3    H245653   3.774   2.701   4.702  0.0832 -0.5432  0.9435
 8080TIP3   OH245654   4.594   1.111  10.957  0.6941 -0.3163  0.0976
 8080TIP3    H145655   4.630   1.032  10.915 -1.3412 -0.5630 -1.3428
 8080TIP3    H245656   4.600   1.178  10.889  0.7822  0.3073  0.7165
 8081TIP3   OH245657   0.860   6.692   4.941  0.0481 -0.3553 -0.3767
 8081TIP3    H145658   0.770   6.720   4.952 -0.4202 -2.4465  2.0007
 8081TIP3    H245659   0.911   6.756   4.991 -0.2962 -0.2038 -0.2171
 8082TIP3   OH245660   5.346   3.968  14.233  0.0040  0.0970 -0.0569
 8082TIP3    H145661   5.393   3.949  14.314  1.3587 -1.9741 -1.2420
 8082TIP3    H245662   5.413   3.997  14.172 -0.6988 -0.2206 -1.0048
 8083TIP3   OH245663   2.988   2.330  13.493 -0.0313 -0.3670  0.0786
 8083TIP3    H145664   2.977   2.406  13.435  0.5128 -0.2521  0.1262
 8083TIP3    H245665   3.055   2.277  13.452 -0.4828 -0.8854 -0.0058
 8084TIP3   OH245666   0.342   2.808   0.213  0.2134  0.1878 -0.0361
 8084TIP3    H145667   0.424   2.831   0.256  0.3459 -1.2487  0.5583
 8084TIP3    H245668   0.313   2.729   0.259 -1.8628  1.0461  0.2172
 8085TIP3   OH245669   3.428   5.420   3.163 -0.1144  0.1629 -0.0448
 8085TIP3    H145670   3.375   5.499   3.156 -0.4483 -0.0430  0.1107
 8085TIP3    H245671   3.397   5.363   3.093 -1.0632 -0.5042  0.8663
 8086TIP3   OH245672   5.459   4.735  15.372 -0.4215  0.2888  0.6895
 8086TIP3    H145673   5.537   4.751  15.320 -1.1452  0.2283 -0.4366
 8086TIP3    H245674   5.462   4.800  15.442  1.6169 -0.9157  1.8251
 8087TIP3   OH245675   1.993   2.609  15.905 -0.0124  0.7493 -0.1317
 8087TIP3    H145676   1.958   2.680  15.958 -0.8946  2.1477 -2.4723
 8087TIP3    H245677   2.087   2.611  15.923  0.1966  3.4068 -1.0743
 8088TIP3   OH245678   5.176   4.075   3.898  0.1047 -0.3557 -0.2440
 8088TIP3    H145679   5.137   4.032   3.974 -0.0010  0.7799  0.3669
 8088TIP3    H245680   5.118   4.148   3.879  1.1632  0.5269 -0.1920
 8089TIP3   OH245681   5.083   0.985   3.668 -0.5517  0.2864 -0.1003
 8089TIP3    H145682   5.088   0.910   3.608  0.2379 -0.5366  0.9473
 8089TIP3    H245683   5.174   1.012   3.681 -0.7935  1.1333 -0.0944
 8090TIP3   OH245684   4.899   6.442   1.639 -0.3799  0.1244  0.1002
 8090TIP3    H145685   4.806   6.437   1.621 -0.3959  1.2621 -0.1908
 8090TIP3    H245686   4.922   6.354   1.670 -1.6140 -0.0694  0.5319
 8091TIP3   OH245687   0.900   0.738  11.131  0.8086  0.4808  0.6842
 8091TIP3    H145688   0.820   0.735  11.079  1.6672 -0.6201 -0.6613
 8091TIP3    H245689   0.933   0.827  11.119  0.5684  0.4834 -0.0150
 8092TIP3   OH245690   3.052   6.607  13.269  0.2233  0.0103 -0.8144
 8092TIP3    H145691   3.000   6.653  13.203 -0.1915  0.9762  0.1425
 8092TIP3    H245692   3.103   6.676  13.311 -1.3604 -0.1367  1.5308
 8093TIP3   OH245693   0.531   0.272   4.604 -0.0286 -0.0635 -0.4242
 8093TIP3    H145694   0.479   0.347   4.632  0.2015 -0.3083  0.7137
 8093TIP3    H245695   0.575   0.301   4.524 -0.2526  0.8739 -0.2184
 8094TIP3   OH245696   5.751   4.211  13.369  0.0100 -1.2352 -0.3349
 8094TIP3    H145697   5.708   4.188  13.452  0.7504 -3.2730 -0.4581
 8094TIP3    H245698   5.680   4.212  13.305 -0.5745  0.3689  0.2663
 8095TIP3   OH245699   3.856   4.231   4.522 -0.3563  0.3903  0.2752
 8095TIP3    H145700   3.880   4.184   4.442 -0.7716  0.8434 -0.1163
 8095TIP3    H245701   3.805   4.306   4.492 -0.0822  0.8482  0.9303
 8096TIP3   OH245702   0.076   2.851  17.131 -0.2799 -0.2393  0.0561
 8096TIP3    H145703   0.071   2.800  17.212 -0.4466 -1.6717 -0.8307
 8096TIP3    H245704   0.101   2.788  17.064 -1.6638  0.6084 -1.3101
 8097TIP3   OH245705   0.956   2.898  12.446 -0.4086 -0.6201 -0.0822
 8097TIP3    H145706   0.954   2.890  12.351  0.4349 -0.9827 -0.0810
 8097TIP3    H245707   0.963   2.808  12.477 -1.7545 -0.5900  0.3752
 8098TIP3   OH245708   2.724   3.855   2.699 -0.2643 -0.1562  0.3139
 8098TIP3    H145709   2.801   3.892   2.742 -0.0510  1.4781 -1.3389
 8098TIP3    H245710   2.650   3.882   2.754  0.2753 -2.1482  2.1824
 8099TIP3   OH245711   6.279   2.440   1.811 -0.3173 -0.1664 -0.1908
 8099TIP3    H145712   6.261   2.350   1.837  0.1828  0.2290  1.7140
 8099TIP3    H245713   6.351   2.433   1.748  1.0420 -1.0340  1.3704
 8100TIP3   OH245714   5.214   3.768   1.749 -0.2933  0.6285  0.1870
 8100TIP3    H145715   5.233   3.852   1.708 -0.3127  0.3414 -0.4169
 8100TIP3    H245716   5.235   3.703   1.682 -1.9671  0.2286  0.0060
 8101TIP3   OH245717   3.848   3.094  10.453  0.5384  0.0870  0.4193
 8101TIP3    H145718   3.792   3.027  10.412  2.9359 -0.9627 -1.3809
 8101TIP3    H245719   3.805   3.177  10.433 -1.0457 -0.7299  0.2697
 8102TIP3   OH245720   0.672   0.804   3.918 -0.6030  0.3437 -0.0304
 8102TIP3    H145721   0.663   0.857   3.997 -1.3983 -0.0273  0.1399
 8102TIP3    H245722   0.699   0.717   3.950 -2.7555 -0.3562  0.0436
 8103TIP3   OH245723   0.709   6.696  13.351 -0.2410 -0.3227 -0.0556
 8103TIP3    H145724   0.639   6.755  13.378 -0.9301 -1.8333  1.6312
 8103TIP3    H245725   0.789   6.737  13.385 -0.3096  1.1077 -1.4888
 8104TIP3   OH245726   3.288   1.050   1.081 -0.5608  0.2217 -0.3472
 8104TIP3    H145727   3.278   1.041   0.987  2.0809  0.2543 -0.7170
 8104TIP3    H245728   3.341   1.128   1.093  1.2938 -1.1365  0.9456
 8105TIP3   OH245729   4.269   4.291   3.952  0.3258  0.3472 -0.1483
 8105TIP3    H145730   4.278   4.385   3.968  2.8994  0.0547  0.5285
 8105TIP3    H245731   4.218   4.285   3.871 -0.2500  2.2953  0.0295
 8106TIP3   OH245732   4.649   1.078  15.367  0.0141 -0.1888 -0.4900
 8106TIP3    H145733   4.670   1.062  15.459 -1.2386  1.7233  0.1973
 8106TIP3    H245734   4.731   1.062  15.320  0.9506 -0.2424  1.0934
 8107TIP3   OH245735   0.918   4.862  16.423 -0.4705  0.0337 -0.5538
 8107TIP3    H145736   0.999   4.896  16.385  0.0683  0.3231  0.7967
 8107TIP3    H245737   0.893   4.790  16.365  0.6976 -0.0063 -1.0367
 8108TIP3   OH245738   0.569   4.000  11.570 -0.2264  0.3277  0.3639
 8108TIP3    H145739   0.593   4.064  11.637 -2.3366 -0.8436  2.3900
 8108TIP3    H245740   0.475   4.013  11.558 -0.3908 -1.3009 -0.3710
 8109TIP3   OH245741   1.437   0.438  11.667  0.0413 -0.2714  0.2817
 8109TIP3    H145742   1.452   0.395  11.583  0.0843  2.0626 -0.9828
 8109TIP3    H245743   1.343   0.428  11.683  0.1206 -1.1750  0.2427
 8110TIP3   OH245744   4.755   2.317  16.600 -0.1155 -0.7125 -0.0964
 8110TIP3    H145745   4.780   2.337  16.510  0.6019 -2.2336 -0.2715
 8110TIP3    H245746   4.785   2.392  16.652 -1.6091  0.7573 -1.2420
 8111TIP3   OH245747   1.214   3.759   0.062 -0.2071 -0.0311 -0.2800
 8111TIP3    H145748   1.224   3.843   0.107  0.8281 -0.5474  0.5056
 8111TIP3    H245749   1.131   3.725   0.095 -1.0901  1.0585 -1.2850
 8112TIP3   OH245750   1.048   4.567  10.870 -0.6903 -0.1696  0.4046
 8112TIP3    H145751   1.112   4.497  10.858 -1.3940 -0.8244  0.4134
 8112TIP3    H245752   1.052   4.617  10.788  2.1107  1.7762  1.5348
 8113TIP3   OH245753   0.946   3.857   4.795 -0.3838  0.6429 -0.4750
 8113TIP3    H145754   0.997   3.792   4.747  0.9662  1.9353 -0.8701
 8113TIP3    H245755   0.940   3.932   4.735 -0.2837  1.5929  0.6629
 8114TIP3   OH245756   4.514   1.895   1.806  0.0614 -0.2721 -0.3081
 8114TIP3    H145757   4.491   1.943   1.885  1.9983  2.1257 -1.0477
 8114TIP3    H245758   4.453   1.928   1.739  0.2265 -0.1730 -0.4122
 8115TIP3   OH245759   4.110   4.625   6.464 -0.0037  0.2962 -0.5362
 8115TIP3    H145760   4.028   4.599   6.423  0.1937  0.0677 -0.7842
 8115TIP3    H245761   4.083   4.679   6.539 -0.3760  0.2661 -0.6479
 8116TIP3   OH245762   0.788   4.895   5.287  0.1278 -0.3106  0.5445
 8116TIP3    H145763   0.842   4.831   5.241  0.9489  0.8399 -0.1212
 8116TIP3    H245764   0.845   4.971   5.300 -1.6525  1.4933 -1.3861
 8117TIP3   OH245765   3.865   2.971  14.759  0.3358  0.7005  0.1889
 8117TIP3    H145766   3.894   3.052  14.716  2.4528 -0.3129 -0.4184
 8117TIP3    H245767   3.945   2.928  14.787 -0.6424 -1.6870 -0.3998
 8118TIP3   OH245768   3.698   0.247   4.111  0.0906  0.2468 -0.1304
 8118TIP3    H145769   3.637   0.294   4.168 -1.5080 -1.0306 -0.6959
 8118TIP3    H245770   3.704   0.302   4.033  2.9616  2.4451  1.4291
 8119TIP3   OH245771   6.586   4.110  12.629 -0.5225  0.1087  0.0513
 8119TIP3    H145772   6.666   4.058  12.623 -0.6249 -0.1403  0.7149
 8119TIP3    H245773   6.614   4.194  12.665 -0.5698 -0.0158  0.3846
 8120TIP3   OH245774   2.316   0.120  12.914 -0.4613  0.4884 -0.3081
 8120TIP3    H145775   2.406   0.117  12.882  0.4724 -0.7414  2.1474
 8120TIP3    H245776   2.275   0.191  12.865  1.3438  0.0282 -2.6488
 8121TIP3   OH245777   6.512   3.220  10.776  0.2443  0.0306  0.0588
 8121TIP3    H145778   6.603   3.231  10.806 -0.4938 -0.6785  2.8352
 8121TIP3    H245779   6.460   3.273  10.836 -1.3896 -1.6406  0.2161
 8122TIP3   OH245780   2.912   2.196   3.985 -0.4037  0.3089 -0.1337
 8122TIP3    H145781   2.937   2.149   3.905 -1.8655  0.4448 -0.6964
 8122TIP3    H245782   2.864   2.132   4.036 -1.8916  0.9849 -0.6379
 8123TIP3   OH245783   6.494   1.828   0.373  0.0454 -0.4454 -0.5349
 8123TIP3    H145784   6.490   1.917   0.407 -0.5805 -0.6062 -0.1803
 8123TIP3    H245785   6.579   1.795   0.401 -0.3928 -0.5232  0.7523
 8124TIP3   OH245786   0.164   1.767  12.514 -0.5844 -0.4518  0.3554
 8124TIP3    H145787   0.215   1.750  12.593  0.4865  1.4344  0.1543
 8124TIP3    H245788   0.076   1.785  12.546 -0.5566 -1.3099  0.9517
 8125TIP3   OH245789   6.085   6.224  11.940 -0.5726 -0.0863  0.2167
 8125TIP3    H145790   6.060   6.157  11.876  1.5326 -0.8479  0.0857
 8125TIP3    H245791   6.022   6.295  11.927 -0.6083 -0.4653 -2.2966
 8126TIP3   OH245792   6.401   4.935  12.946 -0.0279 -0.2162  0.1822
 8126TIP3    H145793   6.392   4.902  12.856 -0.6682 -0.4451  0.3194
 8126TIP3    H245794   6.457   4.870  12.989 -0.0523 -0.3253  0.0523
 8127TIP3   OH245795   5.813   4.351  12.910 -0.4558  0.2699  0.2361
 8127TIP3    H145796   5.819   4.439  12.873  1.3663  0.9971  2.0569
 8127TIP3    H245797   5.829   4.363  13.003 -2.3446 -1.7780  0.9086
 8128TIP3   OH245798   6.626   0.697   4.075  0.5419  0.4881  0.1912
 8128TIP3    H145799   6.677   0.752   4.134 -1.9074  4.9657 -1.3725
 8128TIP3    H245800   6.558   0.659   4.130  1.8630 -0.5468  1.1895
 8129TIP3   OH245801   4.446   6.513   4.733 -0.0145 -0.5728  0.6368
 8129TIP3    H145802   4.363   6.561   4.727  0.0974 -0.4886 -0.4361
 8129TIP3    H245803   4.421   6.425   4.762 -0.6050 -0.8299 -0.5793
 8130TIP3   OH245804   1.975   3.038  12.823  1.3410  0.3156 -0.0558
 8130TIP3    H145805   1.983   3.133  12.812  1.6507  0.3979  0.8178
 8130TIP3    H245806   1.913   3.012  12.755  0.7607  1.2396  0.0906
 8131TIP3   OH245807   0.199   4.237   5.379 -0.3877 -0.1915 -0.6302
 8131TIP3    H145808   0.188   4.177   5.453 -0.0255 -0.9383 -1.1742
 8131TIP3    H245809   0.262   4.193   5.322 -0.9886  0.1799 -1.5945
 8132TIP3   OH245810   1.908   2.753   3.293 -0.6404 -0.1565  0.1856
 8132TIP3    H145811   1.947   2.837   3.266  1.2269 -1.1802 -0.4910
 8132TIP3    H245812   1.823   2.751   3.248 -1.5154  2.0759  1.5545
 8133TIP3   OH245813   2.298   6.778   4.317  0.6535  0.2363  0.0279
 8133TIP3    H145814   2.224   6.728   4.352  0.8351 -0.1388 -0.1336
 8133TIP3    H245815   2.260   6.827   4.243  0.6094 -0.0961 -0.1694
 8134TIP3   OH245816   3.957   6.141   0.039  0.4598  0.7904  0.0090
 8134TIP3    H145817   3.955   6.047   0.022  2.1677  0.9861 -1.5479
 8134TIP3    H245818   4.050   6.163   0.044  0.1668  1.8968  3.6582
 8135TIP3   OH245819   6.674   3.484  13.331  0.6849 -0.4920  0.0273
 8135TIP3    H145820   6.644   3.441  13.251 -0.2538 -1.3568  0.8182
 8135TIP3    H245821   6.595   3.522  13.369  0.7210 -1.9096  1.6132
 8136TIP3   OH245822   0.432   1.061  12.709 -0.0445 -0.1058  0.5771
 8136TIP3    H145823   0.443   1.154  12.688  0.1165 -0.3286 -0.3476
 8136TIP3    H245824   0.520   1.030  12.727 -0.1240 -0.0341  1.1028
 8137TIP3   OH245825   0.635   1.811   3.882  0.0775  0.3205 -0.0716
 8137TIP3    H145826   0.558   1.772   3.922  0.9901 -1.3208  0.1985
 8137TIP3    H245827   0.648   1.760   3.802  1.3941 -0.0597  0.3590
 8138TIP3   OH245828   1.947   1.594   0.713  0.2971  0.2323  0.3590
 8138TIP3    H145829   1.891   1.525   0.677  0.6111  0.7673 -1.2764
 8138TIP3    H245830   1.887   1.667   0.731  0.0697 -0.2014  1.3914
 8139TIP3   OH245831   5.025   5.203   1.238  0.1205  0.1591  0.4239
 8139TIP3    H145832   5.035   5.285   1.287 -0.9308  1.2256 -1.0490
 8139TIP3    H245833   5.105   5.154   1.256  0.9705  1.6945  1.0087
 8140TIP3   OH245834   4.178   3.480  15.229 -0.7876 -0.0594  0.2754
 8140TIP3    H145835   4.214   3.393  15.247 -1.5592  0.0327  2.6607
 8140TIP3    H245836   4.146   3.476  15.139  1.4869 -1.3956 -0.5535
 8141TIP3   OH245837   5.607   6.602  12.774  0.4525  0.2225 -0.1315
 8141TIP3    H145838   5.536   6.589  12.710 -1.0213  2.3697  0.9488
 8141TIP3    H245839   5.561   6.612  12.858  2.1681  0.1590  0.8545
 8142TIP3   OH245840   4.661   4.473  13.163  0.3473 -0.2269 -0.5152
 8142TIP3    H145841   4.591   4.454  13.226 -0.2605  1.0388 -0.7743
 8142TIP3    H245842   4.701   4.388  13.145  0.6249 -0.6296  1.6708
 8143TIP3   OH245843   2.176   4.228  12.858  0.1993  0.5091  0.2364
 8143TIP3    H145844   2.263   4.263  12.841  0.7296 -0.6854  0.3494
 8143TIP3    H245845   2.175   4.213  12.953 -0.2007  0.7024  0.2616
 8144TIP3   OH245846   2.870   0.981   5.275 -0.0491  0.2839  0.2760
 8144TIP3    H145847   2.881   0.953   5.366  2.4210  0.2047  0.0214
 8144TIP3    H245848   2.780   0.959   5.254  0.1077 -2.2344  1.8711
 8145TIP3   OH245849   5.859   6.691  15.621  0.2393 -1.2419  0.2091
 8145TIP3    H145850   5.929   6.728  15.675  0.5711 -1.7737  0.1408
 8145TIP3    H245851   5.895   6.610  15.587 -0.4418 -1.5621  0.2443
 8146TIP3   OH245852   6.622   5.221  12.226  0.1248 -0.1340 -0.2083
 8146TIP3    H145853   6.698   5.279  12.222  0.1510 -0.2419 -2.5609
 8146TIP3    H245854   6.565   5.251  12.155 -0.4821 -2.1184 -0.6325
 8147TIP3   OH245855   2.065   2.046  17.004  0.5408 -0.6466  0.4464
 8147TIP3    H145856   2.057   1.979  16.936  2.2867 -1.8066  1.2868
 8147TIP3    H245857   2.033   2.002  17.083 -0.5371  0.3543  0.5965
 8148TIP3   OH245858   5.118   1.060  14.006 -1.2282  0.2423 -0.8176
 8148TIP3    H145859   5.076   0.977  13.983 -0.9442 -0.5471  1.3194
 8148TIP3    H245860   5.047   1.114  14.040 -1.1205  0.1993 -0.5183
 8149TIP3   OH245861   0.426   2.938   1.663  0.4517 -0.2508  0.2627
 8149TIP3    H145862   0.481   3.005   1.624  2.1766 -0.4304  2.2102
 8149TIP3    H245863   0.426   2.866   1.600  0.3016  0.7374 -0.8952
 8150TIP3   OH245864   3.448   2.820  14.676  0.1671 -0.0882 -0.2566
 8150TIP3    H145865   3.526   2.831  14.731  0.0119 -3.1472  0.7837
 8150TIP3    H245866   3.375   2.821  14.737 -0.4856  1.1610 -1.0330
 8151TIP3   OH245867   0.584   5.392   0.177  0.0515  0.1446 -0.0690
 8151TIP3    H145868   0.541   5.307   0.176  0.3154 -0.0124  0.9541
 8151TIP3    H245869   0.515   5.453   0.201  0.1859  0.0204  0.6390
 8152TIP3   OH245870   6.759   4.412   2.240 -0.4802  0.1422 -0.2387
 8152TIP3    H145871   6.843   4.406   2.193  0.2603  0.1018  1.0433
 8152TIP3    H245872   6.700   4.355   2.191  0.3466 -0.1262 -0.9478
 8153TIP3   OH245873   4.248   3.952  11.660 -0.1071 -0.5457 -0.4886
 8153TIP3    H145874   4.336   3.916  11.672 -0.5091 -0.7507  2.4432
 8153TIP3    H245875   4.262   4.040  11.627  1.2547 -0.2669  0.7514
 8154TIP3   OH245876   6.362   4.925  14.054  0.6913  0.1066 -0.0748
 8154TIP3    H145877   6.337   4.900  14.143  1.0639  0.3766  0.1113
 8154TIP3    H245878   6.382   5.018  14.060  3.9231 -0.4845  0.3391
 8155TIP3   OH245879   2.533   1.379  13.614  0.1402  0.3164 -0.0576
 8155TIP3    H145880   2.487   1.343  13.690 -0.4825 -0.0584 -0.6025
 8155TIP3    H245881   2.623   1.349  13.623 -0.1438 -0.5191  0.0342
 8156TIP3   OH245882   2.502   0.550   1.143  0.1667 -0.0549  0.0190
 8156TIP3    H145883   2.479   0.609   1.214 -1.4471 -1.9086  1.1353
 8156TIP3    H245884   2.591   0.520   1.163  0.0669  0.1421  0.7463
 8157TIP3   OH245885   6.333   1.226  15.929 -0.7447  0.2390  0.5348
 8157TIP3    H145886   6.347   1.135  15.954 -2.7244  0.1373  1.5159
 8157TIP3    H245887   6.356   1.276  16.007 -1.7392  0.3712  0.7618
 8158TIP3   OH245888   4.361   1.391  12.121  0.3859  0.0861 -0.5794
 8158TIP3    H145889   4.364   1.381  12.026 -1.7491  0.9884 -0.8046
 8158TIP3    H245890   4.362   1.486  12.135  1.1564 -0.0443  0.3549
 8159TIP3   OH245891   1.811   2.054  11.401  0.2757  0.0293  0.4031
 8159TIP3    H145892   1.882   2.118  11.410  0.2572 -0.0086  0.8570
 8159TIP3    H245893   1.735   2.107  11.376  0.1760  0.2419  1.1234
 8160TIP3   OH245894   4.305   5.073   6.309 -0.1043 -0.7264  0.3603
 8160TIP3    H145895   4.384   5.126   6.317 -0.5406 -0.0316  0.1483
 8160TIP3    H245896   4.314   5.005   6.376  1.3504 -1.5646 -0.6338
 8161TIP3   OH245897   0.306   2.054  14.103 -0.3258 -0.0263 -0.1865
 8161TIP3    H145898   0.255   2.122  14.145  0.3525  0.9483 -0.9070
 8161TIP3    H245899   0.279   2.056  14.012 -0.6401 -1.0580 -0.1346
 8162TIP3   OH245900   1.783   6.335  17.120  0.5903 -0.0787 -0.0655
 8162TIP3    H145901   1.750   6.404  17.061  1.1624  0.0997 -0.1797
 8162TIP3    H245902   1.707   6.313  17.174  0.5908  1.2155  0.5233
 8163TIP3   OH245903   6.311   5.387   0.224 -0.1342  0.1162 -0.3014
 8163TIP3    H145904   6.293   5.315   0.284  2.6614 -1.4581 -1.1605
 8163TIP3    H245905   6.228   5.404   0.180 -1.2526 -1.4740  1.0884
 8164TIP3   OH245906   0.816   2.903   4.385 -0.0656  0.4147 -0.1865
 8164TIP3    H145907   0.740   2.954   4.413  0.7434  1.6704 -0.1818
 8164TIP3    H245908   0.891   2.960   4.405  0.7805 -0.2146 -1.4765
 8165TIP3   OH245909   4.679   0.997  16.757  0.3489 -0.5407 -0.7329
 8165TIP3    H145910   4.690   1.081  16.713 -1.6280  0.1081 -0.0718
 8165TIP3    H245911   4.706   0.932  16.691 -1.5050  0.4588 -2.5962
 8166TIP3   OH245912   2.283   3.614   3.893 -1.0842  0.1012  0.1899
 8166TIP3    H145913   2.320   3.653   3.814 -2.5959  0.0507 -0.5876
 8166TIP3    H245914   2.347   3.549   3.921 -0.3470  0.4070 -0.7719
 8167TIP3   OH245915   3.486   3.866   1.727  0.9631 -0.1207 -0.3780
 8167TIP3    H145916   3.436   3.785   1.735 -1.3175  1.3177  1.0273
 8167TIP3    H245917   3.532   3.874   1.811  0.8247  0.2726 -0.3402
 8168TIP3   OH245918   6.278   3.843  13.279 -0.4610  0.0195 -0.0784
 8168TIP3    H145919   6.264   3.810  13.367  1.1638  2.0370  1.0266
 8168TIP3    H245920   6.339   3.780  13.239  0.1662  0.0014  0.8709
 8169TIP3   OH245921   3.760   3.399   1.687 -0.0028  1.0353  0.4481
 8169TIP3    H145922   3.677   3.426   1.727  0.3857  1.7201  0.8042
 8169TIP3    H245923   3.734   3.361   1.603 -0.6244  1.9178  0.2266
 8170TIP3   OH245924   1.344   3.754   3.255  0.2005  0.6691 -0.1817
 8170TIP3    H145925   1.435   3.785   3.256  0.5256 -0.0576 -2.0022
 8170TIP3    H245926   1.339   3.691   3.327  1.0278  1.0065  0.1817
 8171TIP3   OH245927   1.013   3.879   1.169 -0.3519 -0.1148 -0.0627
 8171TIP3    H145928   1.088   3.852   1.116 -0.8174 -0.0313 -0.7706
 8171TIP3    H245929   0.937   3.848   1.121 -0.7875  0.0329  0.5186
 8172TIP3   OH245930   1.809   6.172  16.590 -0.2046  0.4936 -0.0465
 8172TIP3    H145931   1.743   6.236  16.618  0.5205  0.7226  1.2090
 8172TIP3    H245932   1.818   6.113  16.665  1.1239  0.5696 -0.1300
 8173TIP3   OH245933   4.670   3.921  16.831 -0.2898  0.3655  0.5377
 8173TIP3    H145934   4.698   3.965  16.751  0.2784  1.3901  1.2701
 8173TIP3    H245935   4.631   3.839  16.802  0.5997  0.3691 -0.7275
 8174TIP3   OH245936   0.156   3.137  16.537 -0.4256  0.0917  0.1355
 8174TIP3    H145937   0.249   3.117  16.548 -0.6535 -1.0617  0.1132
 8174TIP3    H245938   0.148   3.163  16.446  0.2288  2.4399  0.6758
 8175TIP3   OH245939   5.831   0.203   5.697 -0.2320 -0.3967  0.3424
 8175TIP3    H145940   5.791   0.116   5.686 -2.9650  0.8169 -0.0412
 8175TIP3    H245941   5.805   0.231   5.785  0.2905  0.2160  0.3101
 8176TIP3   OH245942   5.464   5.434  10.494 -0.3954 -0.2473  0.2341
 8176TIP3    H145943   5.449   5.347  10.532  0.4719 -0.4345  0.1671
 8176TIP3    H245944   5.540   5.423  10.437 -1.7129 -0.0005 -1.6741
 8177TIP3   OH245945   5.399   3.684   4.913  0.6349 -0.3790  0.5402
 8177TIP3    H145946   5.409   3.657   4.822 -1.3795 -0.2650  0.2428
 8177TIP3    H245947   5.432   3.610   4.963  1.8862 -0.3915 -0.2660
 8178TIP3   OH245948   4.700   3.164   0.354  0.5298 -0.1230 -0.5486
 8178TIP3    H145949   4.687   3.136   0.445  0.8550  0.5743 -0.2835
 8178TIP3    H245950   4.780   3.216   0.356  0.0466  0.6572 -1.0720
 8179TIP3   OH245951   0.488   4.059  12.963 -0.2113 -0.1168  0.0286
 8179TIP3    H145952   0.499   4.085  12.872 -0.4302  3.7778  0.9466
 8179TIP3    H245953   0.430   4.125  13.000 -1.7128 -2.6573  2.6063
 8180TIP3   OH245954   2.770   0.178   5.855  0.2038  0.9640  0.2471
 8180TIP3    H145955   2.811   0.095   5.833  0.5527  1.3747 -0.6862
 8180TIP3    H245956   2.745   0.168   5.947  1.6709  0.4128  0.6142
 8181TIP3   OH245957   3.928   0.510   1.155 -0.2293  0.4636  0.2650
 8181TIP3    H145958   3.867   0.507   1.229 -0.2726  2.7150  0.4026
 8181TIP3    H245959   4.001   0.564   1.186  0.4192  0.2810 -0.8701
 8182TIP3   OH245960   1.342   2.477   4.189  0.0849  0.3380  0.0867
 8182TIP3    H145961   1.282   2.485   4.115  0.7688  1.7807 -0.3616
 8182TIP3    H245962   1.393   2.398   4.170 -0.8166 -0.2045 -0.1499
 8183TIP3   OH245963   4.741   0.059   2.569 -0.6278 -0.1329  0.5907
 8183TIP3    H145964   4.669   0.015   2.524 -0.7706 -0.5589  1.2157
 8183TIP3    H245965   4.730   0.035   2.661  0.4887 -0.4622  0.6610
 8184TIP3   OH245966   0.423   4.276  16.612 -0.1260 -0.7371 -0.6377
 8184TIP3    H145967   0.439   4.212  16.681 -3.2759 -0.4450  0.5249
 8184TIP3    H245968   0.400   4.223  16.536 -1.8407 -1.0684  0.0723
 8185TIP3   OH245969   1.685   1.333   5.236  0.5275  0.8810 -0.6355
 8185TIP3    H145970   1.688   1.419   5.195 -0.1627  0.8424 -0.7848
 8185TIP3    H245971   1.641   1.277   5.172  0.3839  0.5705 -0.2720
 8186TIP3   OH245972   0.102   0.738   2.484  0.2841  0.4533 -0.5115
 8186TIP3    H145973   0.010   0.723   2.462  0.1996  0.9984 -0.5273
 8186TIP3    H245974   0.147   0.738   2.399  0.5054 -1.1181 -0.4326
 8187TIP3   OH245975   6.082   3.695  11.729  0.2052  0.3044  0.2689
 8187TIP3    H145976   6.093   3.786  11.754  1.4440  0.0397  0.7606
 8187TIP3    H245977   6.002   3.693  11.677 -0.4506  1.4775  1.2017
 8188TIP3   OH245978   4.855   3.472  14.516  0.2720  0.2677 -0.5880
 8188TIP3    H145979   4.936   3.431  14.487  0.1469 -0.3164 -0.1408
 8188TIP3    H245980   4.820   3.412  14.582 -1.5701 -0.5692 -2.2157
 8189TIP3   OH245981   5.678   4.943   5.963 -0.4612  0.0794 -0.2696
 8189TIP3    H145982   5.751   4.922   6.021 -1.0711 -1.6215 -0.0683
 8189TIP3    H245983   5.686   4.880   5.891 -0.5813  1.1915 -1.2960
 8190TIP3   OH245984   4.288   3.581   4.375  0.0799 -0.0922  0.4774
 8190TIP3    H145985   4.373   3.553   4.409  2.0810  0.7975 -3.2745
 8190TIP3    H245986   4.232   3.504   4.382  1.4106 -0.9767  2.1786
 8191TIP3   OH245987   0.769   4.837  15.561 -0.2918  0.1692 -0.1759
 8191TIP3    H145988   0.841   4.896  15.583  0.7850 -1.4664  0.9128
 8191TIP3    H245989   0.733   4.810  15.645 -1.1321 -0.2842 -0.6669
 8192TIP3   OH245990   5.798   0.551  15.317 -0.3993  0.1627  0.1767
 8192TIP3    H145991   5.782   0.603  15.396 -1.0584 -0.0923  0.2232
 8192TIP3    H245992   5.876   0.500  15.338 -0.9979 -0.4700  0.9816
 8193TIP3   OH245993   1.457   5.697   3.530 -0.0254  0.1512  0.0797
 8193TIP3    H145994   1.506   5.632   3.480 -1.2132 -2.2730  1.8892
 8193TIP3    H245995   1.366   5.687   3.500 -0.2216  1.0459  0.3467
 8194TIP3   OH245996   1.472   4.940  11.972  0.0766 -0.2824 -0.0184
 8194TIP3    H145997   1.436   5.011  12.024 -0.7524 -0.2189 -0.6466
 8194TIP3    H245998   1.404   4.922  11.906  0.6268 -1.0879 -0.3855
 8195TIP3   OH245999   1.674   0.613  14.284 -0.0587  0.2061 -0.2330
 8195TIP3    H146000   1.624   0.534  14.303 -2.0588  1.3844 -0.2383
 8195TIP3    H246001   1.718   0.634  14.366  0.3972 -0.8256 -0.2015
 8196TIP3   OH246002   1.161   1.056   4.653  0.1099 -0.2759  0.0155
 8196TIP3    H146003   1.081   1.074   4.603 -0.2621  1.7513  1.2367
 8196TIP3    H246004   1.140   1.082   4.742  1.7722 -0.8777  0.6206
 8197TIP3   OH246005   5.926   5.623  14.973  0.5070  0.6746 -0.3250
 8197TIP3    H146006   5.860   5.614  14.904  0.9868 -0.4700 -0.6573
 8197TIP3    H246007   5.945   5.534  15.000  0.1665  1.1047  1.4829
 8198TIP3   OH246008   2.071   3.280   4.590  0.1113 -0.6448  0.1108
 8198TIP3    H146009   2.062   3.219   4.517  1.2168 -3.4279  2.0785
 8198TIP3    H246010   1.982   3.294   4.622 -0.1160 -2.4017  0.3845
 8199TIP3   OH246011   1.789   3.777  15.314 -0.0116  0.5568 -0.4562
 8199TIP3    H146012   1.812   3.870  15.307  0.3597  0.5224  0.2117
 8199TIP3    H246013   1.868   3.735  15.348 -0.4537  0.1302  0.0614
 8200TIP3   OH246014   3.659   4.282  11.807  0.3091 -0.1329 -0.4151
 8200TIP3    H146015   3.573   4.248  11.781  0.9557 -1.4259 -0.9591
 8200TIP3    H246016   3.642   4.372  11.834 -1.1846 -0.3007 -0.7072
 8201TIP3   OH246017   2.368   0.321  13.358 -0.4005 -0.4445 -0.0589
 8201TIP3    H146018   2.284   0.280  13.377 -0.6407  0.3261  0.5642
 8201TIP3    H246019   2.432   0.267  13.406 -0.9352  1.1125  2.5715
 8202TIP3   OH246020   2.346   2.242  14.210 -0.4540  0.1107 -0.3582
 8202TIP3    H146021   2.269   2.189  14.188 -1.0305 -0.0529  1.7944
 8202TIP3    H246022   2.365   2.291  14.130 -1.4625 -1.4370 -1.6187
 8203TIP3   OH246023   5.817   0.819  15.067  0.0821 -0.2113 -0.2859
 8203TIP3    H146024   5.777   0.881  15.006 -1.5037  0.1726  1.0610
 8203TIP3    H246025   5.750   0.806  15.135  2.3703  0.8092  2.3758
 8204TIP3   OH246026   1.061   1.787  15.026 -0.1414  0.6670  0.1550
 8204TIP3    H146027   1.133   1.750  15.076  0.8874  3.7206  1.1852
 8204TIP3    H246028   0.996   1.811  15.092 -0.2259  1.7156 -0.2811
 8205TIP3   OH246029   4.169   0.125  17.169 -0.1588 -0.1671 -0.0949
 8205TIP3    H146030   4.213   0.056  17.219  1.0942  0.9952  0.4765
 8205TIP3    H246031   4.158   0.088  17.081 -1.4026 -1.8477  0.6956
 8206TIP3   OH246032   1.124   0.883  11.569  0.2697  0.3836  0.2465
 8206TIP3    H146033   1.044   0.839  11.539 -0.3752  0.5954  1.5939
 8206TIP3    H246034   1.187   0.869  11.498 -0.2796 -1.6843  0.1244
 8207TIP3   OH246035   0.760   2.941  16.984 -0.0174  0.2182 -0.5538
 8207TIP3    H146036   0.830   2.999  17.015  0.0362  0.0664 -0.3940
 8207TIP3    H246037   0.731   2.981  16.902 -3.4028  3.3967  1.8626
 8208TIP3   OH246038   6.722   0.791  12.582 -0.1787  0.0686 -0.4152
 8208TIP3    H146039   6.698   0.804  12.490  0.7356  1.5051 -0.4798
 8208TIP3    H246040   6.817   0.785  12.581 -0.2101 -0.8517  0.3602
 8209TIP3   OH246041   3.575   0.197  16.645 -0.2429  0.5030  0.0159
 8209TIP3    H146042   3.627   0.277  16.649  0.8323 -0.1820  0.0328
 8209TIP3    H246043   3.624   0.139  16.586 -0.7717 -0.3067  0.3550
 8210TIP3   OH246044   0.524   5.643   1.743  0.5395 -0.7915 -0.2706
 8210TIP3    H146045   0.529   5.708   1.814  1.4831 -0.4866 -0.5946
 8210TIP3    H246046   0.430   5.627   1.732  0.2744  0.6114 -0.2559
 8211TIP3   OH246047   2.802   5.409   4.443 -0.3797  0.4267  0.4877
 8211TIP3    H146048   2.797   5.314   4.434  1.9147 -0.1370  3.6364
 8211TIP3    H246049   2.893   5.430   4.425 -0.3248  1.6949  2.0654
 8212TIP3   OH246050   0.722   5.714   1.298  0.4346  0.3080 -0.0720
 8212TIP3    H146051   0.805   5.702   1.345 -1.0495 -1.1234  2.4659
 8212TIP3    H246052   0.681   5.628   1.302 -2.0012  1.4246  0.5318
 8213TIP3   OH246053   5.950   5.778  11.534 -0.0813  0.1186 -0.3170
 8213TIP3    H146054   5.967   5.684  11.538  0.7046  0.0737 -2.8900
 8213TIP3    H246055   5.879   5.787  11.470 -0.8793  1.2327  0.6818
 8214TIP3   OH246056   2.543   4.624  15.215  0.0329 -0.3830  0.6647
 8214TIP3    H146057   2.519   4.579  15.295 -0.6684  1.2541  1.4121
 8214TIP3    H246058   2.498   4.709  15.220  0.8716  0.1986 -0.9205
 8215TIP3   OH246059   0.643   4.349  13.030 -0.2121 -0.6477 -0.9757
 8215TIP3    H146060   0.719   4.293  13.046 -1.2527 -1.8989 -0.2006
 8215TIP3    H246061   0.595   4.348  13.113 -0.7239  0.6891 -1.2359
 8216TIP3   OH246062   0.868   2.820   0.395 -0.2324 -0.0330  0.4217
 8216TIP3    H146063   0.919   2.780   0.324 -1.8540 -1.1866 -0.1604
 8216TIP3    H246064   0.908   2.787   0.475 -0.0395 -0.9190 -0.0220
 8217TIP3   OH246065   4.182   4.166   6.593  0.3689  0.0492 -0.1265
 8217TIP3    H146066   4.201   4.083   6.549  1.3045 -0.9053  1.9166
 8217TIP3    H246067   4.087   4.169   6.598  0.3047 -0.6487 -0.6854
 8218TIP3   OH246068   2.219   2.976  13.116  0.1207  0.4784 -0.1935
 8218TIP3    H146069   2.223   2.895  13.167 -0.6537  1.3316  1.2846
 8218TIP3    H246070   2.282   3.034  13.158 -0.5696  1.2183 -0.1554
 8219TIP3   OH246071   6.206   0.685  15.211  0.4292 -0.8140  0.0189
 8219TIP3    H146072   6.255   0.610  15.244 -0.2729 -0.6413  1.5093
 8219TIP3    H246073   6.176   0.730  15.289 -1.0921 -0.2390 -0.8687
 8220TIP3   OH246074   0.510   5.591  11.555 -0.0326 -0.3086  0.0238
 8220TIP3    H146075   0.465   5.512  11.524  0.2703 -0.4798  0.0170
 8220TIP3    H246076   0.572   5.559  11.620 -0.4122  0.0093  0.5527
 8221TIP3   OH246077   0.609   1.780   1.845 -0.7417 -0.2157  0.1996
 8221TIP3    H146078   0.700   1.803   1.863 -0.5222 -1.9624  1.6873
 8221TIP3    H246079   0.595   1.697   1.892 -2.6202 -0.8837 -1.3604
 8222TIP3   OH246080   4.950   3.127  14.150 -0.0743 -0.0990  0.4285
 8222TIP3    H146081   5.013   3.110  14.219  0.6472  0.1683 -0.1521
 8222TIP3    H246082   5.001   3.125  14.069 -0.9368 -0.6001 -0.1193
 8223TIP3   OH246083   4.577   6.669   4.427 -0.8726 -0.3782  0.2564
 8223TIP3    H146084   4.595   6.659   4.333  1.1784 -0.3549  0.5922
 8223TIP3    H246085   4.588   6.763   4.443 -0.1578 -0.5337  0.7021
 8224TIP3   OH246086   2.263   1.579  15.570 -0.1356  0.5178  0.4871
 8224TIP3    H146087   2.269   1.642  15.642  0.7358  1.6384 -0.5147
 8224TIP3    H246088   2.199   1.618  15.510  0.0823  0.2315  0.0670
 8225TIP3   OH246089   1.497   2.638   1.639  0.2080  0.3382 -0.2648
 8225TIP3    H146090   1.431   2.579   1.674  0.1336 -0.1998 -1.2606
 8225TIP3    H246091   1.577   2.585   1.634  0.5006  0.7325  0.1302
 8226TIP3   OH246092   2.306   0.490  15.125 -0.0326  0.0137  0.2982
 8226TIP3    H146093   2.263   0.570  15.097 -1.3246 -1.1904 -1.3248
 8226TIP3    H246094   2.387   0.487  15.073 -0.1913  0.0470  0.0494
 8227TIP3   OH246095   5.669   6.577   1.740  0.0276 -0.0108 -0.7129
 8227TIP3    H146096   5.693   6.669   1.747 -0.5312  0.1672 -1.1395
 8227TIP3    H246097   5.723   6.544   1.668 -1.0818  0.4295 -1.7797
 8228TIP3   OH246098   1.122   4.420  16.881  0.5219  0.4618 -0.1868
 8228TIP3    H146099   1.073   4.451  16.804 -0.4590 -1.1451 -0.2624
 8228TIP3    H246100   1.149   4.500  16.926  0.8134  1.4452 -1.9977
 8229TIP3   OH246101   6.186   0.921  15.016  0.1745  0.5100  0.3072
 8229TIP3    H146102   6.165   0.975  15.092  1.6282  0.4885  0.7640
 8229TIP3    H246103   6.264   0.871  15.043 -1.6508 -2.6163  0.2692
 8230TIP3   OH246104   0.583   2.102  14.324 -0.1046 -0.2654  0.2872
 8230TIP3    H146105   0.516   2.137  14.266 -1.1845 -2.6378 -0.0382
 8230TIP3    H246106   0.658   2.084  14.267  0.7998  2.1507  0.6077
 8231TIP3   OH246107   1.862   2.212  14.888  0.0050  0.0345 -0.6497
 8231TIP3    H146108   1.781   2.233  14.840  0.1647 -1.2333 -1.5263
 8231TIP3    H246109   1.912   2.157  14.827  1.8893  1.3975 -0.4254
 8232TIP3   OH246110   0.356   4.749   0.965 -0.0098 -0.9895  0.5064
 8232TIP3    H146111   0.410   4.757   1.043  2.0372 -2.3993 -0.6716
 8232TIP3    H246112   0.306   4.831   0.962  0.8350 -0.3354  2.5568
 8233TIP3   OH246113   2.225   6.553   2.244 -0.5599  0.3469 -0.5953
 8233TIP3    H146114   2.216   6.466   2.204  2.3680 -0.5484  0.4546
 8233TIP3    H246115   2.200   6.539   2.336 -1.6503  1.0447 -0.7647
 8234TIP3   OH246116   3.957   5.233  15.434  0.2770  0.4696  0.1642
 8234TIP3    H146117   3.970   5.323  15.405 -0.3391  1.0619  1.6234
 8234TIP3    H246118   3.863   5.226  15.450  0.2000 -0.6870 -0.6810
 8235TIP3   OH246119   0.302   5.158  11.239 -0.4189  0.3810  0.6906
 8235TIP3    H146120   0.330   5.126  11.325 -0.1065  1.4257  0.9947
 8235TIP3    H246121   0.323   5.087  11.179  0.3298  0.0453  1.3352
 8236TIP3   OH246122   1.080   5.198   1.224 -0.0852 -0.0872 -0.2188
 8236TIP3    H146123   1.173   5.180   1.220 -0.3566 -1.4255 -2.5363
 8236TIP3    H246124   1.071   5.269   1.288  2.5627  0.4878 -0.3881
 8237TIP3   OH246125   3.877   1.563  13.727  0.6249  0.4409 -0.0048
 8237TIP3    H146126   3.787   1.569  13.759  0.2552  0.9878 -1.0756
 8237TIP3    H246127   3.920   1.503  13.788 -0.6416 -0.3913  0.1267
 8238TIP3   OH246128   0.538   3.291  17.039 -0.5180 -0.0030  0.1479
 8238TIP3    H146129   0.471   3.332  17.095 -0.9419 -0.0978 -0.2861
 8238TIP3    H246130   0.588   3.235  17.099 -1.8983 -1.2527  0.1946
 8239TIP3   OH246131   5.154   2.433   5.652  0.1612 -0.2269  0.1616
 8239TIP3    H146132   5.070   2.399   5.682 -0.4360  0.3365 -0.8391
 8239TIP3    H246133   5.155   2.524   5.682  0.0128  0.0337 -0.6154
 8240TIP3   OH246134   0.783   6.393   4.395 -0.3817 -0.5913  0.4474
 8240TIP3    H146135   0.802   6.303   4.420 -1.1601 -0.3804  1.9760
 8240TIP3    H246136   0.688   6.394   4.378 -0.5726  0.1008  1.4068
 8241TIP3   OH246137   0.733   2.533   1.117  0.5739  0.2874 -0.9806
 8241TIP3    H146138   0.659   2.587   1.091 -0.1543 -1.2561 -2.3319
 8241TIP3    H246139   0.793   2.536   1.042  1.1232  0.2593 -0.5486
 8242TIP3   OH246140   4.969   5.381  11.982  0.4718  0.8339  0.0672
 8242TIP3    H146141   4.972   5.391  11.887 -1.8599 -0.0357 -0.1755
 8242TIP3    H246142   4.978   5.470  12.016  0.5088  1.2530 -1.0031
 8243TIP3   OH246143   2.175   4.360  16.074 -0.0639 -0.6366 -0.5885
 8243TIP3    H146144   2.089   4.327  16.047 -1.3367  0.7001  1.6113
 8243TIP3    H246145   2.195   4.428  16.009 -1.1285 -0.2911 -0.5843
 8244TIP3   OH246146   6.342   6.224  12.397  0.5442 -0.4552  0.2976
 8244TIP3    H146147   6.421   6.177  12.373  0.5505  0.2953 -1.3173
 8244TIP3    H246148   6.297   6.240  12.314  0.1231  1.5934  0.8504
 8245TIP3   OH246149   6.457   0.807  16.179  0.2568 -0.2788  0.3024
 8245TIP3    H146150   6.520   0.877  16.199  1.0986 -0.8701 -0.2008
 8245TIP3    H246151   6.489   0.770  16.097 -0.7158 -0.6469  0.0840
 8246TIP3   OH246152   4.035   0.908   0.469  0.0683  0.0243  0.0438
 8246TIP3    H146153   4.130   0.921   0.467  0.7732 -3.5198  2.1254
 8246TIP3    H246154   4.003   0.974   0.530  1.0884  1.4642 -0.9224
 8247TIP3   OH246155   5.552   5.757   5.349 -0.2965  0.2108 -0.1523
 8247TIP3    H146156   5.598   5.735   5.268 -0.1602  1.5381 -0.4571
 8247TIP3    H246157   5.565   5.851   5.359 -1.1662  0.2394  0.8821
 8248TIP3   OH246158   2.039   4.389   3.324  0.0094  0.8685  0.1389
 8248TIP3    H146159   2.086   4.447   3.264 -2.3784  2.3298 -0.5005
 8248TIP3    H246160   2.096   4.382   3.400  1.0308  2.9855 -0.3416
 8249TIP3   OH246161   3.121   5.221   0.748  0.0843  0.4156 -0.2294
 8249TIP3    H146162   3.130   5.180   0.662  1.4211  0.3016 -0.0516
 8249TIP3    H246163   3.033   5.259   0.747 -0.3901 -0.6623 -1.1678
 8250TIP3   OH246164   3.340   5.340  14.313 -0.4275 -0.0946 -0.0629
 8250TIP3    H146165   3.383   5.368  14.232  0.9476 -0.3454  0.5472
 8250TIP3    H246166   3.390   5.263  14.341 -1.7957 -0.9010  0.2679
 8251TIP3   OH246167   0.473   2.248   4.453  0.4036 -0.7902 -0.2147
 8251TIP3    H146168   0.441   2.291   4.373 -0.7612  1.8344  1.5154
 8251TIP3    H246169   0.538   2.309   4.488  1.1568 -2.0712  0.6737
 8252TIP3   OH246170   1.803   6.236  11.386 -1.1625 -0.0777  0.0291
 8252TIP3    H146171   1.707   6.234  11.381 -1.0961  0.1983 -2.8226
 8252TIP3    H246172   1.831   6.152  11.350 -0.3190  0.2104 -0.0020
 8253TIP3   OH246173   6.112   5.633  12.318  0.1194  0.3135  0.6105
 8253TIP3    H146174   6.072   5.697  12.259  0.4857 -0.3531 -0.3886
 8253TIP3    H246175   6.039   5.594  12.365 -0.2068  0.6358  0.3762
 8254TIP3   OH246176   6.242   3.538   4.425 -0.4649 -0.2446 -0.5393
 8254TIP3    H146177   6.195   3.520   4.343 -0.9702 -0.4048 -0.2168
 8254TIP3    H246178   6.250   3.634   4.427 -0.2848 -0.2495 -0.8642
 8255TIP3   OH246179   1.561   1.087  11.483 -0.4338  0.8689 -0.0285
 8255TIP3    H146180   1.617   1.014  11.456 -0.2402  1.3593 -1.0086
 8255TIP3    H246181   1.580   1.099  11.575 -0.6068 -0.4335  0.2015
 8256TIP3   OH246182   4.980   2.273  13.443  0.0930 -0.2749  0.2737
 8256TIP3    H146183   5.024   2.191  13.467 -1.1360 -1.0522  0.0100
 8256TIP3    H246184   5.050   2.338  13.440  0.7538 -0.6640  3.2770
 8257TIP3   OH246185   1.490   3.040   1.597 -0.5464 -0.2310 -0.1839
 8257TIP3    H146186   1.467   3.112   1.656  0.7602 -0.2851  0.4029
 8257TIP3    H246187   1.581   3.020   1.616 -1.1552 -2.7562  0.4131
 8258TIP3   OH246188   6.103   0.483  12.557  0.4165  0.6342 -0.2292
 8258TIP3    H146189   6.114   0.575  12.580 -0.6902  0.5831  0.5906
 8258TIP3    H246190   6.162   0.469  12.483  0.1288  2.1599 -0.7732
 8259TIP3   OH246191   0.784   4.040  15.977  0.2756  0.7058 -0.3611
 8259TIP3    H146192   0.839   3.985  16.031 -0.3017  0.4396 -0.0364
 8259TIP3    H246193   0.796   4.128  16.013 -0.3604  0.4841  0.4278
 8260TIP3   OH246194   1.553   6.173  11.699  0.3372 -0.0923  0.0607
 8260TIP3    H146195   1.466   6.156  11.663 -0.2830 -0.6832  1.7569
 8260TIP3    H246196   1.588   6.087  11.722 -0.3153  0.3568  3.0689
 8261TIP3   OH246197   6.547   0.962   4.511  0.1133  0.2599  0.1631
 8261TIP3    H146198   6.535   0.867   4.511 -0.5310  0.3366 -0.2604
 8261TIP3    H246199   6.459   0.997   4.503  0.3702  0.8923  0.0875
 8262TIP3   OH246200   5.858   3.218  10.537  0.0081  0.7590  0.1609
 8262TIP3    H146201   5.921   3.160  10.579  0.3761  1.1371  0.1280
 8262TIP3    H246202   5.872   3.205  10.443  1.2798  2.1522  0.1156
 8263TIP3   OH246203   6.341   0.073  14.071  0.0226  0.1857 -0.3665
 8263TIP3    H146204   6.403   0.015  14.028 -0.9808 -0.8537 -0.4459
 8263TIP3    H246205   6.312   0.025  14.149 -0.3549  0.8379 -0.0895
 8264TIP3   OH246206   0.791   4.748  13.005  0.1529 -0.1555  0.0085
 8264TIP3    H146207   0.815   4.689  13.077 -1.9643 -1.3724 -0.1828
 8264TIP3    H246208   0.704   4.780  13.029  0.1127  0.7333 -1.2306
 8265TIP3   OH246209   4.335   3.963  12.253 -0.0513 -0.8227 -0.4214
 8265TIP3    H146210   4.356   3.870  12.266 -0.8337 -0.7786  1.5503
 8265TIP3    H246211   4.241   3.964  12.235 -0.7026 -0.3018  2.4692
 8266TIP3   OH246212   1.404   0.468   3.532 -0.1097 -0.5248 -0.3370
 8266TIP3    H146213   1.314   0.441   3.510  0.2456 -1.9566 -0.0862
 8266TIP3    H246214   1.425   0.421   3.612  1.1544 -0.8299 -0.8281
 8267TIP3   OH246215   0.678   0.641   1.044 -0.2317 -0.1518 -0.2200
 8267TIP3    H146216   0.603   0.660   1.100 -0.1390  2.1308 -0.7765
 8267TIP3    H246217   0.754   0.671   1.094 -0.1549  2.0091 -1.5007
 8268TIP3   OH246218   5.228   1.824  15.571 -0.2319  0.4874  0.2429
 8268TIP3    H146219   5.236   1.919  15.576  0.7208  0.3501  1.9584
 8268TIP3    H246220   5.297   1.790  15.628 -0.3275 -1.2551 -0.5986
 8269TIP3   OH246221   2.140   0.508  15.880  0.1012  0.1380 -0.4289
 8269TIP3    H146222   2.082   0.581  15.898  1.2083  0.8073  0.5721
 8269TIP3    H246223   2.215   0.547  15.836  0.4543 -0.4786 -0.3909
 8270TIP3   OH246224   0.805   3.676  10.274  0.8964 -0.0001  0.4070
 8270TIP3    H146225   0.715   3.684  10.242  0.6074 -1.5077  0.7290
 8270TIP3    H246226   0.855   3.648  10.198  0.9823  0.2518  0.3697
 8271TIP3   OH246227   4.068   3.864  11.184  0.4464  0.0571  0.7290
 8271TIP3    H146228   4.027   3.809  11.117 -0.0060 -0.5576  1.5001
 8271TIP3    H246229   4.052   3.954  11.154 -0.4634 -0.1954  0.4411
 8272TIP3   OH246230   6.613   1.353  16.867 -0.9299  0.1837  0.2808
 8272TIP3    H146231   6.612   1.273  16.920  0.0334 -0.5869 -0.8238
 8272TIP3    H246232   6.536   1.345  16.811 -1.0004  0.1801  0.3773
 8273TIP3   OH246233   2.491   5.199   6.017 -0.1678  0.2232  0.2185
 8273TIP3    H146234   2.476   5.149   6.097 -2.7637  0.8048  0.1878
 8273TIP3    H246235   2.531   5.281   6.046 -2.5172  1.1021  1.2075
 8274TIP3   OH246236   5.126   0.110  12.579  0.3939 -0.2856  0.4543
 8274TIP3    H146237   5.128   0.124  12.674 -1.5211  0.5019  0.4255
 8274TIP3    H246238   5.153   0.019  12.568 -1.5807 -1.1394  1.9796
 8275TIP3   OH246239   0.028   1.656   1.821 -0.1564  0.3762 -0.1679
 8275TIP3    H146240   0.035   1.745   1.787  1.0664  0.7135  0.9329
 8275TIP3    H246241   0.001   1.666   1.912 -2.5233 -0.4994 -0.6962
 8276TIP3   OH246242   2.885   3.075  13.175  0.6187 -0.8443 -0.4242
 8276TIP3    H146243   2.938   3.104  13.250 -2.3113 -0.1686  1.5467
 8276TIP3    H246244   2.933   3.000  13.140  2.2849 -1.0239  1.9645
 8277TIP3   OH246245   1.235   4.694   4.913  0.0014  0.1870 -0.0010
 8277TIP3    H146246   1.173   4.757   4.878  1.5041  1.5730 -0.3078
 8277TIP3    H246247   1.289   4.668   4.837  0.3715 -0.2855  0.4144
 8278TIP3   OH246248   6.708   1.406  16.086 -0.1327  0.1413 -0.7341
 8278TIP3    H146249   6.773   1.404  16.156 -0.2499  0.9528 -0.5841
 8278TIP3    H246250   6.746   1.465  16.021 -1.5132  2.1856  0.2057
 8279TIP3   OH246251   1.984   0.579  16.879 -0.4904 -0.0504  0.0254
 8279TIP3    H146252   1.979   0.561  16.973 -1.7055 -0.4033 -0.0945
 8279TIP3    H246253   1.998   0.673  16.873  0.7636 -0.1838  0.5688
 8280TIP3   OH246254   0.940   1.295  14.371 -1.0459  0.3962 -0.3677
 8280TIP3    H146255   0.914   1.288  14.463  1.0219  0.5014  0.2684
 8280TIP3    H246256   0.960   1.388  14.359  0.5672  0.0883 -0.3356
 8281TIP3   OH246257   1.750   2.042   6.009  0.4298  0.4560  0.3208
 8281TIP3    H146258   1.776   2.106   6.075  0.4151 -0.6634  1.4717
 8281TIP3    H246259   1.670   2.002   6.046  1.7154 -1.8313  0.8174
 8282TIP3   OH246260   6.017   5.124   3.337  0.1177 -0.2792 -0.0387
 8282TIP3    H146261   6.091   5.070   3.364 -0.2720 -1.4323 -1.1613
 8282TIP3    H246262   5.954   5.062   3.302 -0.7194  0.8364 -0.5666
 8283TIP3   OH246263   3.807   4.935  11.218  0.4634 -0.6647 -0.4604
 8283TIP3    H146264   3.832   5.020  11.255 -1.9389  0.0911 -0.3962
 8283TIP3    H246265   3.889   4.898  11.185  1.6641  1.4258 -0.0002
 8284TIP3   OH246266   5.990   5.716   5.417 -0.2055 -0.2217 -0.3979
 8284TIP3    H146267   5.991   5.687   5.508 -0.8481 -0.2613 -0.3954
 8284TIP3    H246268   6.059   5.666   5.374  0.5104  0.2346  0.1946
 8285TIP3   OH246269   3.555   2.838  12.857  0.6832  0.1139 -0.1655
 8285TIP3    H146270   3.641   2.880  12.865  0.1343  0.9291  2.3456
 8285TIP3    H246271   3.522   2.868  12.773  1.9501  1.6073 -0.1846
 8286TIP3   OH246272   5.787   0.695  12.216 -0.0621  0.6540  0.1476
 8286TIP3    H146273   5.841   0.715  12.140 -1.0916 -0.1185 -0.8081
 8286TIP3    H246274   5.832   0.623  12.260 -0.1310  0.2473 -0.4461
 8287TIP3   OH246275   0.690   5.181  16.367  0.1058 -0.1985  0.3712
 8287TIP3    H146276   0.609   5.229  16.351 -0.5863 -1.3645  0.1768
 8287TIP3    H246277   0.661   5.095  16.398  1.3174 -0.1169  1.8468
 8288TIP3   OH246278   3.244   1.944   1.914  0.2993  0.2314  0.0712
 8288TIP3    H146279   3.254   1.857   1.951  0.0729  0.2664  0.2192
 8288TIP3    H246280   3.332   1.971   1.890  0.9458  1.4324  3.3095
 8289TIP3   OH246281   1.061   0.145  16.294 -0.2780  0.1092 -0.3452
 8289TIP3    H146282   1.031   0.156  16.204 -0.0403 -1.7606 -0.6970
 8289TIP3    H246283   0.985   0.166  16.348 -1.2856 -1.3648 -1.1159
 8290TIP3   OH246284   5.084   0.421  12.716  0.5305 -0.7232 -0.5998
 8290TIP3    H146285   5.155   0.421  12.653  0.3240 -0.4217 -0.8332
 8290TIP3    H246286   5.004   0.418  12.663  0.3577 -0.5977 -0.3500
 8291TIP3   OH246287   2.057   2.717  13.243  0.0537 -0.6800 -0.2474
 8291TIP3    H146288   2.109   2.641  13.219  1.2183  0.4134 -1.3677
 8291TIP3    H246289   1.969   2.683  13.258  0.7766 -2.3734  0.3197
 8292TIP3   OH246290   1.504   6.071   3.528 -0.2890  0.1787 -0.3902
 8292TIP3    H146291   1.561   6.122   3.585 -0.7456 -0.3492  0.5537
 8292TIP3    H246292   1.560   6.046   3.454  0.3913  0.6053 -0.0276
 8293TIP3   OH246293   6.771   6.264   0.836  0.0998  0.2087 -0.0044
 8293TIP3    H146294   6.830   6.337   0.818  0.4263  0.2504  1.1758
 8293TIP3    H246295   6.751   6.228   0.750  0.1147  1.5427 -0.5865
 8294TIP3   OH246296   5.171   3.309   2.391 -0.3873 -0.1038  0.1499
 8294TIP3    H146297   5.082   3.335   2.415 -0.8152 -0.5763 -0.8724
 8294TIP3    H246298   5.200   3.377   2.330  0.2010  0.3813  0.9451
 8295TIP3   OH246299   0.448   6.733  17.126  0.1557 -0.0716  0.5132
 8295TIP3    H146300   0.528   6.683  17.138  0.0497 -0.6685 -1.0259
 8295TIP3    H246301   0.478   6.822  17.107  0.4265 -0.1177  0.7165
 8296TIP3   OH246302   5.745   6.253   5.282  0.4997  0.4867  0.3464
 8296TIP3    H146303   5.804   6.184   5.311  1.0172  0.4939 -0.6746
 8296TIP3    H246304   5.661   6.232   5.325  0.8653 -0.2949  0.6995
 8297TIP3   OH246305   5.662   5.628   5.141 -0.6553  0.2892  1.0676
 8297TIP3    H146306   5.726   5.567   5.178 -0.9282 -0.2707  0.6388
 8297TIP3    H246307   5.694   5.645   5.053 -2.5085 -2.2192 -0.2223
 8298TIP3   OH246308   0.726   3.928  13.844 -0.7114  0.1964 -0.1809
 8298TIP3    H146309   0.763   4.013  13.869  0.3357 -0.5757  1.0139
 8298TIP3    H246310   0.778   3.901  13.769  0.0450 -0.1060  0.4402
 8299TIP3   OH246311   5.222   6.307   5.823 -0.4194 -0.5247  0.0058
 8299TIP3    H146312   5.144   6.333   5.773 -0.0742 -3.0977 -2.0510
 8299TIP3    H246313   5.187   6.276   5.906 -1.3624  0.3006 -0.0516
 8300TIP3   OH246314   0.468   0.547  13.309  0.3577 -0.6673  0.0738
 8300TIP3    H146315   0.475   0.480  13.241 -0.6639 -1.1212  0.4100
 8300TIP3    H246316   0.459   0.629  13.261  0.4177 -0.8971 -0.3326
 8301TIP3   OH246317   5.811   4.745  16.348  0.3124 -0.0109 -0.0221
 8301TIP3    H146318   5.750   4.673  16.361 -0.2701  0.7510  1.6993
 8301TIP3    H246319   5.755   4.821  16.329  0.9077  0.0765 -1.5995
 8302TIP3   OH246320   2.902   3.373   2.095  0.1576 -0.1720 -0.3985
 8302TIP3    H146321   2.849   3.295   2.111 -0.5475  0.4531  0.4312
 8302TIP3    H246322   2.974   3.366   2.158 -1.0937  0.8952  1.2320
 8303TIP3   OH246323   1.110   1.830  15.913  0.2088 -0.1220 -0.1978
 8303TIP3    H146324   1.139   1.819  15.822 -0.5135  1.2250 -0.6125
 8303TIP3    H246325   1.172   1.778  15.964  0.0159 -1.7533 -1.5366
 8304TIP3   OH246326   0.345   5.937  12.889  0.3270  0.3108  0.0315
 8304TIP3    H146327   0.343   6.001  12.960  2.2334  0.4008  0.0475
 8304TIP3    H246328   0.318   5.855  12.931  0.5121  0.5532  0.6468
 8305TIP3   OH246329   4.909   2.957   4.444 -0.4092 -0.0740  0.2278
 8305TIP3    H146330   4.934   2.882   4.498  1.5550  1.2406  1.2771
 8305TIP3    H246331   4.896   2.920   4.357  2.0022 -1.4958  0.3688
 8306TIP3   OH246332   3.876   4.545   0.060 -0.6024 -1.1589  0.3048
 8306TIP3    H146333   3.907   4.616   0.004  0.6020 -0.4106  1.8618
 8306TIP3    H246334   3.811   4.499   0.006 -1.2282  0.9303 -0.8283
 8307TIP3   OH246335   1.829   0.856  13.089 -0.5062 -0.0270  0.0578
 8307TIP3    H146336   1.850   0.929  13.147 -0.7559 -0.6295  0.9182
 8307TIP3    H246337   1.880   0.873  13.010  1.4517 -0.2509  1.2118
 8308TIP3   OH246338   3.585   0.610  15.419 -0.4077 -0.1370 -0.1857
 8308TIP3    H146339   3.495   0.578  15.410 -1.1266  1.7322 -0.1317
 8308TIP3    H246340   3.613   0.628  15.329  0.2270 -1.4472 -0.2702
 8309TIP3   OH246341   0.894   0.096  11.458  1.3073  0.9260  0.7069
 8309TIP3    H146342   0.814   0.132  11.419  1.2471  0.5820  0.5014
 8309TIP3    H246343   0.883   0.110  11.552  0.4575 -0.1554  0.7989
 8310TIP3   OH246344   5.044   5.403   4.197 -0.2621  0.1477  0.2963
 8310TIP3    H146345   5.100   5.325   4.186 -0.5980 -0.1505  0.6858
 8310TIP3    H246346   5.008   5.395   4.285 -1.8796 -0.2957 -0.3686
 8311TIP3   OH246347   2.043   4.639   4.591 -0.3408 -0.1127  0.5357
 8311TIP3    H146348   1.962   4.613   4.634  0.4447 -0.6927  1.7558
 8311TIP3    H246349   2.110   4.585   4.634  0.4608 -1.0227 -1.7326
 8312TIP3   OH246350   0.944   3.066   0.872 -0.1517  0.8858  0.0246
 8312TIP3    H146351   0.876   3.130   0.851 -1.4287 -0.1891  0.6911
 8312TIP3    H246352   0.992   3.055   0.791 -0.1394  2.4021 -0.1980
 8313TIP3   OH246353   5.003   2.185  13.764  0.0539  0.4613 -0.0266
 8313TIP3    H146354   5.022   2.141  13.681  0.5028 -0.0474  0.3355
 8313TIP3    H246355   5.081   2.169  13.817 -0.6668 -0.1431  0.8674
 8314TIP3   OH246356   4.141   1.276   0.348 -0.7979  0.2190  0.2419
 8314TIP3    H146357   4.048   1.259   0.335 -0.8111  0.4403  0.0252
 8314TIP3    H246358   4.174   1.198   0.391 -0.9839 -0.0715 -0.1404
 8315TIP3   OH246359   1.075   1.896   5.486  0.0257  0.5932  0.4661
 8315TIP3    H146360   0.990   1.910   5.444 -0.0131  0.7736  0.6070
 8315TIP3    H246361   1.138   1.910   5.416 -0.0446  0.7732  0.4391
 8316TIP3   OH246362   3.347   6.370  11.292 -0.1227 -1.0876 -0.2969
 8316TIP3    H146363   3.334   6.276  11.301 -0.6412 -1.1964 -1.9029
 8316TIP3    H246364   3.269   6.402  11.248  0.0985  0.0914  0.1129
 8317TIP3   OH246365   0.313   2.703   3.010  0.4469  0.7853 -0.2355
 8317TIP3    H146366   0.335   2.766   3.079  1.1605  0.2563  0.0369
 8317TIP3    H246367   0.355   2.738   2.932 -1.8239  2.3209 -0.8528
 8318TIP3   OH246368   1.451   3.872  14.160  0.2657  0.7555 -0.2113
 8318TIP3    H146369   1.476   3.804  14.098 -1.4813 -0.5474  0.4342
 8318TIP3    H246370   1.387   3.925  14.114 -1.2354 -0.3729  0.4850
 8319TIP3   OH246371   1.223   6.397  16.196  0.2287 -0.8297 -0.3447
 8319TIP3    H146372   1.241   6.483  16.159  1.6914 -0.8656  0.2235
 8319TIP3    H246373   1.129   6.396  16.211  0.2035  0.7022 -0.2936
 8320TIP3   OH246374   2.241   6.447   4.462  0.3536  0.3408 -0.0776
 8320TIP3    H146375   2.171   6.482   4.518 -0.5306 -1.3293 -0.0676
 8320TIP3    H246376   2.307   6.416   4.524  0.3462  0.4144 -0.0323
 8321TIP3   OH246377   1.315   0.676  13.754  0.3286  0.3724 -0.2644
 8321TIP3    H146378   1.394   0.723  13.727  0.6442  0.2004  0.3238
 8321TIP3    H246379   1.279   0.639  13.674  2.4286 -1.9902 -0.2539
 8322TIP3   OH246380   2.383   1.532   1.659 -0.5252 -0.1509 -0.5023
 8322TIP3    H146381   2.307   1.553   1.604 -0.8466  0.4784  0.1593
 8322TIP3    H246382   2.348   1.473   1.726 -0.5422  0.4772  0.0567
 8323TIP3   OH246383   1.780   4.894  12.145  0.7368  0.0213 -0.4789
 8323TIP3    H146384   1.723   4.873  12.219  1.9570  1.7878  1.0577
 8323TIP3    H246385   1.723   4.943  12.085  0.4887  1.4777  0.8737
 8324TIP3   OH246386   5.222   3.893  11.236  0.4617  0.4337 -0.0715
 8324TIP3    H146387   5.285   3.883  11.308 -1.0428 -0.4478  1.1794
 8324TIP3    H246388   5.174   3.973  11.257 -0.8141 -0.4785  0.6174
 8325TIP3   OH246389   2.042   4.228  10.928  0.1433  0.1241 -0.4452
 8325TIP3    H146390   1.989   4.176  10.868  0.2701  1.2425 -1.5580
 8325TIP3    H246391   2.132   4.198  10.913 -0.0025 -0.8772  0.5317
 8326TIP3   OH246392   2.025   4.579  15.322  0.7459 -0.1928 -0.1723
 8326TIP3    H146393   2.031   4.584  15.227  0.7992  0.5669 -0.1330
 8326TIP3    H246394   2.081   4.650  15.354  0.3318 -0.1174  0.4124
 8327TIP3   OH246395   3.718   5.701   5.008 -0.3172 -0.1896  0.0896
 8327TIP3    H146396   3.654   5.645   5.052  0.9352  0.0903  2.4507
 8327TIP3    H246397   3.799   5.649   5.008 -0.0055  0.2636 -0.9703
 8328TIP3   OH246398   2.638   1.137   0.378 -0.0840 -0.7056  0.2279
 8328TIP3    H146399   2.617   1.062   0.433  0.4040 -3.1681 -2.6507
 8328TIP3    H246400   2.561   1.148   0.322  1.6058 -2.3590 -2.6457
 8329TIP3   OH246401   3.187   4.690   5.345 -0.1458  0.1817  0.7113
 8329TIP3    H146402   3.249   4.661   5.278 -2.9705 -0.8595 -1.6840
 8329TIP3    H246403   3.196   4.626   5.415  0.7360 -0.5757 -0.0676
 8330TIP3   OH246404   2.314   5.725  15.524  0.2394 -0.3818  1.0289
 8330TIP3    H146405   2.361   5.642  15.526  0.6344 -0.2394 -0.5864
 8330TIP3    H246406   2.222   5.701  15.530  0.1379 -1.2402 -2.1819
 8331TIP3   OH246407   0.126   6.018  12.736  0.2671 -0.0031  0.2602
 8331TIP3    H146408   0.179   5.984  12.808  1.1972  2.0668  0.6287
 8331TIP3    H246409   0.190   6.053  12.674 -0.4595 -2.4857 -2.0774
 8332TIP3   OH246410   0.675   2.242   5.424 -0.3264  0.5635 -0.7094
 8332TIP3    H146411   0.741   2.267   5.359  0.0043 -1.6638 -1.2970
 8332TIP3    H246412   0.725   2.199   5.493 -1.0306 -0.0886 -0.5993
 8333TIP3   OH246413   6.763   1.767   3.206 -0.4340  0.0046 -0.0856
 8333TIP3    H146414   6.670   1.763   3.184 -1.0824 -0.6910  2.4877
 8333TIP3    H246415   6.784   1.860   3.202 -2.4422  0.7991  3.3088
 8334TIP3   OH246416   0.773   3.955   4.322 -0.9258  0.1283 -0.3762
 8334TIP3    H146417   0.716   3.878   4.315 -1.9048  0.7062  0.8058
 8334TIP3    H246418   0.733   4.020   4.264  0.0404 -0.3177 -1.5640
 8335TIP3   OH246419   5.746   5.275   6.007 -0.9153  0.6477  0.1169
 8335TIP3    H146420   5.763   5.249   6.098  1.4078  1.0386 -0.1474
 8335TIP3    H246421   5.737   5.370   6.010  0.6703  0.8366 -0.2136
 8336TIP3   OH246422   2.924   4.454   0.599  0.4106  0.5530 -0.4550
 8336TIP3    H146423   2.836   4.459   0.562 -0.6929 -0.5507  1.8426
 8336TIP3    H246424   2.965   4.381   0.553  0.9633  2.2755 -2.9655
 8337TIP3   OH246425   4.651   1.441   4.777 -0.0320  0.1689  0.0896
 8337TIP3    H146426   4.696   1.484   4.850  0.6570  0.3720 -0.4400
 8337TIP3    H246427   4.685   1.352   4.778  1.3513  0.6416 -1.0524
 8338TIP3   OH246428   1.913   4.620   2.691 -0.0952  0.2781  0.2430
 8338TIP3    H146429   1.881   4.617   2.600  1.6396  0.0252 -0.3901
 8338TIP3    H246430   1.951   4.533   2.705 -0.5076  0.2565  1.2997
 8339TIP3   OH246431   4.116   1.174  15.792 -0.2522 -0.0885  0.3151
 8339TIP3    H146432   4.138   1.195  15.701 -1.8823 -2.3595 -0.7107
 8339TIP3    H246433   4.182   1.111  15.819 -0.1129  0.1358  0.4997
 8340TIP3   OH246434   4.273   5.534   3.633 -0.0120 -0.4567  0.2545
 8340TIP3    H146435   4.361   5.502   3.612 -0.0850 -1.9950  1.9312
 8340TIP3    H246436   4.280   5.567   3.723 -1.0993 -0.5102  0.3828
 8341TIP3   OH246437   4.380   0.358   1.443  0.2547  0.3622  0.0386
 8341TIP3    H146438   4.450   0.329   1.501 -0.9572 -3.1896 -0.0385
 8341TIP3    H246439   4.403   0.324   1.357 -1.8971 -1.8529  0.2030
 8342TIP3   OH246440   1.897   3.814   4.055 -0.0033 -0.0798 -0.8510
 8342TIP3    H146441   1.876   3.778   4.141  2.5726 -0.5356 -0.3123
 8342TIP3    H246442   1.827   3.875   4.036  0.1412  1.2575  2.3402
 8343TIP3   OH246443   1.002   2.615  15.965 -0.1743 -0.2353  0.1717
 8343TIP3    H146444   0.984   2.686  16.027 -1.4734 -0.2184 -0.2084
 8343TIP3    H246445   1.001   2.535  16.018  0.9365 -0.0250  0.5379
 8344TIP3   OH246446   3.416   3.835  13.143 -0.2947 -0.0773  0.6690
 8344TIP3    H146447   3.335   3.806  13.103 -0.7092 -0.9807  2.0828
 8344TIP3    H246448   3.388   3.889  13.217  0.3763 -0.6295  1.3409
 8345TIP3   OH246449   3.584   4.180  14.236  0.3995 -0.1265  0.3138
 8345TIP3    H146450   3.562   4.216  14.322  0.5481 -2.3545  1.3667
 8345TIP3    H246451   3.527   4.104  14.227  1.8742 -1.1759 -0.6024
 8346TIP3   OH246452   5.361   1.167  14.671  0.0814  0.4409  0.1782
 8346TIP3    H146453   5.403   1.234  14.724 -2.9290  2.0591  0.7161
 8346TIP3    H246454   5.340   1.097  14.732  0.1049  0.5618  0.3247
 8347TIP3   OH246455   6.335   3.647   4.711  0.5432  0.4845 -1.0009
 8347TIP3    H146456   6.311   3.557   4.688 -0.8923 -0.0574  2.0726
 8347TIP3    H246457   6.278   3.702   4.658 -3.0703 -0.6712  1.2896
 8348TIP3   OH246458   5.594   2.780   1.996  0.1918 -0.4598  0.2150
 8348TIP3    H146459   5.604   2.874   2.010 -0.3224 -0.2036 -1.0459
 8348TIP3    H246460   5.675   2.753   1.954 -0.7282 -0.0246 -1.9728
 8349TIP3   OH246461   6.170   2.451  16.416  0.4143 -0.0217  0.4933
 8349TIP3    H146462   6.090   2.504  16.417 -0.0382 -0.6939  0.2464
 8349TIP3    H246463   6.155   2.385  16.348  1.8071  0.7985 -0.6771
 8350TIP3   OH246464   3.597   3.095  15.151 -0.1164 -0.1767  0.8309
 8350TIP3    H146465   3.659   3.022  15.155  0.3064 -0.0269 -1.4891
 8350TIP3    H246466   3.512   3.055  15.166  0.1171 -1.1923 -0.3327
 8351TIP3   OH246467   1.050   3.939  12.632  0.1525  0.2159 -0.9136
 8351TIP3    H146468   0.997   3.911  12.557  0.8062 -3.5440 -0.1480
 8351TIP3    H246469   1.113   4.001  12.594 -1.6724  1.0809 -2.7307
 8352TIP3   OH246470   0.437   6.018   3.101  0.2449 -0.6365  0.2736
 8352TIP3    H146471   0.438   6.000   3.007  0.7080 -1.4898  0.4326
 8352TIP3    H246472   0.349   5.992   3.129 -0.0362  0.0144  0.0084
 8353TIP3   OH246473   5.589   5.566   5.548  0.2173 -0.6983 -0.9153
 8353TIP3    H146474   5.575   5.642   5.491  2.5930  0.7582  0.2745
 8353TIP3    H246475   5.681   5.573   5.575 -0.2581 -2.4268  1.5058
 8354TIP3   OH246476   5.714   2.787  15.510 -0.1425  0.1363  0.4021
 8354TIP3    H146477   5.741   2.879  15.518 -1.2714  0.3836  1.5127
 8354TIP3    H246478   5.712   2.755  15.600 -2.5868 -0.1304  0.3110
 8355TIP3   OH246479   5.813   0.560   2.026  0.3525 -0.1744  0.1593
 8355TIP3    H146480   5.849   0.555   2.114  0.3407  0.0238  0.1753
 8355TIP3    H246481   5.804   0.468   1.999  0.8528 -0.2258  0.1594
 8356TIP3   OH246482   3.605   3.461  15.290  0.6338 -0.5757 -0.7348
 8356TIP3    H146483   3.527   3.444  15.342  0.7541  0.2398 -0.2894
 8356TIP3    H246484   3.586   3.420  15.205  0.4940 -2.0210 -0.0379
 8357TIP3   OH246485   2.574   3.746  12.209 -0.0367  0.4231 -0.3407
 8357TIP3    H146486   2.495   3.699  12.184  0.8261 -0.3369 -1.7355
 8357TIP3    H246487   2.596   3.712  12.296 -0.4148 -0.4399 -0.5765
 8358TIP3   OH246488   3.697   4.717   3.879  0.5739  0.0939 -0.1718
 8358TIP3    H146489   3.678   4.701   3.786 -0.3981 -0.6048  0.1336
 8358TIP3    H246490   3.616   4.695   3.924 -0.4705  4.4562  0.4901
 8359TIP3   OH246491   5.432   5.997   0.640 -0.6951  0.2327  0.2590
 8359TIP3    H146492   5.517   6.008   0.682 -1.2954  0.2984  1.5319
 8359TIP3    H246493   5.429   6.065   0.573  0.6763 -0.4734 -0.5498
 8360TIP3   OH246494   1.155   3.481  11.198  0.1948 -0.0023 -0.1606
 8360TIP3    H146495   1.117   3.438  11.121  0.1852  0.6413 -0.5220
 8360TIP3    H246496   1.080   3.500  11.254  0.3869 -2.4220  1.0541
 8361TIP3   OH246497   3.914   2.161  13.803 -0.4486 -0.5894 -0.9069
 8361TIP3    H146498   3.967   2.205  13.870 -0.3378 -0.3723 -1.1359
 8361TIP3    H246499   3.826   2.195  13.816 -0.6027 -1.1821 -0.3236
 8362TIP3   OH246500   3.685   5.223  14.584  0.0313  0.0785  0.7973
 8362TIP3    H146501   3.714   5.296  14.529 -2.1210  1.3846  1.2765
 8362TIP3    H246502   3.711   5.145  14.536  1.7622  1.1359 -0.0926
 8363TIP3   OH246503   6.526   3.922   1.421  0.5005 -0.1961  0.0271
 8363TIP3    H146504   6.466   3.857   1.385 -0.3983 -0.3557  1.7162
 8363TIP3    H246505   6.594   3.869   1.464 -0.3447 -0.0888  1.5867
 8364TIP3   OH246506   6.086   5.943   0.375 -0.5654 -0.2265  0.5281
 8364TIP3    H146507   6.036   5.969   0.298  1.4806 -0.9534 -1.1485
 8364TIP3    H246508   6.065   5.850   0.386  1.6417 -1.0296 -1.3048
 8365TIP3   OH246509   3.430   5.931   5.043 -0.1969  0.7246  0.1753
 8365TIP3    H146510   3.467   5.842   5.039 -0.2001  0.7405 -0.3464
 8365TIP3    H246511   3.421   5.949   5.136  0.4568  0.4449  0.3004
 8366TIP3   OH246512   0.057   2.494  12.937 -0.8961 -0.2717  0.0206
 8366TIP3    H146513   0.022   2.496  13.026 -0.1360 -0.7016  0.3419
 8366TIP3    H246514   0.114   2.417  12.936 -0.8622 -0.2408 -0.8248
 8367TIP3   OH246515   0.066   4.939   1.351 -0.2418  0.1043 -0.3297
 8367TIP3    H146516   0.001   4.869   1.346 -1.2136  1.0104 -0.7877
 8367TIP3    H246517   0.074   4.958   1.445  0.4387 -0.9575 -0.1509
 8368TIP3   OH246518   6.733   0.502   1.115  0.8819  0.7528 -0.3002
 8368TIP3    H146519   6.824   0.474   1.118 -0.0856 -2.7894  1.5187
 8368TIP3    H246520   6.708   0.493   1.023  1.8955 -0.0316 -0.5177
 8369TIP3   OH246521   3.548   2.294  16.546  0.1275 -0.1290 -0.2258
 8369TIP3    H146522   3.465   2.263  16.509  0.4255  0.1670 -1.1519
 8369TIP3    H246523   3.528   2.382  16.577  0.3938  0.4009 -1.5299
 8370TIP3   OH246524   1.593   1.108  15.164 -0.3592 -0.4217 -0.2650
 8370TIP3    H146525   1.647   1.132  15.239 -0.4717  0.1918 -0.3727
 8370TIP3    H246526   1.652   1.063  15.104 -0.5581 -2.1830  0.7761
 8371TIP3   OH246527   4.184   2.091   5.364  0.0525  0.0759 -0.4613
 8371TIP3    H146528   4.232   2.016   5.399 -1.2847 -0.7303 -0.2694
 8371TIP3    H246529   4.205   2.163   5.424  0.9156 -0.2830 -0.3214
 8372TIP3   OH246530   5.823   4.739   0.415  0.2363  0.1645  0.0631
 8372TIP3    H146531   5.908   4.731   0.458  0.4438  0.8886 -0.2004
 8372TIP3    H246532   5.797   4.830   0.431  1.2732  1.1383 -3.0333
 8373TIP3   OH246533   1.880   6.541  16.379  0.1610 -0.0072  0.2507
 8373TIP3    H146534   1.927   6.585  16.307 -0.9127  1.8303  0.6155
 8373TIP3    H246535   1.814   6.604  16.406 -1.1976 -1.7337  1.1182
 8374TIP3   OH246536   3.224   1.753  13.899 -0.3745  0.4667  0.2954
 8374TIP3    H146537   3.229   1.838  13.943 -2.3648  0.5815  0.3887
 8374TIP3    H246538   3.304   1.749  13.846 -0.4614  2.6291 -0.1223
 8375TIP3   OH246539   2.929   4.267  13.936 -0.2083 -0.5340 -0.4643
 8375TIP3    H146540   2.885   4.298  13.857 -0.6347  0.3243  0.1030
 8375TIP3    H246541   2.899   4.176  13.945 -0.3157 -0.5790 -1.1716
 8376TIP3   OH246542   5.507   2.471   4.530 -0.2208  0.1228  0.0866
 8376TIP3    H146543   5.577   2.536   4.525 -1.5759  1.6722  0.5194
 8376TIP3    H246544   5.467   2.485   4.616  0.2901 -2.2267  0.7842
 8377TIP3   OH246545   2.626   1.124  12.193 -0.5543 -0.2538  0.4062
 8377TIP3    H146546   2.549   1.097  12.243  0.7776 -2.1761  1.5264
 8377TIP3    H246547   2.598   1.118  12.102 -1.6074 -1.3787  0.7788
 8378TIP3   OH246548   5.874   1.155   0.713  0.1636  0.0182 -0.0262
 8378TIP3    H146549   5.908   1.129   0.799  1.2782 -0.9535 -0.7238
 8378TIP3    H246550   5.951   1.188   0.666 -0.1593 -0.6271 -1.0566
 8379TIP3   OH246551   0.538   0.751  14.066  0.3137  0.6822 -0.1170
 8379TIP3    H146552   0.599   0.798  14.123  0.1545  1.2936 -0.4413
 8379TIP3    H246553   0.593   0.718  13.995  0.2211  1.5291 -0.5916
 8380TIP3   OH246554   0.921   2.560   4.673  0.4270  0.1698  0.7123
 8380TIP3    H146555   0.972   2.486   4.706  0.8819 -0.3090 -0.9903
 8380TIP3    H246556   0.980   2.606   4.614 -1.3698 -1.0593 -2.2392
 8381TIP3   OH246557   6.681   6.579  14.806  0.6854 -0.7292  0.6273
 8381TIP3    H146558   6.736   6.513  14.849 -0.4244 -0.7838  2.0683
 8381TIP3    H246559   6.732   6.659  14.809  1.8957 -1.4099 -0.7964
 8382TIP3   OH246560   2.804   2.433  16.679  0.1611 -0.2237 -0.5877
 8382TIP3    H146561   2.768   2.349  16.652  0.2952 -0.1064 -1.1408
 8382TIP3    H246562   2.899   2.423  16.669  0.1819 -0.0301 -0.5944
 8383TIP3   OH246563   2.253   4.153  13.627 -0.3013  0.7456 -0.6592
 8383TIP3    H146564   2.240   4.208  13.704  1.9537 -0.8193  0.9606
 8383TIP3    H246565   2.294   4.211  13.563  1.2209  1.2131  0.6773
 8384TIP3   OH246566   6.548   2.728   4.927 -0.7352  0.7378  0.1963
 8384TIP3    H146567   6.606   2.685   4.864 -1.2667 -0.6647  0.6192
 8384TIP3    H246568   6.510   2.801   4.879 -1.4300 -0.5358 -1.2837
 8385TIP3   OH246569   3.297   6.554  12.489  0.1970  0.6654  0.4445
 8385TIP3    H146570   3.246   6.507  12.423 -1.2688  0.6408  1.5441
 8385TIP3    H246571   3.274   6.646  12.476  1.3533  0.8683 -0.2700
 8386TIP3   OH246572   0.164   5.255   2.071 -0.2368 -0.0464  1.0341
 8386TIP3    H146573   0.209   5.282   1.991 -2.1153 -1.2937 -0.5067
 8386TIP3    H246574   0.189   5.322   2.135 -0.2277  2.1228 -1.1016
 8387TIP3   OH246575   1.039   4.732  13.368  0.1195  0.2168  0.7009
 8387TIP3    H146576   1.134   4.726  13.368  0.1365  0.3458 -0.3656
 8387TIP3    H246577   1.019   4.807  13.312 -0.6194  0.1045  0.7993
 8388TIP3   OH246578   4.326   0.529   2.878 -0.1596 -0.2867  0.3692
 8388TIP3    H146579   4.343   0.617   2.844  0.6138 -0.2445  0.8466
 8388TIP3    H246580   4.241   0.537   2.922 -0.3612  0.0755 -0.0664
 8389TIP3   OH246581   6.785   3.819   4.654  0.1316 -0.3845 -0.1332
 8389TIP3    H146582   6.849   3.858   4.713  1.4012 -2.3123 -0.1505
 8389TIP3    H246583   6.837   3.763   4.596 -1.4539 -1.0894 -0.9260
 8390TIP3   OH246584   5.866   5.447  13.017 -0.1677  0.4270  0.8643
 8390TIP3    H146585   5.812   5.505  12.964  0.6804 -0.2515 -0.8060
 8390TIP3    H246586   5.862   5.363  12.973  1.6255  0.1659  1.1034
 8391TIP3   OH246587   4.820   4.581  11.458  0.2608 -0.1575 -0.0645
 8391TIP3    H146588   4.792   4.666  11.423  1.0479  0.6065  1.0788
 8391TIP3    H246589   4.740   4.530  11.465 -0.1506  0.2908 -1.2753
 8392TIP3   OH246590   1.451   4.376   0.289 -0.2640  0.3479 -0.6754
 8392TIP3    H146591   1.430   4.470   0.291 -0.1783  0.4852 -3.1879
 8392TIP3    H246592   1.531   4.369   0.342 -0.0945  1.7548 -0.6979
 8393TIP3   OH246593   5.267   1.708  14.674 -0.2468 -0.1081 -0.1450
 8393TIP3    H146594   5.290   1.617  14.655  1.4529  0.3543 -0.4281
 8393TIP3    H246595   5.194   1.727  14.614 -1.0566 -1.4458  0.3606
 8394TIP3   OH246596   1.875   4.314   2.349  0.0989 -0.2727  0.2885
 8394TIP3    H146597   1.932   4.323   2.272 -0.4654 -0.8879 -0.2171
 8394TIP3    H246598   1.805   4.378   2.335 -1.0904 -1.7109 -0.7336
 8395TIP3   OH246599   2.710   0.156   2.920 -0.1132 -0.0064  0.1813
 8395TIP3    H146600   2.686   0.178   3.010  1.2552 -2.3716  1.2045
 8395TIP3    H246601   2.667   0.072   2.904  2.2716 -1.2230 -0.1570
 8396TIP3   OH246602   0.221   2.221   2.545 -0.1495  0.5325 -0.5288
 8396TIP3    H146603   0.216   2.140   2.494  1.3692  0.4255 -0.5720
 8396TIP3    H246604   0.303   2.213   2.594  0.0774  2.0792 -0.6111
 8397TIP3   OH246605   6.481   0.172  12.949 -0.0768 -0.2003  0.1265
 8397TIP3    H146606   6.550   0.112  12.978  0.0618  0.3347  0.9632
 8397TIP3    H246607   6.517   0.259  12.966 -0.6409  0.0966 -0.1872
 8398TIP3   OH246608   1.824   5.170  12.033 -0.0342 -0.0733 -0.9270
 8398TIP3    H146609   1.731   5.189  12.017 -0.2877 -1.5003 -1.3011
 8398TIP3    H246610   1.865   5.178  11.946  0.3519  1.2038 -0.6586
 8399TIP3   OH246611   5.395   4.199   0.218 -0.2474  0.0653 -0.0388
 8399TIP3    H146612   5.353   4.117   0.190  0.4578 -0.2379 -0.2327
 8399TIP3    H246613   5.399   4.192   0.314  1.2567 -0.8738 -0.1347
 8400TIP3   OH246614   6.097   4.485  11.432  0.2721  1.0786  0.6227
 8400TIP3    H146615   6.062   4.524  11.352  1.8010  1.5567  0.1385
 8400TIP3    H246616   6.040   4.518  11.501 -0.2631  1.7716 -0.1215
 8401TIP3   OH246617   1.344   1.880  16.267 -0.6592  0.3544 -0.3976
 8401TIP3    H146618   1.315   1.945  16.203 -1.7860  0.8508  0.5775
 8401TIP3    H246619   1.262   1.846  16.304 -0.0431 -0.6835  0.0323
 8402TIP3   OH246620   1.527   3.182  13.957  0.6121  0.5695  0.0969
 8402TIP3    H146621   1.588   3.156  14.026 -0.3757  0.9607  1.1509
 8402TIP3    H246622   1.550   3.126  13.883  1.2307 -0.3749  0.9699
 8403TIP3   OH246623   0.279   4.169  13.901 -0.0875 -0.2592  0.0559
 8403TIP3    H146624   0.368   4.135  13.892  0.4870  0.8357  1.2678
 8403TIP3    H246625   0.290   4.256  13.938 -1.6152  0.5143 -1.1962
 8404TIP3   OH246626   1.536   4.659   4.810  0.3816 -1.0246  0.0422
 8404TIP3    H146627   1.618   4.627   4.848  0.6313  0.4857  0.8320
 8404TIP3    H246628   1.510   4.732   4.866  0.3813  0.8537 -2.2625
 8405TIP3   OH246629   0.209   4.939  14.442 -0.2482  0.4786 -0.6580
 8405TIP3    H146630   0.229   4.980  14.526 -0.1885  2.9799 -1.8019
 8405TIP3    H246631   0.115   4.921  14.446  0.1764 -1.9207  0.8695
 8406TIP3   OH246632   3.334   2.165   1.240 -0.3030  1.0009 -0.2591
 8406TIP3    H146633   3.367   2.112   1.167 -0.7719  0.4769 -0.0988
 8406TIP3    H246634   3.407   2.222   1.263  0.6254 -0.3391  0.2843
 8407TIP3   OH246635   0.841   4.522   5.852  0.1352 -0.5455 -0.2607
 8407TIP3    H146636   0.780   4.591   5.876  0.0023 -0.5019 -0.7019
 8407TIP3    H246637   0.890   4.504   5.931  0.1724  0.0582 -0.1436
 8408TIP3   OH246638   1.968   0.896   1.752  0.0145 -0.1044  0.0204
 8408TIP3    H146639   1.971   0.805   1.722  0.1291  0.1769 -0.8768
 8408TIP3    H246640   1.901   0.898   1.820 -0.5180 -0.7139 -0.4780
 8409TIP3   OH246641   6.414   3.209   2.154  0.0493  0.1671 -0.1915
 8409TIP3    H146642   6.432   3.231   2.063  0.0445 -2.0748 -0.7828
 8409TIP3    H246643   6.378   3.120   2.151  0.0639  0.0344  2.0012
 8410TIP3   OH246644   1.829   4.055  14.951 -0.1604 -0.0859 -0.0671
 8410TIP3    H146645   1.868   3.975  14.986  0.9177  0.3588 -0.2151
 8410TIP3    H246646   1.803   4.032  14.862 -1.2084 -0.6802  0.3684
 8411TIP3   OH246647   0.289   6.098   0.756  0.0199  0.0312 -0.0171
 8411TIP3    H146648   0.316   6.171   0.701 -0.7968  0.2306 -0.1762
 8411TIP3    H246649   0.212   6.062   0.711 -0.1328 -0.3513  0.5359
 8412TIP3   OH246650   2.538   5.075   1.590 -1.0375 -0.3947  0.5713
 8412TIP3    H146651   2.511   5.166   1.597 -2.0388 -0.6434  0.0679
 8412TIP3    H246652   2.552   5.061   1.497  0.5652 -0.3676  0.7809
 8413TIP3   OH246653   4.491   2.936  15.598  0.1277  0.3685  0.3218
 8413TIP3    H146654   4.528   2.872  15.659  1.2072 -0.4415 -1.1284
 8413TIP3    H246655   4.527   3.020  15.627 -0.5051  0.2029  1.6397
 8414TIP3   OH246656   6.463   1.450   0.404 -0.2390 -0.1864 -0.1111
 8414TIP3    H146657   6.522   1.490   0.468 -1.6644  1.7784  0.0675
 8414TIP3    H246658   6.520   1.425   0.331  0.8139  2.0103 -0.1249
 8415TIP3   OH246659   3.990   0.924   0.847 -0.3039  0.0936 -0.0790
 8415TIP3    H146660   4.078   0.954   0.869 -0.0964  0.2951 -1.1365
 8415TIP3    H246661   3.960   0.877   0.925  1.7094 -2.1728 -0.5528
 8416TIP3   OH246662   5.100   2.314  14.113 -0.1073  0.2847  0.1740
 8416TIP3    H146663   5.134   2.227  14.089  0.6468 -0.0128  2.1380
 8416TIP3    H246664   5.040   2.296  14.185 -1.3949  1.2415 -0.6244
 8417TIP3   OH246665   5.723   4.752   5.759  0.2790 -0.2323 -0.4846
 8417TIP3    H146666   5.634   4.717   5.752  0.3687 -0.5447 -0.1103
 8417TIP3    H246667   5.780   4.675   5.758  0.4418 -0.1748  1.0340
 8418TIP3   OH246668   5.166   1.368   4.147 -0.5683  0.1112 -0.6256
 8418TIP3    H146669   5.080   1.340   4.179 -0.8189  0.3216 -1.1115
 8418TIP3    H246670   5.165   1.464   4.155 -0.0044  0.0591  0.2961
 8419TIP3   OH246671   4.324   5.496   5.757 -0.4949 -0.1144  0.2880
 8419TIP3    H146672   4.301   5.569   5.814  1.4005  0.8436 -0.0934
 8419TIP3    H246673   4.304   5.528   5.668 -2.6868 -1.3035  0.2936
 8420TIP3   OH246674   6.349   6.669  11.049  0.4612  0.3626  0.1737
 8420TIP3    H146675   6.257   6.666  11.023  0.1552  0.3961  1.2064
 8420TIP3    H246676   6.382   6.581  11.032 -0.2820 -0.2171  1.5659
 8421TIP3   OH246677   0.925   5.696   1.058  0.4724 -0.3671 -0.0625
 8421TIP3    H146678   0.869   5.661   1.128  1.0768 -0.1139  0.5625
 8421TIP3    H246679   0.865   5.741   0.999  0.0621  0.3441  0.8738
 8422TIP3   OH246680   3.014   0.157   1.545  0.2056  0.0335 -0.6973
 8422TIP3    H146681   3.020   0.230   1.484  1.2900  1.3583  0.8957
 8422TIP3    H246682   2.939   0.180   1.601  1.0448  0.3623  0.3147
 8423TIP3   OH246683   2.462   5.775  13.303  0.1162 -0.5330 -0.0702
 8423TIP3    H146684   2.391   5.836  13.322 -0.5992 -1.4429  0.2752
 8423TIP3    H246685   2.537   5.808  13.353 -0.3982 -0.2117  0.4944
 8424TIP3   OH246686   0.616   6.565   2.048 -0.1926  0.7838 -0.4247
 8424TIP3    H146687   0.533   6.555   2.094 -0.9105  2.3347 -1.2899
 8424TIP3    H246688   0.683   6.558   2.116 -0.9489 -1.2861  0.1738
 8425TIP3   OH246689   0.862   4.336   3.153  0.5981 -0.2216 -0.6757
 8425TIP3    H146690   0.921   4.261   3.147 -1.6508 -2.0386 -1.4795
 8425TIP3    H246691   0.817   4.325   3.237 -2.2966 -1.9251 -2.2875
 8426TIP3   OH246692   3.079   5.031   4.327 -0.4752  0.1908 -0.2319
 8426TIP3    H146693   3.090   4.939   4.305  1.4420  0.2551  0.3158
 8426TIP3    H246694   3.164   5.058   4.362 -1.8172  1.3994  2.4310
 8427TIP3   OH246695   6.423   0.566  14.912 -0.0015 -0.0220 -0.1940
 8427TIP3    H146696   6.482   0.492  14.928  1.4998  1.1575 -0.0350
 8427TIP3    H246697   6.337   0.526  14.900  0.7987 -1.8046 -0.3174
 8428TIP3   OH246698   1.432   3.401   3.199  0.8309  0.4235  0.3180
 8428TIP3    H146699   1.478   3.471   3.152  0.7087 -0.2312 -0.7927
 8428TIP3    H246700   1.398   3.444   3.277  1.4565  1.4209  0.0641
 8429TIP3   OH246701   4.118   3.820  12.997  0.3212 -0.1349  0.0576
 8429TIP3    H146702   4.166   3.901  13.012  0.1890  0.0047 -0.2607
 8429TIP3    H246703   4.177   3.768  12.942  0.5841 -0.4293  0.6155
 8430TIP3   OH246704   3.405   1.084   3.688  0.6326 -0.2035 -0.2753
 8430TIP3    H146705   3.355   1.042   3.619 -0.4879  1.1044 -0.3046
 8430TIP3    H246706   3.497   1.068   3.665  0.2876 -2.6883 -0.1994
 8431TIP3   OH246707   2.847   3.764   4.398 -0.1428  0.0359  0.0993
 8431TIP3    H146708   2.878   3.698   4.459  0.0618 -0.3108 -0.3757
 8431TIP3    H246709   2.759   3.787   4.430 -0.2486 -0.5235  0.2209
 8432TIP3   OH246710   0.252   0.443  11.502 -0.1080  0.3558 -0.4385
 8432TIP3    H146711   0.300   0.385  11.562 -0.3240  0.2284 -0.3881
 8432TIP3    H246712   0.307   0.448  11.424 -0.0831  0.0938 -0.4371
 8433TIP3   OH246713   5.169   5.100   5.402  0.6966  0.6146  0.0746
 8433TIP3    H146714   5.249   5.150   5.385  1.4518 -0.8002 -0.7485
 8433TIP3    H246715   5.196   5.029   5.461 -0.0063  0.2851  0.0208
 8434TIP3   OH246716   2.424   4.021   2.731 -0.7258 -0.2654 -0.6245
 8434TIP3    H146717   2.439   4.042   2.639  0.4285  0.0266 -0.3807
 8434TIP3    H246718   2.345   3.967   2.730 -0.2002 -1.0616 -1.8906
 8435TIP3   OH246719   0.709   2.566   3.984  0.2382  0.1571  0.9078
 8435TIP3    H146720   0.752   2.561   3.898 -0.2157  0.0854  0.6846
 8435TIP3    H246721   0.778   2.599   4.043  0.7320 -0.3750  0.6428
 8436TIP3   OH246722   6.370   4.473   1.658  0.1917  0.2451 -0.0153
 8436TIP3    H146723   6.317   4.510   1.587  0.5069 -0.3068 -0.5444
 8436TIP3    H246724   6.439   4.425   1.614 -0.7134 -1.7495  0.6244
 8437TIP3   OH246725   4.503   6.358  17.000 -0.3387  0.2690  0.1288
 8437TIP3    H146726   4.543   6.273  16.983  2.4838  1.8809 -2.2086
 8437TIP3    H246727   4.439   6.370  16.930 -0.3039  0.3253  0.1063
 8438TIP3   OH246728   3.364   0.009  16.128 -0.1657 -0.3687 -0.2840
 8438TIP3    H146729   3.433   0.050  16.075 -0.9592  1.4260 -0.0141
 8438TIP3    H246730   3.409  -0.018  16.208  0.1772  1.1559  0.0643
 8439TIP3   OH246731   5.198   1.695   3.590 -0.4463 -0.0715  0.9119
 8439TIP3    H146732   5.208   1.601   3.605  1.1751  0.0781  0.9578
 8439TIP3    H246733   5.161   1.729   3.672 -0.4093 -0.5738  1.1409
 8440TIP3   OH246734   3.907   0.384  12.380 -0.2099 -0.0205  0.5238
 8440TIP3    H146735   3.825   0.337  12.396  0.3416 -1.6845 -1.2475
 8440TIP3    H246736   3.882   0.457  12.323 -0.7361  0.6582  1.5910
 8441TIP3   OH246737   3.741   6.622   0.589 -0.4535 -0.3308  0.0352
 8441TIP3    H146738   3.678   6.670   0.642  0.8079 -0.2069  1.4880
 8441TIP3    H246739   3.688   6.561   0.537 -1.9077  1.2149 -0.3731
 8442TIP3   OH246740   2.506   2.419  15.498  0.3199  0.4233  0.5615
 8442TIP3    H146741   2.452   2.454  15.570 -0.9122 -0.1114 -0.0708
 8442TIP3    H246742   2.463   2.450  15.419  0.7461 -0.3118  0.0309
 8443TIP3   OH246743   2.823   0.502   5.247  0.3726  0.2730 -0.3327
 8443TIP3    H146744   2.821   0.590   5.283  1.2946 -0.1974  0.9181
 8443TIP3    H246745   2.916   0.484   5.231  0.2364 -0.6269 -0.1680
 8444TIP3   OH246746   5.993   6.458  11.614 -0.0882  0.0906 -0.2675
 8444TIP3    H146747   5.972   6.457  11.707 -0.3964 -1.2207 -0.3239
 8444TIP3    H246748   5.918   6.500  11.572  1.5602  4.0780  0.3161
 8445TIP3   OH246749   4.747   6.506  12.271 -0.5847  0.3083 -0.0630
 8445TIP3    H146750   4.660   6.522  12.307 -0.7902 -0.7527 -0.0550
 8445TIP3    H246751   4.793   6.458  12.340  0.2214  1.3876  0.1704
 8446TIP3   OH246752   6.249   3.578  16.250 -0.1817 -0.1507  0.2024
 8446TIP3    H146753   6.203   3.621  16.323  0.7454 -0.8116  1.2010
 8446TIP3    H246754   6.225   3.486  16.258  0.3559 -0.3097  0.0084
 8447TIP3   OH246755   4.372   0.318   4.968 -0.4377 -0.8131 -0.4540
 8447TIP3    H146756   4.322   0.251   5.016 -1.4715  0.3853  0.1842
 8447TIP3    H246757   4.346   0.401   5.007  0.3042  0.0433 -1.6895
 8448TIP3   OH246758   2.100   3.929   3.067  0.0834  0.3608 -0.3732
 8448TIP3    H146759   2.134   3.994   3.005  0.4754  0.2508 -0.2712
 8448TIP3    H246760   2.074   3.980   3.143 -1.4252  0.6417 -1.0333
 8449TIP3   OH246761   5.725   3.690   0.458 -0.0164 -0.7889  0.1530
 8449TIP3    H146762   5.720   3.780   0.490  0.0013 -0.3824 -0.9449
 8449TIP3    H246763   5.747   3.638   0.536  4.0435  0.6170  0.1807
 8450TIP3   OH246764   1.639   2.129  13.252 -0.4963 -0.1167 -0.0387
 8450TIP3    H146765   1.608   2.192  13.316 -1.9256  0.1291 -0.9313
 8450TIP3    H246766   1.670   2.182  13.178  1.4006 -0.3844  0.5085
 8451TIP3   OH246767   1.363   5.578   2.066  0.0810  0.5089  0.1175
 8451TIP3    H146768   1.291   5.567   2.128 -0.2275 -1.7387 -0.5371
 8451TIP3    H246769   1.359   5.670   2.040 -1.8767  0.6899  0.9064
 8452TIP3   OH246770   5.788   3.063  13.435 -1.0638 -0.1366  0.0451
 8452TIP3    H146771   5.771   2.970  13.451  2.0840 -1.0612 -1.1577
 8452TIP3    H246772   5.841   3.090  13.511  0.1555 -0.0784 -0.7942
 8453TIP3   OH246773   5.256   4.608  15.282  0.0064 -0.4029 -0.2285
 8453TIP3    H146774   5.325   4.655  15.329  0.0401 -1.0820  0.4119
 8453TIP3    H246775   5.176   4.657  15.301  0.2331  0.1298 -0.6104
 8454TIP3   OH246776   6.721   4.581  16.572 -0.2923 -0.5577 -0.1647
 8454TIP3    H146777   6.656   4.648  16.592  0.6307  0.5965 -0.8694
 8454TIP3    H246778   6.699   4.508  16.629 -2.0148 -0.0876 -0.1807
 8455TIP3   OH246779   6.030   3.749   1.742 -0.0236  0.5094  0.3425
 8455TIP3    H146780   6.045   3.654   1.746  0.5296  0.5647 -0.2688
 8455TIP3    H246781   6.116   3.787   1.761 -0.3687  0.9031  1.1547
 8456TIP3   OH246782   5.818   5.264   0.794  0.4951 -0.1263 -0.4454
 8456TIP3    H146783   5.793   5.265   0.701  0.6783  0.4695 -0.4880
 8456TIP3    H246784   5.899   5.213   0.796  0.0016 -0.9384 -0.4821
 8457TIP3   OH246785   2.122   5.032  10.954  0.4620 -0.2901 -0.4535
 8457TIP3    H146786   2.171   4.960  10.915  1.4056  0.6220 -0.9945
 8457TIP3    H246787   2.032   5.001  10.956  0.5740 -0.8192 -2.2653
 8458TIP3   OH246788   0.772   5.792  15.376 -0.4906 -0.0543 -0.4200
 8458TIP3    H146789   0.729   5.765  15.294  1.9578 -1.3271 -1.4042
 8458TIP3    H246790   0.819   5.713  15.405  1.0991  1.1988  0.5837
 8459TIP3   OH246791   4.018   0.072   2.437  0.3296  0.4186 -0.4515
 8459TIP3    H146792   3.990   0.052   2.526 -0.0985  1.2149 -0.4031
 8459TIP3    H246793   4.112   0.054   2.438  0.0684 -1.1057 -0.2863
 8460TIP3   OH246794   3.412   1.218   1.341  0.2037 -0.3677 -0.8576
 8460TIP3    H146795   3.377   1.172   1.417 -3.8672  0.3489 -2.0333
 8460TIP3    H246796   3.478   1.159   1.306 -0.9902 -2.8229  0.6932
 8461TIP3   OH246797   2.212   4.607  15.891  0.5071  0.5816  0.5353
 8461TIP3    H146798   2.172   4.585  15.807  1.8134  1.2719 -0.2930
 8461TIP3    H246799   2.162   4.683  15.922  1.9189  2.2690 -1.1219
 8462TIP3   OH246800   5.969   4.088   0.529  0.0689  0.1030 -0.0854
 8462TIP3    H146801   6.000   3.998   0.536 -0.7997 -0.3006 -1.0492
 8462TIP3    H246802   5.995   4.129   0.611  0.1974 -1.1181  0.5143
 8463TIP3   OH246803   5.441   2.069   1.893  0.2029  0.6084  0.0007
 8463TIP3    H146804   5.368   2.128   1.910  1.8886  2.3210  1.9065
 8463TIP3    H246805   5.429   1.997   1.955 -0.6281  0.0748 -0.7492
 8464TIP3   OH246806   1.514   4.982   2.547 -0.3850 -0.5181  0.2208
 8464TIP3    H146807   1.596   4.933   2.557 -0.9332 -1.2433  1.4509
 8464TIP3    H246808   1.515   5.045   2.619 -1.2108 -1.0314  0.7093
 8465TIP3   OH246809   6.699   2.459   0.936  0.1546 -0.3048 -0.1324
 8465TIP3    H146810   6.734   2.378   0.898  0.8852  0.8295 -2.0452
 8465TIP3    H246811   6.686   2.439   1.028  0.6562 -2.4822 -0.4835
 8466TIP3   OH246812   4.707   0.307   3.782  0.4499  0.1609  0.1379
 8466TIP3    H146813   4.775   0.349   3.835 -0.8958  0.1835  1.9338
 8466TIP3    H246814   4.627   0.356   3.801 -0.9058 -2.2932  1.2866
 8467TIP3   OH246815   4.306   5.095   0.780 -0.3460 -0.1263 -0.1943
 8467TIP3    H146816   4.340   5.038   0.710 -1.0005 -0.5453 -0.1833
 8467TIP3    H246817   4.359   5.072   0.857  0.4755  0.4407 -0.5776
 8468TIP3   OH246818   3.183   0.322   0.055  0.3893  0.0030 -0.9134
 8468TIP3    H146819   3.192   0.377  -0.023 -1.3201 -0.0428 -1.1719
 8468TIP3    H246820   3.101   0.274   0.042  1.2920 -1.8262 -0.1967
 8469TIP3   OH246821   1.612   2.345   1.577 -0.4896  0.3395 -0.1447
 8469TIP3    H146822   1.557   2.277   1.616 -1.1728  0.0156 -1.5666
 8469TIP3    H246823   1.699   2.307   1.573 -0.5129  0.1983  0.5945
 8470TIP3   OH246824   6.065   4.540   3.039 -0.4211  0.5993 -0.4953
 8470TIP3    H146825   6.158   4.517   3.041 -1.0023 -2.0865 -0.4572
 8470TIP3    H246826   6.049   4.580   3.124  0.5492  0.4197 -0.2077
 8471TIP3   OH246827   1.069   6.670  10.446 -0.0445 -0.3161 -0.0473
 8471TIP3    H146828   0.986   6.692  10.404  0.5211 -1.8662 -2.1727
 8471TIP3    H246829   1.098   6.751  10.486 -1.4876  0.8383 -1.2163
 8472TIP3   OH246830   6.453   5.622  17.133  0.0736  0.1132  0.8134
 8472TIP3    H146831   6.431   5.649  17.222 -0.2792 -1.3170  1.1721
 8472TIP3    H246832   6.447   5.703  17.082  0.8881  1.0734  2.1825
 8473TIP3   OH246833   2.031   4.551   1.581 -0.2708 -0.1067 -0.1181
 8473TIP3    H146834   2.120   4.583   1.594 -0.8316  1.2451  0.5901
 8473TIP3    H246835   2.039   4.456   1.583  1.4933 -0.0929 -2.5256
 8474TIP3   OH246836   3.629   1.766  14.077  0.2427  0.4710 -0.7223
 8474TIP3    H146837   3.686   1.691  14.093  0.7221  0.7035 -1.2947
 8474TIP3    H246838   3.541   1.733  14.091  0.5331  0.2570  0.8035
 8475TIP3   OH246839   6.518   2.177   0.893 -0.1132  0.1721  0.0582
 8475TIP3    H146840   6.496   2.087   0.868  1.8301 -0.4201  0.3624
 8475TIP3    H246841   6.531   2.223   0.810  0.8162 -0.3419 -0.0886
 8476TIP3   OH246842   3.427   6.243  14.644  0.0824  0.7551 -0.3510
 8476TIP3    H146843   3.447   6.333  14.669 -2.8710  1.3772  0.2132
 8476TIP3    H246844   3.407   6.248  14.550 -2.3299  1.2574  0.1130
 8477TIP3   OH246845   1.524   4.997  11.583  0.0472  0.3332  0.0144
 8477TIP3    H146846   1.454   5.002  11.648  0.8055 -1.2329  1.0095
 8477TIP3    H246847   1.583   4.929  11.616  0.4080 -0.6120 -2.3487
 8478TIP3   OH246848   3.764   3.235  11.524 -0.2513  0.2426  0.1299
 8478TIP3    H146849   3.785   3.175  11.452  0.4205  0.7217 -0.0789
 8478TIP3    H246850   3.709   3.183  11.583 -0.5808 -0.2435 -0.5872
 8479TIP3   OH246851   5.833   4.099  12.810  0.2673 -0.1218  0.2382
 8479TIP3    H146852   5.813   4.191  12.831  1.1753  0.2026 -0.2397
 8479TIP3    H246853   5.929   4.093  12.818  0.2641 -0.8967 -0.2120
 8480TIP3   OH246854   2.536   0.156   2.071 -0.1047  0.5906 -0.1198
 8480TIP3    H146855   2.528   0.087   2.137  1.0482  0.9717  0.4392
 8480TIP3    H246856   2.484   0.124   1.997  0.3896 -0.8898  0.1316
 8481TIP3   OH246857   0.482   2.856  13.777  0.2775  0.0052 -0.2086
 8481TIP3    H146858   0.460   2.947  13.797  2.7374  0.3281  1.3980
 8481TIP3    H246859   0.445   2.806  13.850 -1.6853 -0.4339 -1.4434
 8482TIP3   OH246860   1.865   1.371   1.822 -0.1638 -0.3943 -0.2204
 8482TIP3    H146861   1.850   1.360   1.728  0.5436 -0.3477 -0.3396
 8482TIP3    H246862   1.936   1.434   1.828 -0.3358 -0.2478  0.3555
 8483TIP3   OH246863   1.790   3.143   4.927  0.6803 -0.4509 -0.1268
 8483TIP3    H146864   1.797   3.181   5.015 -0.1459  0.8706 -0.6028
 8483TIP3    H246865   1.711   3.089   4.930 -0.2700  0.8430 -0.4472
 8484TIP3   OH246866   3.963   0.383   4.585 -0.2333  0.1564 -0.5931
 8484TIP3    H146867   3.941   0.361   4.495 -1.9354  0.4150 -0.2873
 8484TIP3    H246868   3.983   0.299   4.626 -0.3156 -0.0645 -0.9999
 8485TIP3   OH246869   4.219   0.128  14.292 -0.5292  0.6956 -0.0075
 8485TIP3    H146870   4.230   0.196  14.358  1.4822 -0.4387  0.9304
 8485TIP3    H246871   4.305   0.086  14.287 -1.9181 -2.4301  0.2061
 8486TIP3   OH246872   4.909   3.652   5.850  0.3150 -0.3790  0.4022
 8486TIP3    H146873   4.977   3.590   5.823  1.4629 -0.3159  2.8901
 8486TIP3    H246874   4.950   3.738   5.842 -0.3802 -0.1122 -0.5087
 8487TIP3   OH246875   4.239   6.103   0.063  0.1175 -0.4395  0.1361
 8487TIP3    H146876   4.261   6.050   0.139 -0.6223 -0.9930 -0.0153
 8487TIP3    H246877   4.275   6.054  -0.012  0.2166 -0.2669  0.0704
 8488TIP3   OH246878   4.232   1.733   4.379 -0.2308  0.2057 -0.6065
 8488TIP3    H146879   4.244   1.719   4.473  1.1181 -0.0327 -0.7956
 8488TIP3    H246880   4.207   1.647   4.345  0.4034  0.0301 -0.6313
 8489TIP3   OH246881   3.768   2.378  11.589 -0.4592 -0.3938 -0.0427
 8489TIP3    H146882   3.815   2.298  11.566  0.0020 -0.5812  1.4529
 8489TIP3    H246883   3.688   2.375  11.536  0.4651 -0.8317 -1.4862
 8490TIP3   OH246884   2.959   1.611   1.110 -0.1958  0.2419 -0.7326
 8490TIP3    H146885   2.939   1.611   1.017 -0.8388  0.8901 -0.5999
 8490TIP3    H246886   2.878   1.585   1.153  0.1752 -0.3334 -0.3629
 8491TIP3   OH246887   0.503   6.223   2.000  0.5947 -0.3549 -0.2856
 8491TIP3    H146888   0.423   6.253   2.044  0.5257 -0.5957 -0.2473
 8491TIP3    H246889   0.516   6.287   1.930  1.3590  0.7351  0.7911
 8492TIP3   OH246890   0.051   5.374   5.162  0.1046 -0.1630  0.0386
 8492TIP3    H146891   0.030   5.466   5.179  1.3269 -0.0597  1.1483
 8492TIP3    H246892  -0.011   5.348   5.094  0.1230  1.6438 -0.7249
 8493TIP3   OH246893   4.065   3.974   3.686 -0.0377 -0.2949 -0.3575
 8493TIP3    H146894   3.976   3.957   3.656 -0.1485 -0.7616  0.2054
 8493TIP3    H246895   4.061   4.062   3.723  0.1279  0.3227 -1.7751
 8494TIP3   OH246896   3.007   3.799  15.625 -0.0558  0.0409  0.5220
 8494TIP3    H146897   2.930   3.833  15.670 -0.3978 -1.7509  1.4114
 8494TIP3    H246898   3.071   3.786  15.695 -0.0303 -1.3041  0.2734
 8495TIP3   OH246899   2.043   5.898  16.458 -0.4783 -0.0655 -0.1329
 8495TIP3    H146900   2.114   5.945  16.416  0.1345 -0.8064  0.0381
 8495TIP3    H246901   1.963   5.931  16.417 -0.0488  0.8728 -0.2311
 8496TIP3   OH246902   1.989   3.172   2.227  0.1899 -0.3162  0.4197
 8496TIP3    H146903   1.945   3.214   2.301 -0.9276  1.6835 -1.2834
 8496TIP3    H246904   1.933   3.190   2.151  1.6953 -1.5766 -1.0794
 8497TIP3   OH246905   5.870   2.613  14.695 -0.4655 -0.3807  0.3020
 8497TIP3    H146906   5.855   2.524  14.663  1.2039 -0.6724  0.2446
 8497TIP3    H246907   5.841   2.611  14.786 -0.3202 -1.0220  0.3407
 8498TIP3   OH246908   5.949   2.513  16.949 -0.1581 -0.0533  0.1113
 8498TIP3    H146909   5.969   2.606  16.950  0.3020 -0.1462 -0.1658
 8498TIP3    H246910   5.898   2.498  17.029  0.3193  0.3144  0.4897
 8499TIP3   OH246911   5.947   4.933   4.580 -0.2319  0.2644 -0.2951
 8499TIP3    H146912   5.897   4.930   4.662  1.6703  0.6948  0.9333
 8499TIP3    H246913   6.038   4.940   4.607  0.3868  1.6759 -2.4539
 8500TIP3   OH246914   6.531   3.373   5.328 -0.3974 -0.1872 -0.5698
 8500TIP3    H146915   6.479   3.381   5.248 -1.1380  0.4374 -0.0393
 8500TIP3    H246916   6.609   3.324   5.301 -0.7142 -0.1319 -1.6319
 8501TIP3   OH246917   5.346   6.253  11.925 -0.2699  0.4143  0.2186
 8501TIP3    H146918   5.406   6.236  11.853  0.3383  0.2864  0.7471
 8501TIP3    H246919   5.305   6.337  11.904 -0.2703  0.2664 -0.3816
 8502TIP3   OH246920   6.237   2.703  15.775  0.0112 -0.0524 -0.6677
 8502TIP3    H146921   6.153   2.718  15.731 -0.2271  1.7362  0.3154
 8502TIP3    H246922   6.252   2.782  15.826  1.1777 -1.2822  1.0136
 8503TIP3   OH246923   0.457   0.475  14.302 -0.7086  0.2218 -0.4510
 8503TIP3    H146924   0.493   0.397  14.261  0.0270 -0.4685  1.3963
 8503TIP3    H246925   0.532   0.532  14.318 -0.7820  0.0065  0.8328
 8504TIP3   OH246926   6.714   0.378  16.147  0.4092 -0.3089  0.0527
 8504TIP3    H146927   6.626   0.411  16.126  1.0693  2.0154  0.6333
 8504TIP3    H246928   6.739   0.326  16.070  0.0644  2.3279 -1.9769
 8505TIP3   OH246929   3.317   2.471  11.877  0.6112  0.4149  0.5561
 8505TIP3    H146930   3.228   2.437  11.885  0.7065  0.1716  0.5895
 8505TIP3    H246931   3.339   2.458  11.784  0.5766  0.5586  0.5285
 8506TIP3   OH246932   5.414   0.518   0.973  0.1230  0.4475 -0.5692
 8506TIP3    H146933   5.327   0.494   0.942  0.4203 -0.5207 -0.6913
 8506TIP3    H246934   5.398   0.562   1.057 -0.4515 -0.2407 -0.3055
 8507TIP3   OH246935   1.279   1.660   3.655 -0.4501 -0.0612 -0.7038
 8507TIP3    H146936   1.277   1.587   3.716  0.1667  0.1392 -0.4369
 8507TIP3    H246937   1.191   1.661   3.616  0.4447 -3.0529 -3.2508
 8508TIP3   OH246938   0.977   6.369   2.532  0.1429 -0.2307  0.0842
 8508TIP3    H146939   0.900   6.426   2.533  0.9235  0.9070 -1.0922
 8508TIP3    H246940   1.041   6.416   2.478  0.9417 -2.0903 -0.6731
 8509TIP3   OH246941   4.297   3.395   3.502 -0.5605  0.0182  0.3368
 8509TIP3    H146942   4.249   3.381   3.420 -1.7183 -0.4291  1.0670
 8509TIP3    H246943   4.229   3.398   3.569  0.3501  0.7165  1.2496
 8510TIP3   OH246944   1.659   0.912  13.449  0.2931 -0.3640  0.2567
 8510TIP3    H146945   1.617   0.998  13.453  0.1007 -0.4984  2.4262
 8510TIP3    H246946   1.615   0.867  13.377 -0.9806  0.6656  0.3586
 8511TIP3   OH246947   1.812   1.800  15.852 -0.4112  0.6133  0.4894
 8511TIP3    H146948   1.900   1.823  15.883 -0.0280  0.6741 -0.5945
 8511TIP3    H246949   1.779   1.740  15.918  0.9192 -0.3528  0.3269
 8512TIP3   OH246950   3.636   2.934  10.090  0.0489  0.0800  0.1471
 8512TIP3    H146951   3.615   3.025  10.069  0.3496  0.2133  0.4165
 8512TIP3    H246952   3.681   2.900  10.013 -0.3336  0.0654 -0.0742
 8513TIP3   OH246953   3.800   4.553   1.850 -0.1498 -0.3435 -0.1619
 8513TIP3    H146954   3.856   4.575   1.776 -0.0667 -0.3797 -0.1098
 8513TIP3    H246955   3.859   4.554   1.926  0.5449 -3.7825 -0.5278
 8514TIP3   OH246956   2.128   6.070  14.837  0.0455  0.0634 -0.6676
 8514TIP3    H146957   2.136   6.164  14.822  0.8220  0.1345  0.1014
 8514TIP3    H246958   2.188   6.052  14.910 -2.9124 -0.3574  1.8924
 8515TIP3   OH246959   2.209   1.093  16.452 -0.1590 -0.5477  0.0540
 8515TIP3    H146960   2.222   1.151  16.527  1.1422 -1.2872  0.4186
 8515TIP3    H246961   2.259   1.133  16.381  0.5405 -1.0796  0.2383
 8516TIP3   OH246962   2.492   2.696   5.311 -0.1419 -0.0669 -0.7462
 8516TIP3    H146963   2.460   2.773   5.265 -0.0119  0.6165  0.2787
 8516TIP3    H246964   2.499   2.723   5.403  0.2589 -1.1814 -0.4241
 8517TIP3   OH246965   2.362   4.927   1.328  0.2276 -0.5680  0.1883
 8517TIP3    H146966   2.436   4.988   1.320  2.0613 -2.7251 -0.1583
 8517TIP3    H246967   2.294   4.978   1.374  1.3467  1.9537 -0.7462
 8518TIP3   OH246968   4.599   2.668  14.815  0.3242 -0.4121  0.3745
 8518TIP3    H146969   4.654   2.618  14.754 -0.6236 -0.1856 -0.6910
 8518TIP3    H246970   4.518   2.618  14.820 -0.3414  0.6024 -0.1010
 8519TIP3   OH246971   1.324   6.135   4.130 -0.7509  0.1944 -0.1691
 8519TIP3    H146972   1.395   6.195   4.110  0.9263 -0.9937  1.8617
 8519TIP3    H246973   1.281   6.173   4.207 -1.8929  0.5297 -0.9475
 8520TIP3   OH246974   3.484   1.494  16.317  0.5554 -0.1579  0.0761
 8520TIP3    H146975   3.547   1.566  16.313  0.0248  0.3015 -0.3184
 8520TIP3    H246976   3.408   1.533  16.361  0.4408 -0.6239  0.2931
 8521TIP3   OH246977   3.527   2.397   3.026 -0.3316 -0.7538  0.3110
 8521TIP3    H146978   3.440   2.386   3.065 -0.4370 -0.5535  0.1318
 8521TIP3    H246979   3.552   2.309   2.997 -1.0856 -0.5809 -0.9324
 8522TIP3   OH246980   6.765   4.737  16.818  0.0979  0.2283  0.0376
 8522TIP3    H146981   6.830   4.714  16.752  0.1048  1.0538 -0.2590
 8522TIP3    H246982   6.736   4.825  16.793 -0.7538  0.0824  0.4622
 8523TIP3   OH246983   1.057   1.902   4.428 -0.1663  0.0531 -0.1842
 8523TIP3    H146984   0.986   1.846   4.395 -1.3860  0.3074  1.8241
 8523TIP3    H246985   1.015   1.958   4.493  1.6935  0.9543  0.3052
 8524TIP3   OH246986   4.276   6.248   6.238  0.7352  0.4133 -0.1447
 8524TIP3    H146987   4.265   6.156   6.262 -0.1030 -0.2118 -2.6119
 8524TIP3    H246988   4.223   6.296   6.303  0.7604 -0.8612  0.8667
 8525TIP3   OH246989   1.082   1.543   6.173 -0.3994  0.1608 -0.2437
 8525TIP3    H146990   1.034   1.462   6.155  0.9758 -0.7442 -0.0148
 8525TIP3    H246991   1.159   1.515   6.224 -0.1534  1.6768  0.2738
 8526TIP3   OH246992   3.399   5.961   1.160 -0.8114 -0.4303 -0.4596
 8526TIP3    H146993   3.465   5.962   1.230  0.5846 -0.1777 -1.7111
 8526TIP3    H246994   3.387   6.054   1.138 -1.3624 -0.4969 -0.4292
 8527TIP3   OH246995   2.091   2.575  16.578 -0.5248  0.1145 -0.3259
 8527TIP3    H146996   1.995   2.575  16.575 -0.5044 -0.5861 -1.4060
 8527TIP3    H246997   2.118   2.521  16.504  0.6978 -0.5300  0.5484
 8528TIP3   OH246998   1.326   1.640   2.894  0.4442 -0.4478  0.4045
 8528TIP3    H146999   1.343   1.733   2.878 -1.4528  0.3149  2.2855
 8528TIP3    H247000   1.348   1.628   2.987 -1.1701 -1.3558  0.7034
 8529TIP3   OH247001   3.718   1.524   1.649  0.2843 -0.2536  0.4898
 8529TIP3    H147002   3.685   1.546   1.736  0.8241 -0.1078  0.6645
 8529TIP3    H247003   3.646   1.544   1.590  0.5249  1.3648  0.7100
 8530TIP3   OH247004   0.058   0.397  11.024  0.2655  1.2499 -0.4066
 8530TIP3    H147005   0.012   0.364  10.946 -0.5605 -1.1911  0.9946
 8530TIP3    H247006   0.054   0.492  11.015 -2.0700  1.1042 -2.0913
 8531TIP3   OH247007   1.251   3.159   2.803 -0.3514 -0.4137 -0.0752
 8531TIP3    H147008   1.298   3.241   2.812 -0.9961 -0.1209  0.8008
 8531TIP3    H247009   1.259   3.136   2.711 -0.1384  0.6134 -0.3220
 8532TIP3   OH247010   3.191   4.081  15.387  0.1889 -0.4695 -0.3968
 8532TIP3    H147011   3.123   4.140  15.354  1.5485  1.0301 -0.6296
 8532TIP3    H247012   3.152   4.039  15.463 -0.6911  1.0474  0.0239
 8533TIP3   OH247013   2.430   0.837   3.950  0.3204  0.0899 -0.1150
 8533TIP3    H147014   2.463   0.754   3.916  1.1266  0.8044 -1.1402
 8533TIP3    H247015   2.499   0.900   3.930 -0.6862  1.1887 -0.2248
 8534TIP3   OH247016   3.088   4.005  13.742 -0.2483 -0.1140 -0.1424
 8534TIP3    H147017   3.153   4.042  13.801 -0.5346 -0.3663  0.3423
 8534TIP3    H247018   3.036   4.080  13.712 -0.2970 -0.0213  0.1722
 8535TIP3   OH247019   6.616   4.848   4.462  0.2191  0.1228  0.5026
 8535TIP3    H147020   6.582   4.914   4.402 -1.4959 -1.2846 -0.1637
 8535TIP3    H247021   6.589   4.879   4.549 -0.0167  0.5946  0.2673
 8536TIP3   OH247022   2.814   4.003  13.998 -0.2378 -0.4214  0.0219
 8536TIP3    H147023   2.852   3.967  14.078 -0.3603  0.8705  0.6783
 8536TIP3    H247024   2.732   3.955  13.987  0.1995 -1.2247  0.1685
 8537TIP3   OH247025   1.249   4.437   6.029 -0.2618 -0.4911 -0.4292
 8537TIP3    H147026   1.215   4.370   6.089  0.1937 -0.2457  0.1154
 8537TIP3    H247027   1.334   4.403   6.002 -0.2063 -0.3195 -0.4662
 8538TIP3   OH247028   5.470   0.991   2.988  0.1347 -0.1673 -0.5081
 8538TIP3    H147029   5.406   0.921   2.974 -0.1916  0.1723 -0.7264
 8538TIP3    H247030   5.515   0.999   2.904  1.4955 -1.4073  0.0525
 8539TIP3   OH247031   0.689   4.015  16.240 -0.0951  0.1111 -0.0399
 8539TIP3    H147032   0.780   4.033  16.216 -0.0655 -0.4353 -0.3625
 8539TIP3    H247033   0.649   3.981  16.160  0.1243 -2.2112  0.7619
 8540TIP3   OH247034   1.712   1.252  17.092  0.5218 -0.2812 -0.1042
 8540TIP3    H147035   1.687   1.186  17.027 -0.9747  1.1269 -1.0500
 8540TIP3    H247036   1.633   1.306  17.102  1.6073  1.2035  0.8183
 8541TIP3   OH247037   0.571   1.875   5.476 -0.0680  0.3074 -0.0212
 8541TIP3    H147038   0.601   1.784   5.472 -0.8518 -0.0735  1.7556
 8541TIP3    H247039   0.645   1.927   5.444  1.4916 -0.7769  1.6262
 8542TIP3   OH247040   1.225   6.114   3.592  0.0634  0.3089  0.3269
 8542TIP3    H147041   1.146   6.076   3.631 -1.0479  1.2217 -0.9558
 8542TIP3    H247042   1.297   6.083   3.648 -0.9908 -1.9413  0.5349
 8543TIP3   OH247043   6.158   5.311   4.337 -0.2826 -0.4572  0.3958
 8543TIP3    H147044   6.121   5.320   4.425 -0.7557 -0.6571  0.2206
 8543TIP3    H247045   6.199   5.225   4.336  0.8543  0.0569  0.8282
 8544TIP3   OH247046   1.620   0.328  16.714 -0.5069  0.0947 -0.1388
 8544TIP3    H147047   1.622   0.306  16.807 -2.2258  2.8448  0.6452
 8544TIP3    H247048   1.710   0.356  16.694 -0.4657  0.9105  1.0995
 8545TIP3   OH247049   2.503   3.885   0.632  0.1103  0.0170 -0.0912
 8545TIP3    H147050   2.414   3.920   0.628  0.6389  1.2947 -2.2331
 8545TIP3    H247051   2.496   3.797   0.594 -0.0399  0.6695 -1.6430
 8546TIP3   OH247052   1.217   4.308   3.167  0.0186  0.2248 -0.1003
 8546TIP3    H147053   1.230   4.214   3.177 -0.1574  0.1312 -0.7121
 8546TIP3    H247054   1.304   4.343   3.148  0.1271  0.2275  0.3713
 8547TIP3   OH247055   4.362   6.254   4.805 -0.3933 -0.3573  0.0133
 8547TIP3    H147056   4.280   6.287   4.841 -0.6474 -0.9427 -0.0213
 8547TIP3    H247057   4.343   6.238   4.712  0.0104  0.3265 -0.1942
 8548TIP3   OH247058   3.499   3.203   4.240  0.4927 -0.3551  0.3266
 8548TIP3    H147059   3.461   3.208   4.152  0.9163  0.5955  0.1764
 8548TIP3    H247060   3.482   3.114   4.269 -2.2053  0.1302  0.4406
 8549TIP3   OH247061   2.188   3.095  14.479 -0.0909 -0.2667 -0.0020
 8549TIP3    H147062   2.120   3.155  14.508 -0.8583 -0.1259 -1.9542
 8549TIP3    H247063   2.166   3.012  14.520 -0.5151  0.1591  0.6465
 8550TIP3   OH247064   2.174   1.945   3.696  0.5210 -0.1143  0.5807
 8550TIP3    H147065   2.089   1.900   3.698 -0.2167  1.0651 -1.2910
 8550TIP3    H247066   2.156   2.032   3.732  0.5722  0.6068 -1.0430
 8551TIP3   OH247067   0.342   2.293  12.341  0.0159  0.5005 -0.1946
 8551TIP3    H147068   0.272   2.344  12.381 -1.4495 -0.3061 -1.5954
 8551TIP3    H247069   0.342   2.320  12.249  0.5720 -0.5248 -0.5216
 8552TIP3   OH247070   2.194   3.539  15.259 -0.4723 -0.1293 -0.6086
 8552TIP3    H147071   2.182   3.574  15.170  0.7727 -0.4007 -0.9014
 8552TIP3    H247072   2.187   3.445  15.249  0.2736 -0.2020 -0.5412
 8553TIP3   OH247073   2.675   4.724   3.955 -0.1425  0.5627 -0.2697
 8553TIP3    H147074   2.641   4.673   4.028  0.7342  2.7484  1.7757
 8553TIP3    H247075   2.619   4.801   3.952  0.1681  0.7571 -1.6100
 8554TIP3   OH247076   4.021   1.823  14.679  0.3882  0.5240 -0.5796
 8554TIP3    H147077   4.058   1.735  14.675  2.2139  1.1998  0.1970
 8554TIP3    H247078   3.931   1.811  14.709  0.4896 -1.0805 -0.8381
 8555TIP3   OH247079   2.270   0.565   0.420  0.0328  0.2052 -0.0975
 8555TIP3    H147080   2.266   0.470   0.424  2.4785  0.0357 -0.3453
 8555TIP3    H247081   2.293   0.585   0.330  0.0942  1.0142  0.0876
 8556TIP3   OH247082   0.800   1.491  17.083  0.3181 -0.1384  0.5999
 8556TIP3    H147083   0.741   1.530  17.148 -1.3329 -3.1050  1.0237
 8556TIP3    H247084   0.884   1.483  17.129 -0.2427 -0.2367  1.6391
 8557TIP3   OH247085   0.605   2.336  11.490 -0.4023 -0.7419  0.0644
 8557TIP3    H147086   0.627   2.293  11.572 -1.1461  1.6071  1.5902
 8557TIP3    H247087   0.542   2.404  11.514 -1.8573 -0.9415 -2.6888
 8558TIP3   OH247088   5.164   2.740  15.749 -0.3780  0.2303  0.2732
 8558TIP3    H147089   5.253   2.729  15.716 -0.2606  0.3690  0.5477
 8558TIP3    H247090   5.153   2.670  15.813 -0.2945  0.5160  0.6027
 8559TIP3   OH247091   1.247   3.113   2.538 -0.3240  0.2599  0.7128
 8559TIP3    H147092   1.283   3.197   2.509  0.3000  0.2773  1.4907
 8559TIP3    H247093   1.291   3.048   2.483  0.0551  0.3647  0.8883
 8560TIP3   OH247094   2.919   0.857  13.720  0.6263  0.2106 -0.5927
 8560TIP3    H147095   2.978   0.786  13.694  1.2657  0.2955  0.5566
 8560TIP3    H247096   2.972   0.913  13.777 -0.7488 -0.0629  1.0162
 8561TIP3   OH247097   3.917   2.511  11.969 -0.1748  0.1638 -0.3394
 8561TIP3    H147098   3.917   2.591  12.021  1.7230  0.0718 -0.1294
 8561TIP3    H247099   3.840   2.518  11.913 -0.9903  1.3206  0.8852
 8562TIP3   OH247100   4.814   0.454   4.937  0.4143  0.2377  0.5233
 8562TIP3    H147101   4.764   0.536   4.939  1.9519  1.1924  2.0024
 8562TIP3    H247102   4.784   0.406   5.014  1.0008  0.3631  0.8371
 8563TIP3   OH247103   3.996   3.535   3.163 -0.2931 -0.1216 -0.9524
 8563TIP3    H147104   4.016   3.615   3.212 -1.2198 -0.7494  0.5216
 8563TIP3    H247105   4.013   3.558   3.072  0.7415  1.3395 -0.4323
 8564TIP3   OH247106   3.270   1.512   0.449  0.2199  0.2652  0.4274
 8564TIP3    H147107   3.222   1.559   0.381  1.4105  0.8316 -0.0468
 8564TIP3    H247108   3.266   1.569   0.526  0.5048  0.5121  0.2589
 8565TIP3   OH247109   4.239   0.625   0.053  0.0734  0.2112  0.4800
 8565TIP3    H147110   4.183   0.666  -0.013 -0.8422 -0.3934  0.8694
 8565TIP3    H247111   4.264   0.541   0.014 -0.4016 -0.1097  0.8590
 8566TIP3   OH247112   4.154   2.398  16.688 -0.3293 -0.1947  0.1350
 8566TIP3    H147113   4.147   2.428  16.779  1.8691  0.6101  0.1064
 8566TIP3    H247114   4.225   2.334  16.689 -0.3580 -0.2649 -0.9745
 8567TIP3   OH247115   5.916   4.219  14.877  0.3878  0.2190  0.1561
 8567TIP3    H147116   5.926   4.224  14.972 -2.0442  0.2276  0.4885
 8567TIP3    H247117   5.861   4.142  14.863  0.2427  0.5417 -1.1818
 8568TIP3   OH247118   0.553   6.745  11.352 -0.2764 -0.0715  0.2827
 8568TIP3    H147119   0.570   6.837  11.336 -1.8072  0.2056  0.1585
 8568TIP3    H247120   0.596   6.727  11.436  0.4260  0.6178  0.0819
 8569TIP3   OH247121   1.920   3.903  10.610 -0.1185  0.4802  0.6915
 8569TIP3    H147122   1.913   3.831  10.547 -0.8189 -0.4073  1.7612
 8569TIP3    H247123   1.833   3.908  10.650  0.2880  1.1203  1.5130
 8570TIP3   OH247124   1.327   3.287  16.517  0.2007  0.2326  0.1841
 8570TIP3    H147125   1.269   3.337  16.574  0.3936 -0.1729  0.7432
 8570TIP3    H247126   1.412   3.290  16.560  0.5683  0.7049 -0.5625
 8571TIP3   OH247127   2.718   3.153  11.736 -0.3353 -0.0626  0.0429
 8571TIP3    H147128   2.688   3.139  11.646 -1.1337 -0.7832  0.4051
 8571TIP3    H247129   2.758   3.240  11.734  0.1376 -0.2743 -1.1253
 8572TIP3   OH247130   2.799   5.219  14.151  0.1615 -0.7419 -0.8716
 8572TIP3    H147131   2.880   5.170  14.166 -0.1410 -0.5312  2.0828
 8572TIP3    H247132   2.732   5.169  14.198 -0.8831  0.5630 -0.9108
 8573TIP3   OH247133   0.153   5.178   0.138 -1.0671 -0.0368 -0.1759
 8573TIP3    H147134   0.175   5.148   0.050 -0.9829 -0.1082 -0.1301
 8573TIP3    H247135   0.200   5.119   0.197  0.2782  1.0828 -0.0931
 8574TIP3   OH247136   1.988   2.286  12.731  0.4785 -0.1721  0.3086
 8574TIP3    H147137   1.989   2.338  12.650  0.9086  1.3093  1.2397
 8574TIP3    H247138   1.911   2.230  12.721 -0.5093  1.2278 -0.3845
 8575TIP3   OH247139   4.632   5.514   0.564  0.0662 -0.1210  0.6098
 8575TIP3    H147140   4.569   5.513   0.636 -0.7126 -0.5528 -0.0607
 8575TIP3    H247141   4.596   5.453   0.500  0.1352  1.1140 -0.6610
 8576TIP3   OH247142   1.183   0.354  11.752  0.3899 -0.4954 -0.1901
 8576TIP3    H147143   1.091   0.341  11.728  0.5083 -0.5889 -0.5989
 8576TIP3    H247144   1.206   0.274  11.800  1.8328 -3.2655 -4.8346
 8577TIP3   OH247145   6.765   0.053   1.400 -0.6300 -0.8997 -0.2809
 8577TIP3    H147146   6.680   0.092   1.382 -1.2428 -2.6641 -1.4650
 8577TIP3    H247147   6.811   0.118   1.453 -2.2105  0.6447 -0.7323
 8578TIP3   OH247148   5.159   2.977  14.951 -0.1997  0.3820  0.4909
 8578TIP3    H147149   5.190   2.990  14.861  2.0903  0.1137  1.1991
 8578TIP3    H247150   5.194   2.892  14.976 -3.0131 -0.7912  0.8032
 8579TIP3   OH247151   2.679   2.028   4.159  0.0265 -0.0252 -0.0028
 8579TIP3    H147152   2.748   1.975   4.119  0.3563 -0.2982  0.9062
 8579TIP3    H247153   2.632   1.967   4.216  0.2153  0.5794  0.8116
 8580TIP3   OH247154   2.504   6.757   3.859 -0.1840 -0.2484  0.1247
 8580TIP3    H147155   2.440   6.815   3.902 -1.2983  0.0015 -1.7788
 8580TIP3    H247156   2.500   6.781   3.767  0.0883 -2.6423 -0.5647
 8581TIP3   OH247157   1.150   3.976   4.951 -0.1973  0.4667  0.5033
 8581TIP3    H147158   1.064   3.946   4.921 -0.3001  0.5586  0.7056
 8581TIP3    H247159   1.133   4.060   4.994 -0.1242  0.0924  1.2808
 8582TIP3   OH247160   2.591   1.603  16.275 -0.2633  0.0004  0.1189
 8582TIP3    H147161   2.641   1.523  16.289 -0.6308 -0.1513  0.6157
 8582TIP3    H247162   2.656   1.673  16.273  0.0513 -0.3038 -0.2420
 8583TIP3   OH247163   6.549   0.712  11.030 -0.2973 -0.3670 -0.1641
 8583TIP3    H147164   6.470   0.764  11.042 -0.3093 -1.0044  4.4945
 8583TIP3    H247165   6.621   0.775  11.036 -0.3762 -0.4257  3.5331
 8584TIP3   OH247166   1.143   1.390  13.645  0.6583  0.2795 -0.1868
 8584TIP3    H147167   1.165   1.465  13.589  0.6667  0.4165 -0.0019
 8584TIP3    H247168   1.171   1.417  13.732 -0.2538  0.4638  0.0583
 8585TIP3   OH247169   2.133   6.486   2.752  0.1333 -0.3149 -0.1374
 8585TIP3    H147170   2.044   6.480   2.785  0.1280  0.7767  0.0997
 8585TIP3    H247171   2.123   6.491   2.657 -0.3108  2.5129 -0.0518
 8586TIP3   OH247172   5.650   2.419  12.245  0.4311  0.2912 -0.3103
 8586TIP3    H147173   5.742   2.421  12.219  0.0831  0.2764 -1.6380
 8586TIP3    H247174   5.650   2.438  12.339  1.7882  0.1795 -0.2741
 8587TIP3   OH247175   4.506   0.213   2.902 -0.2250  0.3510 -0.0066
 8587TIP3    H147176   4.472   0.270   2.833  1.0829  0.0807 -0.9196
 8587TIP3    H247177   4.469   0.127   2.882  0.7303  0.1111 -0.8510
 8588TIP3   OH247178   3.170   6.640  16.280 -0.4218 -0.2659  0.3571
 8588TIP3    H147179   3.112   6.660  16.354 -2.3017 -0.1693 -1.0601
 8588TIP3    H247180   3.213   6.723  16.259  1.2055 -0.5926  2.1520
 8589TIP3   OH247181   0.857   1.617  15.160  0.2101  0.2910 -0.2473
 8589TIP3    H147182   0.899   1.548  15.211  2.8516  1.9882  0.0539
 8589TIP3    H247183   0.834   1.575  15.077 -1.4575 -1.7508  1.1508
 8590TIP3   OH247184   6.546   0.246  14.287  0.1000 -0.0119 -0.1039
 8590TIP3    H147185   6.594   0.324  14.262  0.7495  0.1747  1.6162
 8590TIP3    H247186   6.612   0.176  14.285  0.1379 -0.0155  0.8913
 8591TIP3   OH247187   2.993   1.400   0.187  0.5135  0.2276 -0.2228
 8591TIP3    H147188   2.953   1.477   0.228  0.7263 -0.0091  0.4524
 8591TIP3    H247189   3.015   1.343   0.261 -0.4271 -0.8654 -0.7555
 8592TIP3   OH247190   1.249   4.689  11.394 -0.1649  0.5931  0.0882
 8592TIP3    H147191   1.236   4.614  11.337 -1.0599  0.7677  0.0485
 8592TIP3    H247192   1.250   4.765  11.336  0.9438  0.6150  0.1052
 8593TIP3   OH247193   1.927   3.667   1.388 -0.0805 -0.1586 -0.6502
 8593TIP3    H147194   1.853   3.727   1.393 -0.2180 -0.2576 -1.4684
 8593TIP3    H247195   1.904   3.606   1.319  0.8290 -0.1023 -1.0154
 8594TIP3   OH247196   1.387   0.546  17.009 -0.4335 -0.4026  0.5267
 8594TIP3    H147197   1.362   0.589  17.091  1.2735 -1.1887  1.5246
 8594TIP3    H247198   1.452   0.604  16.970 -0.2424 -0.6816  0.4214
 8595TIP3   OH247199   1.251   3.418  12.305 -0.3718  0.0155  0.4172
 8595TIP3    H147200   1.196   3.422  12.227  0.6291  0.1492 -0.3024
 8595TIP3    H247201   1.204   3.469  12.371  0.1211  2.4260 -0.9732
 8596TIP3   OH247202   5.168   3.411   3.971 -0.5294 -0.2551 -0.1507
 8596TIP3    H147203   5.229   3.367   3.913  1.8235  0.7339  1.3998
 8596TIP3    H247204   5.177   3.504   3.949 -0.1576  0.0626  1.2205
 8597TIP3   OH247205   5.937   2.731   2.716 -0.5318  0.7270 -0.4997
 8597TIP3    H147206   6.003   2.688   2.661 -0.3318  1.3592 -0.7703
 8597TIP3    H247207   5.893   2.792   2.656 -1.3543  0.3290 -0.3154
 8598TIP3   OH247208   0.509   1.666   5.840 -0.2075 -0.3734  0.5273
 8598TIP3    H147209   0.592   1.624   5.815  1.1446  1.3272  1.9206
 8598TIP3    H247210   0.498   1.736   5.776  0.1178  0.2027  1.0917
 8599TIP3   OH247211   2.638   5.534  16.764 -0.4396 -0.2534 -0.2108
 8599TIP3    H147212   2.543   5.521  16.758 -0.8021  1.4819  1.0148
 8599TIP3    H247213   2.661   5.581  16.683 -0.9037  0.6363  0.1598
 8600TIP3   OH247214   2.608   5.310  13.784 -0.4445  0.0522 -0.0110
 8600TIP3    H147215   2.579   5.401  13.785 -0.0081  0.2042 -0.5237
 8600TIP3    H247216   2.698   5.313  13.816 -0.9074 -0.3923  1.4057
 8601TIP3   OH247217   5.544   4.440   0.145 -0.3230  0.4839  0.5224
 8601TIP3    H147218   5.616   4.458   0.205 -2.0372  4.3140  1.7706
 8601TIP3    H247219   5.512   4.353   0.169  2.5912 -0.4970  1.1886
 8602TIP3   OH247220   4.379   4.509   6.654  0.1077 -0.1614 -0.0738
 8602TIP3    H147221   4.351   4.511   6.562  0.0186 -0.0102 -0.0438
 8602TIP3    H247222   4.314   4.562   6.700 -0.2104 -0.7596  0.1753
 8603TIP3   OH247223   0.903   3.151  15.059  0.1458  0.2275 -0.1054
 8603TIP3    H147224   0.959   3.191  15.125 -0.5731  2.8775 -0.9672
 8603TIP3    H247225   0.829   3.211  15.050 -0.4805 -0.7402 -2.2954
 8604TIP3   OH247226   0.599   2.379  14.184  0.0138  0.6236  0.1108
 8604TIP3    H147227   0.618   2.470  14.207  1.1290  0.1269  1.2453
 8604TIP3    H247228   0.668   2.328  14.227  0.4035 -0.6414 -1.8823
 8605TIP3   OH247229   2.575   6.573   0.937 -0.1157  0.2834 -0.3040
 8605TIP3    H147230   2.670   6.576   0.923 -0.2357  1.2430 -1.0253
 8605TIP3    H247231   2.540   6.531   0.858 -0.2751 -0.3713  0.1058
 8606TIP3   OH247232   2.682   0.669   0.535  0.2482  0.3013  0.4697
 8606TIP3    H147233   2.607   0.642   0.589  0.3073  1.0450  0.9449
 8606TIP3    H247234   2.666   0.628   0.450 -0.1317 -0.4475  0.8866
 8607TIP3   OH247235   0.266   0.479   4.300 -0.1473 -0.0631 -0.0601
 8607TIP3    H147236   0.184   0.431   4.283  0.3148 -0.7731 -0.3233
 8607TIP3    H247237   0.246   0.570   4.276 -0.1520 -0.6322 -2.5131
 8608TIP3   OH247238   6.317   5.257   2.077  0.7738  0.1758 -0.1470
 8608TIP3    H147239   6.348   5.346   2.057  0.0979  0.4286 -0.1113
 8608TIP3    H247240   6.386   5.200   2.045  0.2797  0.6193 -2.1408
 8609TIP3   OH247241   2.462   1.947   1.561 -0.0903  0.5032 -0.3356
 8609TIP3    H147242   2.446   1.943   1.466 -0.8286  1.9239 -0.2943
 8609TIP3    H247243   2.521   2.021   1.572  0.1101  0.2503  0.3043
 8610TIP3   OH247244   0.210   5.858   1.279 -0.4722  0.3603 -0.2098
 8610TIP3    H147245   0.239   5.772   1.249 -1.1816 -0.3374  1.0046
 8610TIP3    H247246   0.291   5.907   1.293  0.0057 -0.5556  0.3120
 8611TIP3   OH247247   6.775   5.580  15.627  0.0109 -0.3076  0.0813
 8611TIP3    H147248   6.862   5.547  15.603  0.0705 -1.0655  1.2451
 8611TIP3    H247249   6.716   5.540  15.563  0.4678 -0.0773 -0.4975
 8612TIP3   OH247250   4.902   6.272  11.792  0.0385  0.0611 -0.1310
 8612TIP3    H147251   4.857   6.193  11.822  1.2462 -0.9061 -0.7398
 8612TIP3    H247252   4.977   6.239  11.742  1.1147  1.6055  0.3939
 8613TIP3   OH247253   0.684   0.167   1.662  0.0888 -0.4141  0.0858
 8613TIP3    H147254   0.685   0.254   1.624 -0.4398 -0.3654  0.1747
 8613TIP3    H247255   0.591   0.146   1.672  0.2098 -0.5944  0.9548
 8614TIP3   OH247256   0.917   4.777  12.604  0.0641  0.2302 -0.1821
 8614TIP3    H147257   0.905   4.683  12.596  1.4388 -0.0087  0.2200
 8614TIP3    H247258   0.985   4.799  12.540 -0.5565  1.0261 -0.5840
 8615TIP3   OH247259   6.591   5.407  13.939  0.3130 -0.0138  0.5483
 8615TIP3    H147260   6.573   5.426  14.031  2.0305  0.2630  0.8545
 8615TIP3    H247261   6.677   5.365  13.939  0.0974 -0.5288 -0.8892
 8616TIP3   OH247262   0.238   4.623   4.293  0.1523  0.4142  0.8388
 8616TIP3    H147263   0.264   4.649   4.382  1.3847  4.1194 -0.4377
 8616TIP3    H247264   0.146   4.648   4.286 -0.1675 -0.6011  1.2766
 8617TIP3   OH247265   6.525   3.697   6.605 -0.0219  0.4540  0.2921
 8617TIP3    H147266   6.598   3.758   6.613 -0.5537  1.1128  0.1999
 8617TIP3    H247267   6.458   3.746   6.557 -0.8756  0.1719  1.1672
 8618TIP3   OH247268   1.349   1.200  13.544  0.7744  0.2554  0.0674
 8618TIP3    H147269   1.284   1.266  13.568  0.2538 -0.0345 -0.4965
 8618TIP3    H247270   1.381   1.166  13.627 -0.9247 -0.6701  0.3937
 8619TIP3   OH247271   0.532   4.901   5.188 -0.0164 -0.2981  0.6457
 8619TIP3    H147272   0.560   4.820   5.146 -0.0909 -0.3029  0.6056
 8619TIP3    H247273   0.613   4.942   5.218  0.0613 -0.1521  0.2428
 8620TIP3   OH247274   0.948   3.693  13.885  0.1359 -0.2830 -0.0292
 8620TIP3    H147275   0.938   3.710  13.792 -0.6098 -2.3272 -0.3740
 8620TIP3    H247276   1.035   3.652  13.893 -0.2895 -1.2172 -0.0324
 8621TIP3   OH247277   5.562   4.965   2.971 -0.0045 -0.2134 -0.2249
 8621TIP3    H147278   5.613   5.045   2.977  0.0195 -0.3129  1.4672
 8621TIP3    H247279   5.621   4.902   2.930  0.6225  0.1594  0.0908
 8622TIP3   OH247280   1.207   0.885   1.088 -0.0731  0.7184 -0.4274
 8622TIP3    H147281   1.293   0.847   1.104 -0.7779 -1.5329 -1.4642
 8622TIP3    H247282   1.225   0.974   1.057  1.7649  0.8622  0.9153
 8623TIP3   OH247283   6.476   5.104   3.344 -0.3126  0.1069 -0.0827
 8623TIP3    H147284   6.417   5.034   3.371 -0.8264  0.6595  0.2547
 8623TIP3    H247285   6.428   5.185   3.364  0.6752  0.5731  0.4698
 8624TIP3   OH247286   2.262   6.212  13.030 -0.2514 -0.4208 -0.0211
 8624TIP3    H147287   2.266   6.269  12.954  1.2259  1.7607  1.5585
 8624TIP3    H247288   2.334   6.242  13.086 -1.0324 -2.1665  2.0535
 8625TIP3   OH247289   4.433   3.608  15.405  0.4250  0.4033 -0.1347
 8625TIP3    H147290   4.346   3.599  15.366  1.0110  0.1509 -1.4738
 8625TIP3    H247291   4.470   3.519  15.402  0.4372  0.3584  1.1522
 8626TIP3   OH247292   6.104   3.123  15.636  0.1496  0.3783  0.6283
 8626TIP3    H147293   6.147   3.165  15.710  1.7914 -0.4196  0.1727
 8626TIP3    H247294   6.144   3.164  15.559  0.4890 -0.7133  0.1933
 8627TIP3   OH247295   2.202   3.525  12.933 -0.9365 -0.2063 -0.1765
 8627TIP3    H147296   2.107   3.510  12.931 -0.7990 -2.1464  2.4660
 8627TIP3    H247297   2.223   3.534  13.026  1.6153 -0.9437 -0.6031
 8628TIP3   OH247298   0.236   1.093  13.366  0.0468 -0.1004 -0.6474
 8628TIP3    H147299   0.294   1.150  13.417 -0.8854 -0.4765  0.9088
 8628TIP3    H247300   0.224   1.139  13.283  1.9495  0.3437 -0.7216
 8629TIP3   OH247301   6.206   5.106   6.379 -0.2163  0.1819 -0.4868
 8629TIP3    H147302   6.296   5.135   6.394  0.9563 -2.7193 -1.2995
 8629TIP3    H247303   6.161   5.184   6.348  1.8993  1.8265  0.3310
 8630TIP3   OH247304   0.288   2.993   2.619  0.5497  0.6768 -0.2466
 8630TIP3    H147305   0.368   3.014   2.667 -0.7666 -2.2593  3.7584
 8630TIP3    H247306   0.315   2.930   2.553  1.9321  2.1129 -1.1066
 8631TIP3   OH247307   4.134   3.666   2.121 -0.6448  0.4248 -0.3392
 8631TIP3    H147308   4.219   3.621   2.112 -0.3680  0.9218 -0.2279
 8631TIP3    H247309   4.144   3.720   2.199 -0.7962  1.0816 -0.7714
 8632TIP3   OH247310   0.743   5.139  15.432  0.2034 -0.1131  0.0024
 8632TIP3    H147311   0.669   5.130  15.492  0.2866  1.3130  0.3498
 8632TIP3    H247312   0.815   5.096  15.477 -0.1601 -0.6093  0.1225
 8633TIP3   OH247313   4.149   3.416  14.282  0.4561  0.2908 -0.0186
 8633TIP3    H147314   4.232   3.400  14.238  0.0919 -1.7591 -0.0721
 8633TIP3    H247315   4.152   3.362  14.361 -0.2760  1.2685  0.7032
 8634TIP3   OH247316   2.375   0.756  14.033 -0.5005  0.1586  0.3081
 8634TIP3    H147317   2.342   0.670  14.061 -1.1302  0.5294  0.7298
 8634TIP3    H247318   2.333   0.772  13.949 -1.4346  0.6390  0.8548
 8635TIP3   OH247319   5.889   5.337   4.709 -0.0500  0.8433  0.0821
 8635TIP3    H147320   5.802   5.377   4.696  0.5264  1.9924 -0.4033
 8635TIP3    H247321   5.921   5.376   4.790  0.0648  0.5217  0.1896
 8636TIP3   OH247322   2.697   0.357   3.942  0.3897  0.1158  0.0093
 8636TIP3    H147323   2.640   0.333   3.869 -1.5030  1.7487  0.8738
 8636TIP3    H247324   2.784   0.327   3.915 -0.3550  0.1293 -2.6366
 8637TIP3   OH247325   1.381   6.550  15.850 -0.0757  0.3732 -0.0219
 8637TIP3    H147326   1.464   6.546  15.804 -0.2581  0.1204 -0.3338
 8637TIP3    H247327   1.366   6.643  15.865  1.3329  0.3403  2.0028
 8638TIP3   OH247328   4.639   6.642   4.164  0.4433  0.3823 -0.2548
 8638TIP3    H147329   4.688   6.571   4.121 -0.4501 -0.6428  0.3558
 8638TIP3    H247330   4.547   6.616   4.156  0.0044  2.0286 -0.9462
 8639TIP3   OH247331   2.760   4.303  15.023  0.4925  0.2695 -0.2911
 8639TIP3    H147332   2.824   4.243  14.985  0.5589  0.1102  0.0680
 8639TIP3    H247333   2.771   4.384  14.973  0.6617  0.1018 -0.5295
 8640TIP3   OH247334   1.362   6.098   2.063 -0.4942 -0.1265  0.3668
 8640TIP3    H147335   1.450   6.117   2.030 -0.2109 -0.7275  0.7569
 8640TIP3    H247336   1.345   6.167   2.128 -0.0247 -0.4131  0.7981
 8641TIP3   OH247337   5.665   5.486   4.747  0.1872 -0.5696 -0.4196
 8641TIP3    H147338   5.599   5.433   4.793  1.0221 -1.4314 -0.1866
 8641TIP3    H247339   5.692   5.551   4.812  0.3747 -0.9228 -0.1389
 8642TIP3   OH247340   6.008   2.200   3.134 -0.1646 -0.0688 -0.2885
 8642TIP3    H147341   6.085   2.168   3.086 -0.7582 -0.5165 -0.9654
 8642TIP3    H247342   5.997   2.137   3.205 -0.4468 -0.5345 -0.7390
 8643TIP3   OH247343   1.869   5.300   4.565 -0.2881  0.2469  0.0309
 8643TIP3    H147344   1.936   5.242   4.531 -0.7627  0.3413 -1.1229
 8643TIP3    H247345   1.847   5.358   4.491 -0.6324  1.1396  0.8023
 8644TIP3   OH247346   2.173   3.303  11.714 -0.4153 -0.7240 -0.3877
 8644TIP3    H147347   2.220   3.378  11.750 -1.2092 -0.4394  0.0659
 8644TIP3    H247348   2.087   3.305  11.757 -0.4541 -1.8788 -0.3785
 8645TIP3   OH247349   0.083   5.789  16.064  0.2517 -0.1527  0.6759
 8645TIP3    H147350   0.057   5.707  16.105 -1.6592 -0.3380 -0.7640
 8645TIP3    H247351   0.002   5.841  16.060  0.1218 -0.3800 -3.2417
 8646TIP3   OH247352   0.634   2.027   0.484 -0.0492 -0.4921 -0.2098
 8646TIP3    H147353   0.543   2.001   0.499 -0.8305  0.6497 -2.4721
 8646TIP3    H247354   0.684   1.947   0.500 -1.3747 -1.0393  1.4757
 8647TIP3   OH247355   3.211   5.951  12.974 -0.0639 -0.4110 -0.0738
 8647TIP3    H147356   3.210   6.043  12.951 -1.4610 -0.2615  0.4405
 8647TIP3    H247357   3.232   5.949  13.067  0.8982 -0.6894 -0.2859
 8648TIP3   OH247358   0.238   0.939   0.905  0.0774 -0.5002 -0.3341
 8648TIP3    H147359   0.156   0.896   0.882 -0.0947 -0.5483  0.3497
 8648TIP3    H247360   0.293   0.930   0.827 -0.8659  0.2875 -1.1236
 8649TIP3   OH247361   5.607   0.865  13.882 -0.3231 -0.0403  0.0875
 8649TIP3    H147362   5.645   0.952  13.874 -1.5268  0.5605  0.5509
 8649TIP3    H247363   5.672   0.814  13.930  0.5969  0.4615 -0.6034
 8650TIP3   OH247364   2.034   0.255  10.741 -0.4021  0.2068 -0.6253
 8650TIP3    H147365   2.054   0.291  10.655 -1.5746  2.8323  0.1011
 8650TIP3    H247366   1.951   0.210  10.730  0.1572 -0.7248 -1.1495
 8651TIP3   OH247367   3.292   1.002  12.516  0.0717 -0.3499 -0.0422
 8651TIP3    H147368   3.337   0.931  12.563  0.8404 -0.0341 -0.2811
 8651TIP3    H247369   3.330   1.000  12.428  0.9782  1.1013  0.2845
 8652TIP3   OH247370   1.277   5.840  15.539  0.1960  0.1819  0.3312
 8652TIP3    H147371   1.200   5.896  15.532 -0.7277 -0.5490  3.1952
 8652TIP3    H247372   1.316   5.863  15.623  1.9863 -0.8777 -0.1502
 8653TIP3   OH247373   4.392   1.883   3.540  0.1271 -0.2380  0.1140
 8653TIP3    H147374   4.413   1.945   3.611 -0.9850 -0.8150  0.9766
 8653TIP3    H247375   4.338   1.934   3.479  1.0594  0.2530 -0.3226
 8654TIP3   OH247376   4.692   5.900   1.909 -0.1050 -0.1106  0.0521
 8654TIP3    H147377   4.647   5.927   1.829  0.3270  1.1456  0.2124
 8654TIP3    H247378   4.784   5.893   1.883 -0.1792 -1.3282  0.0577
 8655TIP3   OH247379   1.099   4.148   5.162  0.1295  0.0546  0.0069
 8655TIP3    H147380   1.015   4.110   5.137 -0.2788 -1.1521  2.8799
 8655TIP3    H247381   1.080   4.239   5.183 -0.2663  0.0240 -0.2157
 8656TIP3   OH247382   5.274   3.958   0.458  0.3097  0.1898  0.2783
 8656TIP3    H147383   5.330   3.954   0.535  0.9696  0.5260 -0.1676
 8656TIP3    H247384   5.215   4.032   0.474  0.6165  0.4190  0.3501
 8657TIP3   OH247385   0.582   5.073  12.852  0.4382  0.2627  0.0024
 8657TIP3    H147386   0.596   5.044  12.762 -1.5520  0.9732 -0.5842
 8657TIP3    H247387   0.549   5.162  12.844  0.9984  0.6405  1.5000
 8658TIP3   OH247388   3.200   2.610  15.981 -0.1717  0.8562  0.2699
 8658TIP3    H147389   3.122   2.637  16.030  0.1136  2.7095 -0.2086
 8658TIP3    H247390   3.167   2.588  15.894 -0.1683  2.0070 -0.0500
 8659TIP3   OH247391   5.912   0.857  12.703  0.1729  0.1385  0.2824
 8659TIP3    H147392   5.883   0.885  12.790 -0.0097  0.7343  0.0291
 8659TIP3    H247393   6.006   0.841  12.714 -0.0554 -0.9040  0.8709
 8660TIP3   OH247394   3.342   4.589  11.132 -0.0413 -0.1184 -0.3236
 8660TIP3    H147395   3.426   4.561  11.167 -0.6778 -0.7351  0.7686
 8660TIP3    H247396   3.361   4.670  11.086  1.1728 -0.3302 -0.2289
 8661TIP3   OH247397   3.514   5.324   4.010 -0.0539 -0.4159 -0.2056
 8661TIP3    H147398   3.584   5.290   4.066  0.0057 -2.0297 -1.1873
 8661TIP3    H247399   3.443   5.261   4.020 -0.8305  0.4096 -0.3668
 8662TIP3   OH247400   3.490   5.689  12.728  0.6316  0.4336 -0.2857
 8662TIP3    H147401   3.478   5.685  12.633 -0.9377 -4.1118 -0.1388
 8662TIP3    H247402   3.402   5.701  12.763  0.4946 -2.2913  0.5269
 8663TIP3   OH247403   5.187   0.758   2.935  0.0863 -0.3783  0.1952
 8663TIP3    H147404   5.269   0.725   2.901  0.1083  0.5726 -0.7276
 8663TIP3    H247405   5.119   0.711   2.886  0.0884 -0.6434  0.4462
 8664TIP3   OH247406   0.474   3.364   3.992 -0.0457  0.4012 -0.0387
 8664TIP3    H147407   0.566   3.339   4.007  1.2434  4.9239  1.1026
 8664TIP3    H247408   0.476   3.412   3.909 -1.4322  0.3876 -0.1019
 8665TIP3   OH247409   3.130   2.947  14.691  0.4554 -0.2687 -0.4291
 8665TIP3    H147410   3.200   3.006  14.661  2.0312 -0.9655  1.6319
 8665TIP3    H247411   3.052   2.978  14.645  1.8611  1.2918 -1.9446
 8666TIP3   OH247412   5.002   2.619  12.806  0.3895 -0.3753  0.0199
 8666TIP3    H147413   4.932   2.557  12.784 -0.4071  0.6640 -0.4445
 8666TIP3    H247414   5.083   2.568  12.796 -0.2580 -1.4078 -0.0989
 8667TIP3   OH247415   1.157   5.391  15.504 -0.0220  0.5191  0.0055
 8667TIP3    H147416   1.123   5.330  15.438 -0.9671  2.6503 -1.6152
 8667TIP3    H247417   1.097   5.382  15.578 -0.8247  0.2681 -0.6527
 8668TIP3   OH247418   5.547   3.421   1.715  0.4254  0.5336 -0.0398
 8668TIP3    H147419   5.525   3.353   1.652  0.4438  0.2946  0.2123
 8668TIP3    H247420   5.469   3.429   1.770 -0.3341  2.0658 -1.2555
 8669TIP3   OH247421   6.422   4.234  13.332  0.3037 -0.5124  0.1217
 8669TIP3    H147422   6.328   4.241  13.349  0.3663  0.2621  0.1668
 8669TIP3    H247423   6.431   4.154  13.280 -0.4716 -0.1532 -0.5742
 8670TIP3   OH247424   5.593   0.453  15.180 -0.2826  0.1081  0.4245
 8670TIP3    H147425   5.671   0.472  15.231  1.2891 -0.2469 -1.7356
 8670TIP3    H247426   5.576   0.360  15.195 -0.4896  0.2518  1.1210
 8671TIP3   OH247427   6.410   5.701  14.179  0.0045  0.6432  0.1840
 8671TIP3    H147428   6.332   5.645  14.175  0.5240 -0.0154 -0.8395
 8671TIP3    H247429   6.388   5.766  14.247 -0.6300 -0.7501  1.3647
 8672TIP3   OH247430   1.142   2.007   3.718  0.7395  0.8674 -0.7503
 8672TIP3    H147431   1.088   2.048   3.650  0.3043  1.1889 -0.2227
 8672TIP3    H247432   1.171   2.080   3.772  0.0861  0.5033  0.1083
 8673TIP3   OH247433   4.272   2.535   1.269  0.0403  0.2091 -0.0390
 8673TIP3    H147434   4.186   2.516   1.307  0.1726 -1.6862 -0.5591
 8673TIP3    H247435   4.328   2.552   1.344 -0.2360 -1.0772  0.4811
 8674TIP3   OH247436   5.801   1.445   1.205  0.1261  0.6516  0.6224
 8674TIP3    H147437   5.778   1.536   1.221  0.1166  0.7777 -0.0495
 8674TIP3    H247438   5.793   1.402   1.290 -0.6188  1.1160  0.7977
 8675TIP3   OH247439   0.441   5.948   0.130  0.0905 -0.2744 -0.1487
 8675TIP3    H147440   0.443   6.027   0.183  0.5942 -1.0460  1.0315
 8675TIP3    H247441   0.393   5.973   0.051  0.9261  1.4042 -0.1604
 8676TIP3   OH247442   4.412   2.195   2.733 -0.8712 -0.2139 -0.1248
 8676TIP3    H147443   4.344   2.168   2.672  0.4523 -1.5548 -1.0589
 8676TIP3    H247444   4.448   2.113   2.767 -0.2828  0.4874  1.0029
 8677TIP3   OH247445   1.629   2.938   3.832  0.4389 -0.6278  0.0560
 8677TIP3    H147446   1.597   3.022   3.798  1.2102 -0.4771 -0.3048
 8677TIP3    H247447   1.551   2.882   3.833  0.0672 -0.1289 -0.4034
 8678TIP3   OH247448   2.913   0.242   6.304  0.1796 -0.8263  0.2569
 8678TIP3    H147449   2.917   0.192   6.386  0.7412 -1.7794 -0.3292
 8678TIP3    H247450   2.971   0.195   6.245  0.9794  0.7220 -0.2406
 8679TIP3   OH247451   1.201   1.317  15.740 -0.2101 -0.5412 -0.1762
 8679TIP3    H147452   1.246   1.234  15.755  0.4179 -0.6127 -2.2131
 8679TIP3    H247453   1.116   1.307  15.785 -0.6600 -2.7805 -1.4054
 8680TIP3   OH247454   5.528   4.868  16.483 -0.6652  0.3899  0.3766
 8680TIP3    H147455   5.610   4.855  16.531  0.6214  1.9882 -1.2296
 8680TIP3    H247456   5.544   4.830  16.397 -1.3079  1.3928 -0.2119
 8681TIP3   OH247457   2.960   0.727   0.380 -0.3785 -0.1973  0.0408
 8681TIP3    H147458   3.026   0.726   0.448  0.4372 -2.7554 -0.6672
 8681TIP3    H247459   2.973   0.645   0.332 -1.8105  0.8304 -2.3244
 8682TIP3   OH247460   6.461   0.798  12.765 -0.4455 -0.0619 -0.7976
 8682TIP3    H147461   6.439   0.891  12.762 -0.2306 -0.0147 -0.8909
 8682TIP3    H247462   6.394   0.756  12.711  0.3871  0.2187 -2.0911
 8683TIP3   OH247463   6.500   6.444   5.086  0.2891  0.0409 -0.5422
 8683TIP3    H147464   6.442   6.368   5.080  1.9605 -1.2173 -2.4888
 8683TIP3    H247465   6.565   6.419   5.152 -0.1909  0.5628  0.1320
 8684TIP3   OH247466   0.196   3.661  16.908  0.1237 -0.1835 -0.1321
 8684TIP3    H147467   0.267   3.672  16.844  0.4005  0.5576  0.2878
 8684TIP3    H247468   0.117   3.653  16.856  0.4239 -0.2101 -0.5863
 8685TIP3   OH247469   6.444   4.045  13.146 -0.0139 -0.0859  0.0079
 8685TIP3    H147470   6.384   3.981  13.185 -0.4954 -0.0299 -0.6261
 8685TIP3    H247471   6.483   4.000  13.071  0.4812 -0.0034  0.2115
 8686TIP3   OH247472   3.892   1.406  11.645 -0.0378  0.3488 -0.0699
 8686TIP3    H147473   3.806   1.389  11.605 -0.0003 -1.4771  0.5437
 8686TIP3    H247474   3.871   1.455  11.725 -0.3587  1.2311 -0.6702
 8687TIP3   OH247475   6.004   3.929  15.407 -0.7186  0.2790  0.5032
 8687TIP3    H147476   6.083   3.927  15.460  0.3535  1.7054 -0.9527
 8687TIP3    H247477   6.004   3.845  15.360 -0.6106 -0.1349  1.2252
 8688TIP3   OH247478   5.900   2.699   2.239 -0.0950  0.1047  0.7058
 8688TIP3    H147479   5.912   2.702   2.144 -1.3545  1.1326  0.5481
 8688TIP3    H247480   5.942   2.779   2.271  0.3777 -0.2660  1.0359
 8689TIP3   OH247481   0.834   0.927  16.375 -0.1973  0.4936  0.4323
 8689TIP3    H147482   0.791   0.852  16.417  0.1022 -0.9187 -1.6136
 8689TIP3    H247483   0.810   1.002  16.429 -0.5734 -1.0495  2.5340
 8690TIP3   OH247484   1.481   0.714   5.916 -0.0391  0.3576 -0.7024
 8690TIP3    H147485   1.528   0.731   5.998 -0.7834  3.2384 -0.7561
 8690TIP3    H247486   1.392   0.691   5.943  0.1082 -0.2293 -0.6992
 8691TIP3   OH247487   1.158   2.105   2.920  0.3887  0.3971 -0.2662
 8691TIP3    H147488   1.144   2.013   2.898  1.0396  0.0356  0.7430
 8691TIP3    H247489   1.204   2.141   2.844 -1.5521  0.4063 -1.4990
 8692TIP3   OH247490   5.123   6.609  11.338  0.0798  0.2036  0.4483
 8692TIP3    H147491   5.110   6.574  11.426  0.8208  0.3289  0.6166
 8692TIP3    H247492   5.043   6.657  11.319 -0.9177 -1.4843  0.2497
 8693TIP3   OH247493   6.599   4.306  12.043 -0.1582  0.2302  0.3627
 8693TIP3    H147494   6.578   4.323  12.135  0.1820 -1.6029  0.8117
 8693TIP3    H247495   6.694   4.297  12.042 -0.3498 -2.7407  0.4397
 8694TIP3   OH247496   3.510   6.598   3.898 -0.1154 -0.7125  0.1016
 8694TIP3    H147497   3.521   6.504   3.909  1.8708 -0.6954 -1.1940
 8694TIP3    H247498   3.556   6.636   3.973 -1.4936 -0.7396  0.9954
 8695TIP3   OH247499   3.967   4.422   0.298  0.1385  0.1615 -0.5289
 8695TIP3    H147500   3.910   4.438   0.223  1.0750  1.9675 -0.9063
 8695TIP3    H247501   4.055   4.443   0.266  0.3980  2.5277  1.4673
 8696TIP3   OH247502   6.753   3.034  13.535  0.1267 -0.7294 -0.1588
 8696TIP3    H147503   6.683   3.036  13.469 -0.5369 -0.4421  0.5395
 8696TIP3    H247504   6.758   3.124  13.567  0.1507 -0.9587  0.4811
 8697TIP3   OH247505   3.516   4.032   4.122 -0.4705 -0.1037 -0.7347
 8697TIP3    H147506   3.445   4.083   4.082 -1.0554  1.2327  1.8064
 8697TIP3    H247507   3.561   3.991   4.048 -3.4037 -0.3944 -2.4966
 8698TIP3   OH247508   0.928   1.439  15.601 -0.0673 -0.4022  0.3231
 8698TIP3    H147509   0.948   1.454  15.509  2.1571  1.8738  1.0716
 8698TIP3    H247510   1.000   1.385  15.633 -0.7040 -0.9826  0.8104
 8699TIP3   OH247511   4.559   4.608  14.846 -0.8391 -0.1074  0.0528
 8699TIP3    H147512   4.556   4.680  14.784 -0.5813  0.3023  0.5076
 8699TIP3    H247513   4.528   4.645  14.929 -0.2839 -0.3947  0.3998
 8700TIP3   OH247514   1.112   6.519  11.786 -1.0690  0.3279  0.1279
 8700TIP3    H147515   1.119   6.610  11.815 -1.0309  0.4050 -0.1224
 8700TIP3    H247516   1.057   6.477  11.853 -2.0775  0.8068 -0.3772
 8701TIP3   OH247517   1.963   2.079  16.477  0.1220  0.2533 -0.6650
 8701TIP3    H147518   1.978   2.126  16.395 -0.4408 -0.5285 -1.2284
 8701TIP3    H247519   1.878   2.110  16.508  0.7348  1.2078  0.0949
 8702TIP3   OH247520   1.313   5.695  15.207  0.3317 -0.4635 -0.2835
 8702TIP3    H147521   1.381   5.755  15.176  0.7841  0.0187  1.5128
 8702TIP3    H247522   1.239   5.709  15.148  0.8789  0.9067 -0.6764
 8703TIP3   OH247523   0.210   3.278   2.607 -0.1481 -0.3360  0.1895
 8703TIP3    H147524   0.122   3.296   2.639 -0.1030 -0.4818  0.3982
 8703TIP3    H247525   0.245   3.212   2.668 -0.7046 -1.9517 -1.1480
 8704TIP3   OH247526   6.105   3.794  10.678  0.1338 -0.1520  0.4198
 8704TIP3    H147527   6.062   3.872  10.713  0.7810  1.3192 -1.8296
 8704TIP3    H247528   6.051   3.770  10.602  0.5255 -1.3158  0.4854
 8705TIP3   OH247529   0.056   4.701   3.100 -0.5879  0.3413  0.0103
 8705TIP3    H147530   0.052   4.759   3.025 -0.5903  0.4283  0.0777
 8705TIP3    H247531  -0.015   4.729   3.157 -1.2758 -0.4214 -0.4516
 8706TIP3   OH247532   6.009   5.919  16.159  0.4796  0.2061  0.2594
 8706TIP3    H147533   5.948   5.942  16.090  0.0632  0.9458  0.8542
 8706TIP3    H247534   5.988   5.980  16.230  0.0721 -1.3322  1.5022
 8707TIP3   OH247535   6.758   1.002   0.366  0.9801  0.3682 -0.1935
 8707TIP3    H147536   6.746   1.029   0.275  1.3100  0.9528 -0.0728
 8707TIP3    H247537   6.725   0.912   0.369 -0.2493  0.7864 -0.5849
 8708TIP3   OH247538   4.286   2.906  14.247 -0.2538  0.0108 -0.1762
 8708TIP3    H147539   4.202   2.901  14.291 -0.3546 -1.4706 -0.5104
 8708TIP3    H247540   4.345   2.852  14.299 -0.3409 -1.6617 -1.7152
 8709TIP3   OH247541   0.830   1.704  14.760  0.4058  0.4261  0.5197
 8709TIP3    H147542   0.878   1.688  14.842 -0.3001  0.0949  0.8779
 8709TIP3    H247543   0.894   1.687  14.691  1.3781  1.8987  1.0024
 8710TIP3   OH247544   1.958   5.250   0.814  0.3323  0.4957  0.1643
 8710TIP3    H147545   1.863   5.246   0.816  0.3568 -0.1046  1.9301
 8710TIP3    H247546   1.984   5.188   0.746 -0.5014 -0.4193  0.6548
 8711TIP3   OH247547   4.947   3.974  13.404 -0.2455  0.3103 -0.7172
 8711TIP3    H147548   4.998   3.917  13.462  1.8751  1.8743 -0.9005
 8711TIP3    H247549   4.924   3.919  13.329  0.0849 -0.8004 -0.0178
 8712TIP3   OH247550   3.747   3.766   4.548  0.1932  0.1896  0.0539
 8712TIP3    H147551   3.673   3.710   4.572 -0.3430 -0.3688 -2.5842
 8712TIP3    H247552   3.708   3.853   4.536 -0.0862 -0.0896 -1.2645
 8713TIP3   OH247553   2.023   3.380  13.989  0.3722  0.5154 -0.1785
 8713TIP3    H147554   2.078   3.448  13.951 -0.8304  1.0261 -1.0645
 8713TIP3    H247555   2.078   3.340  14.058  1.9290  0.8050 -1.2034
 8714TIP3   OH247556   2.402   3.977  15.296 -0.5534 -0.3006 -0.4684
 8714TIP3    H147557   2.342   4.049  15.317  0.6071  0.6525 -0.3014
 8714TIP3    H247558   2.364   3.936  15.219 -0.7941  1.0777 -1.1233
 8715TIP3   OH247559   1.114   3.866  14.950  0.1333  0.3432  0.1637
 8715TIP3    H147560   1.130   3.889  15.042 -0.4379 -1.0715  0.6391
 8715TIP3    H247561   1.033   3.816  14.951 -0.3216  0.9771 -1.2409
 8716TIP3   OH247562   4.061   3.979  14.564  0.2064 -0.2140 -0.5095
 8716TIP3    H147563   4.153   3.976  14.535  0.6334 -3.1028  0.7625
 8716TIP3    H247564   4.010   3.960  14.485  0.7477  0.4360 -1.0291
 8717TIP3   OH247565   0.549   4.310  15.376  0.4387  0.6727  0.5370
 8717TIP3    H147566   0.583   4.340  15.291 -1.0748  1.2447  0.0958
 8717TIP3    H247567   0.456   4.296  15.360  0.0645  1.0951  2.1877
 8718TIP3   OH247568   2.288   0.480  17.043  0.2465  0.0197 -0.2894
 8718TIP3    H147569   2.356   0.537  17.080  0.0337 -0.0359  0.1920
 8718TIP3    H247570   2.283   0.505  16.951  1.1582 -0.2074 -0.4113
 8719TIP3   OH247571   3.713   3.443   2.950  0.5072 -0.4615 -0.2767
 8719TIP3    H147572   3.759   3.400   2.877  0.7121 -0.2657 -0.2613
 8719TIP3    H247573   3.744   3.398   3.028  0.1099 -0.8321 -0.3254
 8720TIP3   OH247574   1.185   3.416   4.075 -0.0324 -0.3206  0.2932
 8720TIP3    H147575   1.216   3.465   4.151 -0.2424 -0.0005  0.1758
 8720TIP3    H247576   1.252   3.350   4.060  0.5465  0.2936  0.1001
 8721TIP3   OH247577   0.648   5.242  14.987  0.5189 -0.3905  0.6282
 8721TIP3    H147578   0.612   5.273  15.070 -0.9134 -1.7584  0.5482
 8721TIP3    H247579   0.685   5.156  15.007  0.0357 -0.7935 -0.1691
 8722TIP3   OH247580   3.000   3.122  13.646  0.0817  0.0560 -0.2708
 8722TIP3    H147581   3.075   3.095  13.592 -0.4650 -0.0373 -0.9883
 8722TIP3    H247582   2.950   3.042  13.660 -0.6849  0.3824 -1.0583
 8723TIP3   OH247583   6.634   5.600   3.335  0.1092  0.1282  0.5521
 8723TIP3    H147584   6.681   5.562   3.409  1.3021  0.0866 -0.2038
 8723TIP3    H247585   6.675   5.562   3.258 -2.2406 -1.1596 -0.1642
 8724TIP3   OH247586   2.164   3.835  12.814  0.0664  0.8192 -0.1567
 8724TIP3    H147587   2.204   3.852  12.728  1.8443  0.7381  0.6112
 8724TIP3    H247588   2.156   3.739  12.817  1.2625  0.7137  0.2708
 8725TIP3   OH247589   3.770   6.331  13.696  0.8725 -0.1228 -0.2057
 8725TIP3    H147590   3.685   6.314  13.653  0.1818 -0.3747  1.1907
 8725TIP3    H247591   3.782   6.256  13.754  1.2526  0.7060  0.8201
 8726TIP3   OH247592   3.577   0.919   5.158  0.0826  0.3350 -0.0309
 8726TIP3    H147593   3.530   0.876   5.230 -0.9910 -0.4745 -1.1771
 8726TIP3    H247594   3.524   0.995   5.137 -0.3135 -0.1375 -0.7966
 8727TIP3   OH247595   2.787   1.541  15.880  0.6952  0.3817  0.9230
 8727TIP3    H147596   2.822   1.459  15.844 -1.5994 -0.6513  0.9184
 8727TIP3    H247597   2.731   1.576  15.811  0.3225  1.0779  1.5589
 8728TIP3   OH247598   5.184   5.014  16.520 -0.2356  0.4694  0.5114
 8728TIP3    H147599   5.254   4.995  16.457  1.1246 -0.1217  2.1006
 8728TIP3    H247600   5.107   5.032  16.466  1.0740  0.9100 -1.3139
 8729TIP3   OH247601   5.827   2.857  12.377  0.3638 -0.1757 -0.0604
 8729TIP3    H147602   5.844   2.849  12.471  2.1809  0.6377 -0.2860
 8729TIP3    H247603   5.821   2.951  12.362 -0.1148 -0.3116 -0.7405
 8730TIP3   OH247604   4.852   0.292  15.609 -0.0108  0.2546 -0.4279
 8730TIP3    H147605   4.859   0.380  15.647 -1.3265  0.6590 -1.0926
 8730TIP3    H247606   4.760   0.282  15.589  0.1584 -1.2269 -0.5336
 8731TIP3   OH247607   5.038   2.715   4.039 -0.1328  0.4938 -0.1276
 8731TIP3    H147608   4.984   2.638   4.055  1.0796 -0.2583  0.4896
 8731TIP3    H247609   5.009   2.779   4.104 -0.0567 -0.0264  0.4283
 8732TIP3   OH247610   4.534   5.457  16.443 -0.3126  0.2571  0.5154
 8732TIP3    H147611   4.472   5.414  16.384  0.7375  0.4626 -0.7814
 8732TIP3    H247612   4.514   5.421  16.529  0.3433 -2.6883 -0.4555
 8733TIP3   OH247613   1.651   5.011   2.838 -0.8310 -0.2563  0.0935
 8733TIP3    H147614   1.697   4.959   2.773  0.9920 -0.1447  1.2082
 8733TIP3    H247615   1.609   4.947   2.896  0.7728 -0.5275  1.0186
 8734TIP3   OH247616   0.227   3.142   0.550 -0.6696 -0.2219 -0.2031
 8734TIP3    H147617   0.160   3.098   0.497 -1.0976 -0.0480  0.1904
 8734TIP3    H247618   0.178   3.201   0.606 -0.1157  0.6384 -0.6043
 8735TIP3   OH247619   3.319   4.131   3.962 -0.0400  0.2212  0.3884
 8735TIP3    H147620   3.224   4.137   3.947 -0.2612 -0.8674  1.2526
 8735TIP3    H247621   3.355   4.109   3.877 -0.5045  1.1366 -0.0608
 8736TIP3   OH247622   1.433   4.784  15.357 -0.2184 -0.2051  0.2315
 8736TIP3    H147623   1.500   4.723  15.325 -1.0217  0.0470 -2.1547
 8736TIP3    H247624   1.399   4.742  15.436  0.3820 -2.0779 -0.4287
 8737TIP3   OH247625   2.827   2.630  10.432  0.1164  0.1753  0.0917
 8737TIP3    H147626   2.819   2.724  10.448 -0.1327  0.3695 -1.0979
 8737TIP3    H247627   2.914   2.619  10.394 -0.9458  0.3786 -2.5890
 8738TIP3   OH247628   1.950   5.719  15.418  0.2047  0.2390  0.2215
 8738TIP3    H147629   1.973   5.760  15.335  1.3088 -0.9532 -0.1011
 8738TIP3    H247630   1.863   5.682  15.404  0.6774 -0.5742 -0.6607
 8739TIP3   OH247631   6.569   0.134  13.712 -0.6548  0.2765  0.4764
 8739TIP3    H147632   6.482   0.094  13.719  0.2169 -1.5955  1.1209
 8739TIP3    H247633   6.590   0.131  13.619 -0.9173 -0.0662  0.4276
 8740TIP3   OH247634   5.009   5.528  16.325 -0.4748  0.3978  0.1826
 8740TIP3    H147635   5.016   5.537  16.230 -2.6481 -1.6405 -0.2854
 8740TIP3    H247636   4.918   5.552  16.344 -0.3187 -0.0506  1.6241
 8741TIP3   OH247637   2.139   6.004  11.420  0.4597 -0.0428  0.0945
 8741TIP3    H147638   2.200   5.933  11.443  0.8524  0.6099  1.1532
 8741TIP3    H247639   2.192   6.066  11.371  0.6706  0.5035  0.9783
 8742TIP3   OH247640   4.934   5.503   6.628  0.2781  0.2429  0.1376
 8742TIP3    H147641   4.964   5.454   6.551  1.2876  1.1167 -0.0533
 8742TIP3    H247642   4.839   5.496   6.625  0.3882 -2.0359  0.3674
 8743TIP3   OH247643   4.541   6.528   3.540  0.0254  0.3785  0.2144
 8743TIP3    H147644   4.541   6.445   3.492  0.7385  1.4621 -1.7690
 8743TIP3    H247645   4.448   6.547   3.554 -0.2231  0.2715 -1.1908
 8744TIP3   OH247646   6.185   2.635   2.317  0.0629 -0.2690  0.5989
 8744TIP3    H147647   6.186   2.730   2.306 -1.4883 -0.3982 -1.2324
 8744TIP3    H247648   6.098   2.616   2.351 -1.2239 -1.2681 -2.8656
 8745TIP3   OH247649   4.991   4.586  11.232 -0.1843 -0.4154  0.0935
 8745TIP3    H147650   5.007   4.679  11.247  0.2361 -0.7065  1.6265
 8745TIP3    H247651   4.959   4.553  11.316  0.9986 -1.9199  0.0032
 8746TIP3   OH247652   6.053   5.341  14.493  0.1198  0.0828 -0.3055
 8746TIP3    H147653   5.986   5.406  14.472  0.9757  0.4787 -2.0022
 8746TIP3    H247654   6.105   5.334  14.413  1.1801 -1.3352  0.4670
 8747TIP3   OH247655   6.157   6.624  14.419 -0.3189  1.1114  0.3932
 8747TIP3    H147656   6.106   6.589  14.492 -1.7133 -1.4145 -1.6336
 8747TIP3    H247657   6.248   6.603  14.440 -0.8431 -0.9815  0.7562
 8748TIP3   OH247658   5.396   5.162   3.167  0.7660 -0.5845  0.6092
 8748TIP3    H147659   5.465   5.189   3.106 -0.2989  2.2437  0.5193
 8748TIP3    H247660   5.440   5.154   3.251  1.3089  0.7561  0.4702
 8749TIP3   OH247661   3.551   1.598  13.742 -0.8086 -0.0158 -0.1532
 8749TIP3    H147662   3.520   1.611  13.652 -0.3653 -0.7258 -0.4164
 8749TIP3    H247663   3.598   1.515  13.739  0.5541  0.7100  0.3767
 8750TIP3   OH247664   5.602   5.177  14.523 -0.5808  0.7536 -0.4089
 8750TIP3    H147665   5.538   5.158  14.455 -1.8421 -0.2431  0.9982
 8750TIP3    H247666   5.649   5.095  14.536 -1.4811  0.4464  1.0438
 8751TIP3   OH247667   2.751   1.381   2.271 -0.0409 -0.3448 -0.3122
 8751TIP3    H147668   2.725   1.460   2.222  2.0568  1.5168  1.3410
 8751TIP3    H247669   2.768   1.413   2.360  1.8807 -2.4788  0.1762
 8752TIP3   OH247670   4.212   2.889  12.840 -0.0235 -0.1400 -0.3141
 8752TIP3    H147671   4.167   2.843  12.911  0.4087 -1.3045 -0.7805
 8752TIP3    H247672   4.177   2.978  12.845 -0.5993 -0.4009  0.8449
 8753TIP3   OH247673   6.433   4.167   1.374 -0.6637  0.0759  0.2796
 8753TIP3    H147674   6.461   4.079   1.398 -0.4129  0.1573  0.2838
 8753TIP3    H247675   6.389   4.156   1.290 -2.5577 -0.3985  1.2603
 8754TIP3   OH247676   0.844   6.266   1.594 -1.1529 -0.2106 -0.0358
 8754TIP3    H147677   0.751   6.250   1.579 -0.9636  0.2386 -1.9813
 8754TIP3    H247678   0.876   6.185   1.635 -2.5725  0.0494  1.6973
 8755TIP3   OH247679   3.347   2.928  12.298  0.3504  0.3231 -0.2080
 8755TIP3    H147680   3.256   2.916  12.323  0.3203  0.3500 -0.3020
 8755TIP3    H247681   3.348   2.910  12.204  0.8984 -2.1910  0.2217
 8756TIP3   OH247682   5.955   4.575  15.909  0.1005 -0.0857 -0.2841
 8756TIP3    H147683   5.924   4.658  15.945  2.8001  1.0499 -0.3535
 8756TIP3    H247684   6.050   4.576  15.923  0.1340 -3.7516  0.8610
 8757TIP3   OH247685   0.886   6.661   2.365 -0.0215  0.6458 -0.5358
 8757TIP3    H147686   0.918   6.703   2.285  0.7068  0.3026 -0.4419
 8757TIP3    H247687   0.848   6.579   2.335  2.9092 -0.9304 -0.3275
 8758TIP3   OH247688   1.248   5.004   3.967 -0.4574 -0.3487  0.2202
 8758TIP3    H147689   1.301   4.925   3.954 -0.1862 -0.1469  0.0986
 8758TIP3    H247690   1.253   5.020   4.061  1.0297  0.5817  0.0228
 8759TIP3   OH247691   2.041   5.772  16.703 -0.7424  0.2468  0.3101
 8759TIP3    H147692   2.130   5.775  16.739 -1.1434 -0.6003  1.4589
 8759TIP3    H247693   2.048   5.816  16.618  0.9080 -0.3482  0.0904
 8760TIP3   OH247694   4.551   3.035   2.810  0.1199  0.6881 -0.2726
 8760TIP3    H147695   4.603   2.979   2.752 -0.2399  0.2427 -0.1653
 8760TIP3    H247696   4.612   3.104   2.837 -0.1440  1.9120 -2.5449
 8761TIP3   OH247697   0.944   0.023  14.052 -0.1203 -0.4853  0.3798
 8761TIP3    H147698   0.896   0.091  14.006  1.8778 -0.1402 -1.3423
 8761TIP3    H247699   0.979   0.066  14.129  0.9640  0.4226 -0.5915
 8762TIP3   OH247700   2.370   0.200  12.083  0.1017  0.5808  0.3131
 8762TIP3    H147701   2.298   0.249  12.044 -0.1736 -0.0216  0.0479
 8762TIP3    H247702   2.428   0.267  12.119  1.2283  1.3012 -2.5648
 8763TIP3   OH247703   0.605   2.794  11.113  0.2266  0.1276 -1.0035
 8763TIP3    H147704   0.579   2.703  11.129  0.8428 -0.2649 -2.1437
 8763TIP3    H247705   0.583   2.810  11.022  0.0139  1.1764 -0.7861
 8764TIP3   OH247706   3.407   1.868  16.975  0.3539 -0.1998 -0.1951
 8764TIP3    H147707   3.325   1.917  16.967  0.3539 -0.1589  0.0455
 8764TIP3    H247708   3.446   1.900  17.057  1.2413  0.7352 -0.9545
 8765TIP3   OH247709   6.072   2.331  15.958  0.1674 -0.0997 -0.4057
 8765TIP3    H147710   6.141   2.350  15.895  1.4583  0.9091  1.2681
 8765TIP3    H247711   6.046   2.416  15.992 -0.5042 -0.6296  0.4423
 8766TIP3   OH247712   6.728   6.130  15.245  0.0673  0.0686  0.8422
 8766TIP3    H147713   6.717   6.037  15.261 -1.1597 -0.0519 -0.4758
 8766TIP3    H247714   6.820   6.140  15.220 -0.3979 -1.2995 -1.8471
 8767TIP3   OH247715   6.472   0.817  12.457 -0.0937  0.8957 -0.6174
 8767TIP3    H147716   6.526   0.889  12.425  0.9620  0.7197  0.6909
 8767TIP3    H247717   6.516   0.788  12.537 -0.3702 -1.3560 -1.2264
 8768TIP3   OH247718   2.085   5.125  14.063 -0.1471 -0.2511 -0.0059
 8768TIP3    H147719   2.087   5.188  13.991 -1.6800 -1.0296 -0.7809
 8768TIP3    H247720   2.129   5.047  14.028 -1.4361 -0.8453 -0.3434
 8769TIP3   OH247721   3.172   2.603   5.539 -0.7427 -0.5011  0.5966
 8769TIP3    H147722   3.211   2.647   5.614 -0.1492 -0.2706  0.1620
 8769TIP3    H247723   3.096   2.656   5.517  0.0149  0.3920  0.0191
 8770TIP3   OH247724   5.908   3.940  16.584 -0.1117  0.3568  0.1417
 8770TIP3    H147725   5.966   3.902  16.518 -1.0021 -2.9035  1.0533
 8770TIP3    H247726   5.840   3.983  16.533  0.3743 -0.1974 -1.0306
 8771TIP3   OH247727   0.409   5.636  14.177  0.1460  0.5440  0.4383
 8771TIP3    H147728   0.367   5.701  14.121 -3.0435 -0.6216  1.2284
 8771TIP3    H247729   0.362   5.642  14.261 -0.5095 -2.8466  0.4634
 8772TIP3   OH247730   6.177   0.432  16.436 -0.2991 -0.1549 -0.2653
 8772TIP3    H147731   6.176   0.504  16.499 -0.5168 -1.4756  1.2787
 8772TIP3    H247732   6.250   0.453  16.378  0.7079  0.4818  1.1747
 8773TIP3   OH247733   2.866   1.795  11.097 -0.0743  0.3661  0.4026
 8773TIP3    H147734   2.923   1.730  11.139 -1.0204 -0.9588 -0.2948
 8773TIP3    H247735   2.780   1.780  11.136 -0.4869  0.6354 -0.3981
 8774TIP3   OH247736   6.304   1.527  17.147  0.5846 -0.1352  0.3718
 8774TIP3    H147737   6.263   1.480  17.220  2.3404 -2.8641 -0.2764
 8774TIP3    H247738   6.269   1.484  17.069  1.0040  0.7671 -0.3227
 8775TIP3   OH247739   2.622   5.464   3.881 -0.4710  0.3740 -0.2771
 8775TIP3    H147740   2.626   5.374   3.849  0.9238 -0.1267  1.1969
 8775TIP3    H247741   2.584   5.457   3.968 -0.4789  1.2321 -0.1995
 8776TIP3   OH247742   3.984   6.768   1.761 -0.1706  0.4232  0.1303
 8776TIP3    H147743   3.922   6.697   1.740  0.6233 -0.3451  0.3239
 8776TIP3    H247744   3.933   6.830   1.812 -1.3982  0.9409 -1.6178
 8777TIP3   OH247745   5.987   0.818  15.954  0.1327  0.0431 -0.4063
 8777TIP3    H147746   5.983   0.742  16.011  1.7408  0.6843  0.6427
 8777TIP3    H247747   5.899   0.856  15.956  0.1216 -0.0222  1.5688
 8778TIP3   OH247748   1.275   0.787   2.665  0.2415 -0.3881  0.7389
 8778TIP3    H147749   1.344   0.759   2.725  1.1040  0.3492  0.1176
 8778TIP3    H247750   1.246   0.706   2.623  2.3897 -0.4988 -0.7150
 8779TIP3   OH247751   1.679   6.568   3.327  0.1177 -0.2740 -0.2606
 8779TIP3    H147752   1.762   6.556   3.374 -0.2000  1.4656  0.8542
 8779TIP3    H247753   1.705   6.597   3.239  0.6983 -0.3169 -0.1066
 8780TIP3   OH247754   4.927   1.502   3.726  0.5502  0.2954  0.0648
 8780TIP3    H147755   4.929   1.427   3.786 -0.1357  0.5043  0.3588
 8780TIP3    H247756   4.952   1.576   3.782 -1.3764  0.7055  0.4337
 8781TIP3   OH247757   4.564   5.890  14.065  0.6485  0.1662  0.4427
 8781TIP3    H147758   4.575   5.976  14.025  1.4359  0.2324  0.7862
 8781TIP3    H247759   4.469   5.882  14.079  0.4657  0.5743 -0.4572
 8782TIP3   OH247760   6.444   6.215   1.828 -0.1114  0.7598  0.3873
 8782TIP3    H147761   6.348   6.210   1.821 -0.2342  1.5903  1.2461
 8782TIP3    H247762   6.468   6.289   1.772  0.0064  0.7206  0.3856
 8783TIP3   OH247763   4.151   3.914   2.879 -0.2838  0.6532 -0.0404
 8783TIP3    H147764   4.063   3.906   2.843 -0.3112  1.9476 -0.3122
 8783TIP3    H247765   4.208   3.929   2.803  0.3231 -1.0675  0.0397
 8784TIP3   OH247766   4.339   5.989   6.351  0.4834  0.1927 -0.3204
 8784TIP3    H147767   4.414   6.030   6.394  0.1483 -0.4985  0.9605
 8784TIP3    H247768   4.378   5.930   6.286  1.0549 -0.1675  0.3432
 8785TIP3   OH247769   3.915   3.507  16.968 -0.3200 -0.2382 -0.4380
 8785TIP3    H147770   4.004   3.482  16.942 -0.1387  2.6302 -3.1744
 8785TIP3    H247771   3.863   3.493  16.889 -1.8434  0.3183  0.4270
 8786TIP3   OH247772   3.417   1.775   5.383 -0.3656 -0.2278 -0.2319
 8786TIP3    H147773   3.365   1.735   5.313 -0.1047 -0.2181 -0.4304
 8786TIP3    H247774   3.354   1.827   5.433 -1.2330 -2.7234  1.4801
 8787TIP3   OH247775   0.043   3.285  15.168 -0.0660  0.4148  1.4626
 8787TIP3    H147776  -0.042   3.297  15.125 -0.8758 -2.0973  2.1903
 8787TIP3    H247777   0.029   3.215  15.231  2.9095 -1.2275  0.5247
 8788TIP3   OH247778   3.125   0.520  13.280 -0.3495 -0.5943 -0.3057
 8788TIP3    H147779   3.044   0.569  13.266 -0.1986 -0.6441 -1.5044
 8788TIP3    H247780   3.113   0.477  13.364 -0.1915  2.0373  1.1611
 8789TIP3   OH247781   0.385   4.032  12.176  0.3137 -0.3854  0.3235
 8789TIP3    H147782   0.441   3.963  12.213 -0.9982 -2.0874 -0.7142
 8789TIP3    H247783   0.398   4.026  12.082 -0.7988 -0.0915  0.1346
 8790TIP3   OH247784   6.184   4.777   4.112  0.2122  0.3885  0.0184
 8790TIP3    H147785   6.150   4.863   4.088 -0.3426  0.0248 -0.5664
 8790TIP3    H247786   6.277   4.790   4.127  0.1490  1.0713 -0.1711
 8791TIP3   OH247787   0.941   4.656   3.580  0.3309 -0.4305  0.1225
 8791TIP3    H147788   0.890   4.661   3.499  0.9465 -2.1543 -0.4191
 8791TIP3    H247789   0.917   4.571   3.617 -1.5571  1.1404  2.9186
 8792TIP3   OH247790   6.424   2.730  11.395 -0.3891  0.5300  0.1945
 8792TIP3    H147791   6.498   2.671  11.406 -0.6028  0.3742  0.8338
 8792TIP3    H247792   6.362   2.682  11.340 -0.3820  0.3183  0.3683
 8793TIP3   OH247793   0.479   3.531   4.234 -0.0412 -0.6413 -0.0678
 8793TIP3    H147794   0.405   3.562   4.182  1.7530  3.5892 -0.4495
 8793TIP3    H247795   0.553   3.531   4.174  1.3921  1.0429  1.5621
 8794TIP3   OH247796   2.912   4.539  15.660 -0.1253 -0.0040 -0.3226
 8794TIP3    H147797   2.973   4.498  15.721 -1.6329 -0.3773  0.9990
 8794TIP3    H247798   2.867   4.465  15.618 -2.2331  0.1796  1.4289
 8795TIP3   OH247799   4.244   0.745  12.124 -0.3411  0.3658  0.1770
 8795TIP3    H147800   4.231   0.823  12.178  3.0517  0.8305  0.5535
 8795TIP3    H247801   4.208   0.674  12.176  1.7445  0.9667  2.6147
 8796TIP3   OH247802   4.456   3.649  16.034 -0.1415 -0.0889 -0.0875
 8796TIP3    H147803   4.467   3.606  16.119 -0.0389 -1.2586 -0.6687
 8796TIP3    H247804   4.544   3.649  15.995 -0.3850 -0.5790 -0.6559
 8797TIP3   OH247805   1.564   5.410  14.887  0.3228  0.0058 -0.5759
 8797TIP3    H147806   1.520   5.381  14.806 -1.5656  1.0392  0.0096
 8797TIP3    H247807   1.530   5.498  14.901 -1.7868 -1.1866  2.9261
 8798TIP3   OH247808   4.035   5.369  17.033  0.7150 -0.2328 -0.6393
 8798TIP3    H147809   4.017   5.438  17.096  1.3955 -0.0166 -0.6745
 8798TIP3    H247810   4.125   5.385  17.005  0.2639 -0.0030 -2.0560
 8799TIP3   OH247811   3.946   6.354  15.195 -0.5307 -0.5122 -0.2214
 8799TIP3    H147812   3.881   6.378  15.260  0.6048  2.0759  0.0458
 8799TIP3    H247813   3.895   6.317  15.123 -1.9728 -1.4943  1.2454
 8800TIP3   OH247814   1.904   2.933  14.527 -0.1567 -0.0258 -0.0025
 8800TIP3    H147815   1.829   2.958  14.581 -1.5180 -1.9924 -0.8271
 8800TIP3    H247816   1.941   2.857  14.573 -0.4158 -0.7851 -1.0084
 8801TIP3   OH247817   2.115   1.379   2.785  0.4379 -0.0714 -0.0558
 8801TIP3    H147818   2.081   1.378   2.875 -0.4186  0.1234 -0.3697
 8801TIP3    H247819   2.207   1.353   2.794 -0.0980 -1.8795  0.6777
 8802TIP3   OH247820   4.797   1.520   2.464 -0.5920  0.1270  0.0945
 8802TIP3    H147821   4.794   1.487   2.554 -2.4739  0.3733  0.1690
 8802TIP3    H247822   4.819   1.443   2.411 -1.2659 -0.4333  0.6071
 8803TIP3   OH247823   2.311   6.637  14.781 -0.1905  0.1531  0.4230
 8803TIP3    H147824   2.354   6.718  14.753 -1.6673  0.8022 -0.0884
 8803TIP3    H247825   2.232   6.632  14.726  0.1988 -1.9857 -0.0138
 8804TIP3   OH247826   0.789   3.401  16.138 -0.2717  0.0209 -0.4964
 8804TIP3    H147827   0.736   3.377  16.062 -2.4530  0.6799  0.7334
 8804TIP3    H247828   0.762   3.490  16.159  2.3125  0.9204 -0.5548
 8805TIP3   OH247829   6.153   4.706   4.653  0.4282 -0.1338  0.9339
 8805TIP3    H147830   6.131   4.790   4.694  1.4899  1.2977 -1.2110
 8805TIP3    H247831   6.070   4.658   4.650 -0.2480  0.9153  2.0054
 8806TIP3   OH247832   1.582   4.386  13.556 -0.2185  0.7435 -0.5426
 8806TIP3    H147833   1.535   4.337  13.488 -2.1878  1.7726 -0.0081
 8806TIP3    H247834   1.517   4.398  13.625  0.9992  1.8313  0.4572
 8807TIP3   OH247835   2.269   6.215  13.681  0.4846  0.0766 -0.8375
 8807TIP3    H147836   2.307   6.172  13.758 -0.2546 -1.5479 -1.3422
 8807TIP3    H247837   2.210   6.150  13.644 -1.2599  1.8044 -1.2381
 8808TIP3   OH247838   0.728   3.568  15.474 -0.1274  0.3264  0.5493
 8808TIP3    H147839   0.710   3.483  15.432 -0.7049  0.5132  0.4063
 8808TIP3    H247840   0.814   3.593  15.442  0.3976 -0.5645  1.1834
 8809TIP3   OH247841   3.454   4.499   1.302 -0.4154  0.2192 -0.0854
 8809TIP3    H147842   3.473   4.453   1.220 -1.3007  0.1043 -0.2293
 8809TIP3    H247843   3.363   4.525   1.295  0.1738  2.4510 -0.2088
 8810TIP3   OH247844   1.625   6.422  11.547  0.1917 -0.1815 -0.5010
 8810TIP3    H147845   1.576   6.487  11.596  1.5917  0.3405  0.2725
 8810TIP3    H247846   1.635   6.348  11.608  1.8737  0.4405  0.0252
 8811TIP3   OH247847   3.870   4.374   3.072 -0.1547  0.1492 -0.1915
 8811TIP3    H147848   3.904   4.450   3.025 -0.0136  0.0966 -0.1762
 8811TIP3    H247849   3.910   4.379   3.159 -0.9020  0.5835  0.1313
 8812TIP3   OH247850   4.288   4.684  12.682  0.1262 -0.2557  0.2083
 8812TIP3    H147851   4.277   4.779  12.686  0.7294 -0.1755  0.0464
 8812TIP3    H247852   4.236   4.657  12.606  1.0443  0.1197 -0.5765
 8813TIP3   OH247853   0.832   1.853   4.076 -0.2655 -0.1111 -0.4095
 8813TIP3    H147854   0.912   1.821   4.036  0.5567  0.9791  0.2791
 8813TIP3    H247855   0.769   1.859   4.005  0.6563  0.2067 -1.2140
 8814TIP3   OH247856   5.781   2.354   4.694 -0.6551 -0.5374 -0.0528
 8814TIP3    H147857   5.787   2.281   4.755 -1.6909 -0.1714  0.5234
 8814TIP3    H247858   5.799   2.432   4.748 -1.9910 -0.1752 -0.1017
 8815TIP3   OH247859   1.007   2.477  15.031  0.0903 -0.2986 -0.5356
 8815TIP3    H147860   1.007   2.459  14.937 -0.3362  1.9218 -0.9990
 8815TIP3    H247861   0.920   2.512  15.050 -0.0026 -1.1512  0.8139
 8816TIP3   OH247862   2.426   4.354   2.846  0.0201 -0.3244 -0.1293
 8816TIP3    H147863   2.439   4.446   2.868 -0.4437 -0.5880  1.3447
 8816TIP3    H247864   2.479   4.340   2.767  0.2721  1.1379 -0.2358
 8817TIP3   OH247865   3.406   2.753  15.812 -0.3368  0.7038 -0.0031
 8817TIP3    H147866   3.408   2.676  15.869  0.9198  0.3945 -0.4235
 8817TIP3    H247867   3.327   2.800  15.838 -1.3865 -0.9416 -0.0311
 8818TIP3   OH247868   1.940   3.161   5.840 -0.2757  0.5163  0.3382
 8818TIP3    H147869   2.012   3.224   5.850 -0.3299  0.9296 -1.5298
 8818TIP3    H247870   1.964   3.109   5.763 -0.8758 -0.9016  1.0740
 8819TIP3   OH247871   4.706   5.720  16.417 -0.4734 -0.2022 -0.1657
 8819TIP3    H147872   4.616   5.695  16.397 -0.8338  0.3361  0.7255
 8819TIP3    H247873   4.727   5.672  16.497 -0.5337  0.8846  0.5225
 8820TIP3   OH247874   2.872   3.969   2.025  0.2379  0.0188 -0.1020
 8820TIP3    H147875   2.827   3.908   1.966 -1.1581  0.6127  0.3119
 8820TIP3    H247876   2.913   3.912   2.090 -1.1007 -0.5141  0.3197
 8821TIP3   OH247877   5.104   6.319  16.877 -0.2129 -0.6186  0.5334
 8821TIP3    H147878   5.019   6.295  16.838 -0.2935  1.5235 -0.7529
 8821TIP3    H247879   5.089   6.315  16.971 -1.6528 -0.5774  0.3284
 8822TIP3   OH247880   0.300   3.917   2.847 -0.3868  0.0148 -0.2541
 8822TIP3    H147881   0.233   3.871   2.896 -1.1641  0.6995 -0.6359
 8822TIP3    H247882   0.304   3.872   2.763 -1.0262  0.5109 -0.5645
 8823TIP3   OH247883   6.289   2.001  12.094  0.2169  0.0690  0.8402
 8823TIP3    H147884   6.261   1.911  12.112  0.1405 -0.1126 -0.1237
 8823TIP3    H247885   6.350   2.022  12.164  0.3233 -0.7813  1.0098
 8824TIP3   OH247886   5.816   3.126   4.642  0.1970  0.0566  0.4871
 8824TIP3    H147887   5.818   3.118   4.738  1.5675  0.9972  0.5804
 8824TIP3    H247888   5.843   3.040   4.610  1.7074  0.2818  1.0381
 8825TIP3   OH247889   1.268   6.281   2.241 -0.0480 -0.4082  0.3197
 8825TIP3    H147890   1.252   6.365   2.286  0.2943  0.2632 -0.7786
 8825TIP3    H247891   1.262   6.216   2.311 -1.4137  0.4114  1.0197
 8826TIP3   OH247892   1.957   0.445  11.496  0.2964  0.2039  0.3807
 8826TIP3    H147893   1.962   0.353  11.468  1.3582 -0.1950  1.7807
 8826TIP3    H247894   2.011   0.492  11.432  1.3285 -0.4505  0.7430
 8827TIP3   OH247895   1.441   1.273  16.711 -0.3158 -0.0841 -0.4147
 8827TIP3    H147896   1.472   1.354  16.750  1.1188 -0.4413 -0.7490
 8827TIP3    H247897   1.380   1.236  16.775 -1.1817  1.3620 -0.3700
 8828TIP3   OH247898   5.934   1.932  12.409  0.0376  0.7738  0.0698
 8828TIP3    H147899   5.871   1.861  12.396  0.8098  0.1207 -0.1752
 8828TIP3    H247900   6.006   1.892  12.458  0.5623  1.3506 -0.2182
 8829TIP3   OH247901   0.729   5.415   3.243  0.2668  0.5139 -0.1777
 8829TIP3    H147902   0.661   5.473   3.209 -0.7028 -0.6060 -0.2155
 8829TIP3    H247903   0.716   5.414   3.337  1.9254  2.3396  0.1259
 8830TIP3   OH247904   6.530   5.827   0.875 -0.9958 -0.0878  0.1274
 8830TIP3    H147905   6.459   5.777   0.836  0.8314 -2.1613 -0.7525
 8830TIP3    H247906   6.571   5.767   0.938  0.2272  0.8905  0.3172
 8831TIP3   OH247907   3.340   3.167   2.685  0.1729 -0.6947  0.1112
 8831TIP3    H147908   3.306   3.257   2.691  1.8336 -0.1114  1.8374
 8831TIP3    H247909   3.403   3.170   2.613  1.3335 -0.0251  1.1076
 8832TIP3   OH247910   1.342   1.488  13.284  0.1755  0.2206  0.2050
 8832TIP3    H147911   1.422   1.498  13.336  1.3079  1.1117 -1.5914
 8832TIP3    H247912   1.350   1.400  13.246  0.5750  0.4766 -0.3329
 8833TIP3   OH247913   1.741   1.878  11.178  0.0171  0.0931 -0.4870
 8833TIP3    H147914   1.685   1.809  11.212  1.4465 -1.3660 -1.0070
 8833TIP3    H247915   1.750   1.939  11.252 -1.6931  0.0529 -0.1954
 8834TIP3   OH247916   6.347   0.383   5.392  0.3247  0.2850 -0.3088
 8834TIP3    H147917   6.337   0.415   5.302 -1.0351  0.7251 -0.0322
 8834TIP3    H247918   6.285   0.436   5.443  0.2878 -0.6984  0.7000
 8835TIP3   OH247919   3.223   5.474   2.046  0.1409 -0.2631  0.5681
 8835TIP3    H147920   3.257   5.432   1.967  1.6955 -1.2850  1.7145
 8835TIP3    H247921   3.299   5.481   2.104 -0.8434  0.9382  1.7797
 8836TIP3   OH247922   4.194   4.386  10.594 -0.1756  0.3501  0.4037
 8836TIP3    H147923   4.106   4.375  10.557  0.7425 -0.7300 -1.6314
 8836TIP3    H247924   4.216   4.299  10.628  0.2013  0.5543  0.6842
 8837TIP3   OH247925   6.753   0.818   3.415  0.1219 -0.0236  0.6848
 8837TIP3    H147926   6.785   0.812   3.505 -0.4599 -0.8676  0.8458
 8837TIP3    H247927   6.683   0.883   3.418  0.5386  0.4311  0.7033
 8838TIP3   OH247928   5.627   5.685   0.099 -0.0785  0.2882  0.8535
 8838TIP3    H147929   5.633   5.770   0.055  2.4395  0.9096  2.2060
 8838TIP3    H247930   5.579   5.703   0.180 -0.3829  0.2215  0.6869
 8839TIP3   OH247931   3.560   3.861   2.464  0.3241  0.6290  0.3069
 8839TIP3    H147932   3.589   3.927   2.401  2.1561 -1.5676 -1.2770
 8839TIP3    H247933   3.470   3.841   2.439  0.7074  0.4939 -1.0018
 8840TIP3   OH247934   0.682   1.600  15.625 -0.0900 -0.1446 -0.3314
 8840TIP3    H147935   0.763   1.552  15.638  0.4496  0.4397 -1.3889
 8840TIP3    H247936   0.676   1.612  15.530 -1.3555 -0.0816 -0.2671
 8841TIP3   OH247937   2.945   0.216   3.936  0.5195 -0.0590 -0.0201
 8841TIP3    H147938   2.874   0.153   3.932  0.9301 -0.5134 -0.1717
 8841TIP3    H247939   2.989   0.198   4.019  0.4459  0.2353  0.0837
 8842TIP3   OH247940   4.671   5.692   4.865  0.0723  0.1556  0.4828
 8842TIP3    H147941   4.590   5.644   4.851  0.0039  0.0439  1.2428
 8842TIP3    H247942   4.720   5.680   4.783 -1.5182  1.9423 -0.8298
 8843TIP3   OH247943   0.019   2.779  16.844  0.3887 -0.1907  0.3948
 8843TIP3    H147944   0.099   2.831  16.833 -0.7128  1.1208 -2.4884
 8843TIP3    H247945   0.021   2.716  16.772 -0.6504 -0.9008  0.9673
 8844TIP3   OH247946   3.228   4.030   0.271 -0.5523  0.6808 -0.2754
 8844TIP3    H147947   3.288   4.020   0.196 -0.5362  0.3083 -0.2163
 8844TIP3    H247948   3.285   4.021   0.347 -0.8576 -0.9618 -0.2040
 8845TIP3   OH247949   0.359   2.796   5.559 -0.2123  0.4834 -0.0434
 8845TIP3    H147950   0.308   2.715   5.555 -0.1096  0.4830 -1.9914
 8845TIP3    H247951   0.442   2.771   5.599 -0.4839 -0.1947  0.1085
 8846TIP3   OH247952   4.395   4.884  15.877  0.0129  0.1002 -0.0925
 8846TIP3    H147953   4.449   4.930  15.813 -0.5549  0.0096 -0.6460
 8846TIP3    H247954   4.312   4.932  15.878 -0.7440 -1.1263 -0.9836
 8847TIP3   OH247955   3.031   5.455  10.934 -0.6564 -0.3917 -0.1601
 8847TIP3    H147956   3.099   5.387  10.931 -0.3302 -0.0574 -0.4155
 8847TIP3    H247957   3.023   5.485  10.844 -0.1994  0.4927  0.0807
 8848TIP3   OH247958   4.712   2.898   2.095  0.2141  0.2727 -0.2053
 8848TIP3    H147959   4.629   2.912   2.141 -0.0762  0.3498 -0.7480
 8848TIP3    H247960   4.779   2.924   2.159  0.0606 -3.3484  1.6733
 8849TIP3   OH247961   2.146   6.751   4.747 -0.1831 -0.0139 -0.0910
 8849TIP3    H147962   2.130   6.820   4.811 -1.3417 -0.3441  0.0048
 8849TIP3    H247963   2.216   6.698   4.785  0.6188  1.0217 -0.1083
 8850TIP3   OH247964   3.143   5.072   2.574 -0.0491 -0.3557  0.3799
 8850TIP3    H147965   3.049   5.086   2.580 -0.1895 -0.5005 -1.1006
 8850TIP3    H247966   3.177   5.104   2.657 -1.2509  1.0827  0.3766
 8851TIP3   OH247967   1.883   1.899   2.423  0.2481 -0.7219  0.2552
 8851TIP3    H147968   1.893   1.994   2.416 -0.5216 -0.5965  0.6938
 8851TIP3    H247969   1.850   1.872   2.338  2.5868 -0.9313 -0.6593
 8852TIP3   OH247970   2.274   4.273  15.739  0.1465  0.3865  0.3484
 8852TIP3    H147971   2.232   4.314  15.663 -0.9644  3.3121  2.3314
 8852TIP3    H247972   2.367   4.273  15.717 -0.1467  1.0746 -1.0600
 8853TIP3   OH247973   2.035   1.048   1.430  0.3852 -0.1725  0.4583
 8853TIP3    H147974   1.995   1.050   1.343 -0.6382 -1.2632  0.8887
 8853TIP3    H247975   2.106   0.984   1.422  0.1904 -0.3901  0.4697
 8854TIP3   OH247976   2.912   1.276   5.966 -0.1332  0.3003 -0.0245
 8854TIP3    H147977   2.918   1.335   5.890  2.0926  0.3580  0.1537
 8854TIP3    H247978   2.925   1.333   6.042  2.1639 -0.3586  0.1458
 8855TIP3   OH247979   2.278   2.626  16.256 -0.4636  0.5193  0.3462
 8855TIP3    H147980   2.337   2.690  16.296 -0.2812 -0.3326  1.4830
 8855TIP3    H247981   2.304   2.623  16.165  1.1650  0.2814  0.7900
 8856TIP3   OH247982   5.156   3.982  15.609  0.6265 -0.0704  0.0359
 8856TIP3    H147983   5.251   3.993  15.601  0.6847  0.6139  1.4281
 8856TIP3    H247984   5.141   3.968  15.703 -0.3024 -3.8734 -0.4785
 8857TIP3   OH247985   2.235   0.669  11.973  0.6628  0.0820 -0.3405
 8857TIP3    H147986   2.241   0.641  12.065 -0.2435 -0.4515 -0.4299
 8857TIP3    H247987   2.220   0.763  11.978  1.5905  0.2220  0.0246
 8858TIP3   OH247988   0.628   6.688  13.092  0.0893  0.3217 -0.6624
 8858TIP3    H147989   0.689   6.687  13.166  0.2415 -2.2980 -0.7452
 8858TIP3    H247990   0.621   6.781  13.069  0.6583  1.1623  2.1012
 8859TIP3   OH247991   5.826   1.911   2.337  0.0794  0.8617  0.0835
 8859TIP3    H147992   5.777   1.992   2.352  0.3641  1.6259 -2.6624
 8859TIP3    H247993   5.788   1.874   2.258  1.1059 -0.8100  0.3179
 8860TIP3   OH247994   1.604   1.476  11.294  0.3905 -0.0057  0.0472
 8860TIP3    H147995   1.654   1.417  11.238 -0.7406  1.1764 -2.3433
 8860TIP3    H247996   1.514   1.443  11.290 -0.0847  1.2792 -0.5662
 8861TIP3   OH247997   0.114   5.313   5.455  0.4509 -1.1022  0.3185
 8861TIP3    H147998   0.025   5.327   5.487  0.1237 -0.9344 -0.6242
 8861TIP3    H247999   0.109   5.331   5.361  1.8111  0.3643  0.4921
 8862TIP3   OH248000   2.682   6.657   2.221 -0.5258 -0.3598 -0.0787
 8862TIP3    H148001   2.601   6.626   2.263 -0.0616  0.0128  1.1190
 8862TIP3    H248002   2.692   6.747   2.253  1.0406 -0.8290  0.8178
 8863TIP3   OH248003   3.429   3.329  10.982 -0.7125  0.2960  0.4404
 8863TIP3    H148004   3.510   3.367  10.946 -0.7170  0.7326  0.8803
 8863TIP3    H248005   3.455   3.293  11.067 -0.2247 -2.5984 -0.8078
 8864TIP3   OH248006   4.305   6.008  10.631  0.6532  0.3012  0.2314
 8864TIP3    H148007   4.390   5.993  10.673 -0.2744  1.3869  2.7071
 8864TIP3    H248008   4.245   5.948  10.676  0.0023 -0.2089 -1.2441
 8865TIP3   OH248009   3.450   4.043  10.110 -0.3940 -0.0187  0.0740
 8865TIP3    H148010   3.427   3.973  10.172 -0.7442  0.9788  1.1200
 8865TIP3    H248011   3.543   4.060  10.128 -0.7857  1.0889  1.2288
 8866TIP3   OH248012   5.311   1.982   4.321  0.6255 -0.3467  0.1829
 8866TIP3    H148013   5.370   2.038   4.372  1.0349  0.8620 -1.5436
 8866TIP3    H248014   5.233   2.035   4.309 -0.5415 -1.6052  1.6792
 8867TIP3   OH248015   4.287   3.180  10.824  0.2360  0.0183 -0.0330
 8867TIP3    H148016   4.206   3.221  10.854 -0.1041  0.3915 -1.3978
 8867TIP3    H248017   4.306   3.223  10.741  1.1148 -0.9993 -0.3767
 8868TIP3   OH248018   6.095   2.472  15.344  0.4211  0.1115 -0.1291
 8868TIP3    H148019   6.099   2.482  15.249 -0.7942 -0.1434 -0.2248
 8868TIP3    H248020   6.010   2.509  15.368  1.3365  1.5913  1.0649
 8869TIP3   OH248021   0.966   0.650   4.707 -0.2528 -0.4078  0.4838
 8869TIP3    H148022   1.048   0.604   4.726  0.1764  0.1559  0.0183
 8869TIP3    H248023   0.902   0.580   4.693  0.7115 -0.9416 -1.7240
 8870TIP3   OH248024   3.667   1.361  13.715 -0.0889  0.2830  0.0500
 8870TIP3    H148025   3.737   1.300  13.737 -0.0522  0.4706  0.4669
 8870TIP3    H248026   3.632   1.329  13.632  1.2277  0.8510 -0.7396
 8871TIP3   OH248027   2.186   1.539   0.560  0.2851 -0.1215  0.8652
 8871TIP3    H148028   2.243   1.517   0.634 -0.5412 -0.3094  1.4566
 8871TIP3    H248029   2.099   1.550   0.599 -0.3076 -0.9490 -0.1689
 8872TIP3   OH248030   0.231   3.115   1.671 -0.2411  0.7382  0.2823
 8872TIP3    H148031   0.206   3.131   1.762  0.9109  2.5855  0.3209
 8872TIP3    H248032   0.306   3.056   1.677  0.1952  1.3097  0.5816
 8873TIP3   OH248033   0.761   3.019  12.117 -0.4313  0.0095 -0.6525
 8873TIP3    H148034   0.845   2.972  12.124 -0.5744 -0.2419 -0.6133
 8873TIP3    H248035   0.695   2.951  12.128 -0.6592  0.4760  1.4395
 8874TIP3   OH248036   6.552   0.768   2.184 -0.0343  0.2565 -0.2735
 8874TIP3    H148037   6.467   0.745   2.147  0.0920 -1.3021  0.3444
 8874TIP3    H248038   6.603   0.799   2.109 -0.9161  0.5417 -0.7656
 8875TIP3   OH248039   6.763   3.741   3.225  0.2492 -0.3152  0.5002
 8875TIP3    H148040   6.811   3.698   3.296 -0.0807  0.6171  1.3074
 8875TIP3    H248041   6.672   3.742   3.255  0.1787  0.5094  0.2741
 8876TIP3   OH248042   1.454   2.193  16.759  0.7865 -0.2366  0.4435
 8876TIP3    H148043   1.361   2.175  16.748  0.0624  1.7649  2.4343
 8876TIP3    H248044   1.468   2.275  16.711  1.6476 -0.7982 -0.2779
 8877TIP3   OH248045   3.764   5.093  16.685 -0.5661 -0.3488 -0.1216
 8877TIP3    H148046   3.678   5.134  16.682 -2.3919 -3.4655  2.8336
 8877TIP3    H248047   3.810   5.140  16.754 -0.9307 -0.4115  0.1663
 8878TIP3   OH248048   3.230   1.678  15.515  0.7354 -0.3736  0.0550
 8878TIP3    H148049   3.321   1.705  15.500 -0.0187  1.9615 -0.7152
 8878TIP3    H248050   3.177   1.750  15.481 -1.3901 -0.5232  2.6591
 8879TIP3   OH248051   4.822   2.686   3.002  0.0371 -0.3047  0.3126
 8879TIP3    H148052   4.842   2.621   3.069  0.4082 -0.5547 -0.0329
 8879TIP3    H248053   4.904   2.695   2.952 -0.0001  0.4560  0.3829
 8880TIP3   OH248054   2.508   4.422   3.333  0.6751 -0.2468 -0.0737
 8880TIP3    H148055   2.572   4.404   3.263  2.2023 -1.2713  1.5007
 8880TIP3    H248056   2.501   4.339   3.380  0.3344  0.6407  1.5095
 8881TIP3   OH248057   6.287   3.049  16.987 -0.1344  0.2396  0.4157
 8881TIP3    H148058   6.356   3.077  16.927  0.9350 -1.2659  0.8849
 8881TIP3    H248059   6.278   3.122  17.049  1.0499  0.4599  0.3581
 8882TIP3   OH248060   2.520   3.998  11.996 -0.1803  0.5037  0.7452
 8882TIP3    H148061   2.509   4.093  11.997 -2.0161  0.4160 -1.7375
 8882TIP3    H248062   2.609   3.984  11.964  0.6540  1.3218  2.5439
 8883TIP3   OH248063   5.593   3.927  13.769 -0.2971  0.1514 -0.3901
 8883TIP3    H148064   5.574   3.931  13.676  1.0986  1.0104 -0.6796
 8883TIP3    H248065   5.574   3.837  13.794  0.9121 -0.5800 -1.9056
 8884TIP3   OH248066   5.833   0.420  14.009 -0.9830 -0.2948 -0.3369
 8884TIP3    H148067   5.802   0.333  13.985 -0.9788 -0.0335 -1.3356
 8884TIP3    H248068   5.928   0.417  13.994 -0.3722 -1.1589  2.9046
 8885TIP3   OH248069   0.267   4.943   0.224 -0.1010  0.5973  0.1255
 8885TIP3    H148070   0.253   4.892   0.303  1.4102  1.7166  1.1940
 8885TIP3    H248071   0.321   4.887   0.168 -0.7273  0.0024  0.1184
 8886TIP3   OH248072   5.185   0.032   4.224 -0.5069 -0.3701 -0.7319
 8886TIP3    H148073   5.097  -0.005   4.224 -0.6567 -0.0363 -0.1449
 8886TIP3    H248074   5.225  -0.001   4.305 -0.4738  0.3439 -0.4500
 8887TIP3   OH248075   1.507   1.051   2.884 -0.0378 -0.5443 -0.1072
 8887TIP3    H148076   1.424   1.052   2.836 -1.3325  3.3328  1.8011
 8887TIP3    H248077   1.538   1.142   2.880  1.8071 -0.9156  2.9540
 8888TIP3   OH248078   5.426   5.764  13.990 -0.2423  0.2389 -0.3709
 8888TIP3    H148079   5.338   5.739  14.016 -0.7628  1.8359 -0.4695
 8888TIP3    H248080   5.413   5.840  13.932  1.1915  0.5995 -0.2653
 8889TIP3   OH248081   1.058   5.621  16.210  0.6018 -0.0396  0.1464
 8889TIP3    H148082   0.991   5.674  16.167  1.3778  1.5988  0.8687
 8889TIP3    H248083   1.013   5.582  16.285 -0.7616 -2.9254 -1.9797
 8890TIP3   OH248084   5.761   2.857  11.035 -0.5864  0.3636  0.1144
 8890TIP3    H148085   5.737   2.852  11.127  0.3062  1.7600  0.4538
 8890TIP3    H248086   5.707   2.791  10.992 -1.5251  0.1818  1.5294
 8891TIP3   OH248087   1.478   0.094   1.076  0.0817 -0.1434  0.0655
 8891TIP3    H148088   1.443   0.025   1.021  0.7265 -1.7483  1.5917
 8891TIP3    H248089   1.404   0.154   1.088 -0.4112 -0.3700 -1.5013
 8892TIP3   OH248090   2.806   5.570  15.293  0.4585 -0.6901 -0.3491
 8892TIP3    H148091   2.797   5.514  15.216  1.3845 -0.5552 -0.5663
 8892TIP3    H248092   2.879   5.629  15.272 -1.2954  1.5199 -0.6780
 8893TIP3   OH248093   1.462   2.512  11.750  0.3768  0.4921  0.1672
 8893TIP3    H148094   1.438   2.559  11.670  1.0544 -0.5788 -0.6956
 8893TIP3    H248095   1.456   2.578  11.820 -0.7358  1.3078 -0.6770
 8894TIP3   OH248096   4.855   1.702  14.056  0.1921  0.8050 -0.0627
 8894TIP3    H148097   4.814   1.751  14.127  0.2723  0.4988  0.1990
 8894TIP3    H248098   4.813   1.734  13.977  0.3880  1.4481  0.0816
 8895TIP3   OH248099   2.462   3.638  12.533 -0.7263 -0.3135  0.8499
 8895TIP3    H148100   2.494   3.645  12.623  1.8527  1.7961 -0.0987
 8895TIP3    H248101   2.381   3.689  12.532 -0.4769  0.1152  1.8236
 8896TIP3   OH248102   4.778   1.364  12.403 -0.2027 -0.0756 -0.2261
 8896TIP3    H148103   4.765   1.455  12.430 -1.0445 -0.5908  1.2000
 8896TIP3    H248104   4.732   1.357  12.320 -0.7610  0.6192  0.0144
 8897TIP3   OH248105   5.977   0.005   4.522 -0.0764  0.2000  0.2366
 8897TIP3    H148106   6.002  -0.085   4.545 -0.2431 -0.3706 -1.6562
 8897TIP3    H248107   6.003   0.015   4.431 -1.3667  1.5968 -0.0269
 8898TIP3   OH248108   5.733   3.382   3.175 -0.0664  0.7574  0.0670
 8898TIP3    H148109   5.727   3.423   3.089  0.1982  0.3089 -0.1670
 8898TIP3    H248110   5.657   3.325   3.180 -0.7576  1.7074  0.6288
 8899TIP3   OH248111   5.917   1.218  13.527  0.4269  0.1130  0.0516
 8899TIP3    H148112   5.865   1.139  13.542 -2.8377  2.4139  2.2833
 8899TIP3    H248113   5.995   1.207  13.581  1.1346 -2.3372 -1.3063
 8900TIP3   OH248114   3.016   0.396   3.178 -0.0910 -0.2798  0.2205
 8900TIP3    H148115   3.106   0.406   3.208 -0.2842 -0.5462  0.9112
 8900TIP3    H248116   2.964   0.393   3.259 -0.6730 -0.5371 -0.1566
 8901TIP3   OH248117   5.514   2.754  12.415 -0.2696 -0.1859  0.4895
 8901TIP3    H148118   5.591   2.809  12.399  0.0561 -1.0103 -0.8971
 8901TIP3    H248119   5.460   2.766  12.336  0.9946 -3.7688 -1.1416
 8902TIP3   OH248120   0.137   6.317  15.750  0.5362 -0.1373  0.3826
 8902TIP3    H148121   0.127   6.276  15.664 -0.6926  0.2744  0.3152
 8902TIP3    H248122   0.168   6.246  15.806  2.7581 -0.0753 -0.6772
 8903TIP3   OH248123   5.030   4.668   5.632  0.0295  0.3197  0.3782
 8903TIP3    H148124   4.988   4.675   5.546 -2.3041 -0.2359  1.4028
 8903TIP3    H248125   5.031   4.574   5.650  0.0226  0.4703  1.1777
 8904TIP3   OH248126   4.049   1.394   2.028  0.2648  0.0530  0.0811
 8904TIP3    H148127   4.101   1.320   2.060 -0.8657 -0.1719  1.5002
 8904TIP3    H248128   3.963   1.382   2.068 -0.7980  0.6055 -1.9372
 8905TIP3   OH248129   4.316   1.209  13.673 -0.4318 -0.1348 -0.2379
 8905TIP3    H148130   4.285   1.297  13.694 -0.3932  0.0811 -1.0458
 8905TIP3    H248131   4.321   1.164  13.758  1.0038  1.0921  0.3600
 8906TIP3   OH248132   3.092   5.677  15.899  0.7521 -0.1044  0.6678
 8906TIP3    H148133   3.161   5.733  15.936  1.3474 -0.0147 -0.5530
 8906TIP3    H248134   3.011   5.715  15.934  1.2144  0.8220  0.7761
 8907TIP3   OH248135   0.698   5.254  17.159 -0.5550  0.2112 -0.5120
 8907TIP3    H148136   0.689   5.263  17.064  0.3718  2.2613 -0.4712
 8907TIP3    H248137   0.628   5.309  17.195 -0.7686 -0.3806 -0.0173
 8908TIP3   OH248138   4.958   3.509   2.505 -0.1020 -0.3268 -0.6199
 8908TIP3    H148139   4.864   3.516   2.524 -0.1060  0.5826 -0.9341
 8908TIP3    H248140   4.984   3.598   2.480  0.9334 -0.4905 -0.1500
 8909TIP3   OH248141   4.060   1.164  12.984 -0.0676  0.4906  0.8891
 8909TIP3    H148142   4.052   1.084  12.931  0.0881 -0.0692  1.6947
 8909TIP3    H248143   3.970   1.195  12.994  0.0078  1.4738 -0.9753
 8910TIP3   OH248144   5.010   6.359   6.608  0.0148  0.2523  0.1665
 8910TIP3    H148145   4.979   6.288   6.664  0.4093  0.4310  0.6194
 8910TIP3    H248146   5.000   6.326   6.519  0.1291 -0.3423  0.3733
 8911TIP3   OH248147   0.647   6.365  12.633  0.4012 -0.0816  0.8926
 8911TIP3    H148148   0.562   6.370  12.678 -1.1725  0.5861 -1.9159
 8911TIP3    H248149   0.666   6.271  12.629  0.0884 -0.2095  2.0022
 8912TIP3   OH248150   5.254   5.322   5.183 -0.5747  0.6348  0.1388
 8912TIP3    H148151   5.173   5.369   5.166 -0.5657  1.2809  1.7045
 8912TIP3    H248152   5.314   5.389   5.217 -0.2705 -0.3017  1.5672
 8913TIP3   OH248153   4.479   4.972   1.738  0.4211 -0.4492 -0.0434
 8913TIP3    H148154   4.516   4.963   1.826  1.2617  0.6742 -0.2613
 8913TIP3    H248155   4.426   5.051   1.742 -1.9913 -1.9719  0.2345
 8914TIP3   OH248156   6.229   3.545   3.990  0.5422  0.0110 -0.3294
 8914TIP3    H148157   6.235   3.465   3.938  1.5065 -0.9335  1.1580
 8914TIP3    H248158   6.135   3.560   4.001  0.2291  1.2552 -3.7552
 8915TIP3   OH248159   3.598   2.953   6.329 -0.0518 -0.1996  0.3346
 8915TIP3    H148160   3.519   2.912   6.294 -0.1634  0.6358 -0.4265
 8915TIP3    H248161   3.565   3.014   6.395 -0.2389  1.5140 -1.2659
 8916TIP3   OH248162   1.901   2.476  14.856 -0.3831 -0.4717 -0.6367
 8916TIP3    H148163   1.894   2.382  14.875  1.5156 -1.7204 -4.8773
 8916TIP3    H248164   1.818   2.497  14.812 -1.4167  0.3386  1.5554
 8917TIP3   OH248165   5.275   0.544  15.456 -0.6084  0.1915  0.1442
 8917TIP3    H148166   5.270   0.602  15.531 -0.6260 -1.4862  1.5028
 8917TIP3    H248167   5.227   0.465  15.483  0.9132 -1.1714 -0.9085
 8918TIP3   OH248168   1.652   6.090  13.988 -0.3244 -0.1322 -0.0599
 8918TIP3    H148169   1.690   6.095  14.075  0.6047  1.5068 -0.5038
 8918TIP3    H248170   1.710   6.031  13.940 -0.7417 -0.9034  0.3679
 8919TIP3   OH248171   0.981   0.936   0.274  0.4990  0.2467 -0.3132
 8919TIP3    H148172   0.901   0.893   0.302  1.3629 -0.2382  1.5818
 8919TIP3    H248173   1.025   0.871   0.219 -0.3457  0.4811 -1.2790
 8920TIP3   OH248174   0.408   3.657   5.865  0.0291 -0.6343  0.0566
 8920TIP3    H148175   0.408   3.751   5.846 -1.3615 -0.1464  2.0967
 8920TIP3    H248176   0.469   3.647   5.938 -1.1765 -0.9712  1.0612
 8921TIP3   OH248177   1.957   0.023   5.389  0.2411 -0.0501 -0.5743
 8921TIP3    H148178   1.927   0.045   5.477 -0.1534 -1.6613 -0.2736
 8921TIP3    H248179   2.049   0.052   5.387  1.2117 -2.5712  1.4429
 8922TIP3   OH248180   3.236   2.375  10.678  0.2016 -0.5659  0.3404
 8922TIP3    H148181   3.326   2.359  10.649 -0.2617 -1.0345 -0.8705
 8922TIP3    H248182   3.206   2.448  10.624 -0.1204 -0.3529  0.8043
 8923TIP3   OH248183   4.249   6.772   6.119  0.2697  0.6470  0.2866
 8923TIP3    H148184   4.273   6.864   6.121  1.2559  0.3969  0.7672
 8923TIP3    H248185   4.327   6.728   6.086 -0.2840  0.0044 -0.2011
 8924TIP3   OH248186   5.721   2.093   0.016 -0.0830  1.1350  0.6238
 8924TIP3    H148187   5.658   2.153  -0.023 -0.2188  1.1754  0.8999
 8924TIP3    H248188   5.741   2.133   0.101  0.3961  1.1826  0.4943
 8925TIP3   OH248189   2.464   2.832  16.341 -0.2809  0.2498 -0.0868
 8925TIP3    H148190   2.501   2.878  16.416  0.8230  0.4618 -0.7473
 8925TIP3    H248191   2.534   2.831  16.276 -1.5218  0.9620 -1.5155
 8926TIP3   OH248192   0.294   4.379   2.222 -0.8225  0.0071  0.1276
 8926TIP3    H148193   0.300   4.361   2.316  2.5834  1.3948  0.3359
 8926TIP3    H248194   0.301   4.474   2.215  2.1174 -0.1885 -1.5164
 8927TIP3   OH248195   5.688   1.214   3.189 -0.1968  0.0210  0.4044
 8927TIP3    H148196   5.670   1.290   3.134  2.5794  0.0074 -0.6919
 8927TIP3    H248197   5.771   1.235   3.231  0.6815 -2.4162  0.0252
 8928TIP3   OH248198   2.133   0.838  16.331  0.0343  0.3897  0.2042
 8928TIP3    H148199   2.161   0.916  16.380  0.3419 -0.2269  1.0379
 8928TIP3    H248200   2.191   0.835  16.255  0.5554  0.5451  0.5878
 8929TIP3   OH248201   5.989   3.756  14.498  0.6483 -0.3439 -0.5692
 8929TIP3    H148202   6.062   3.787  14.551  1.6270 -1.1979 -1.3675
 8929TIP3    H248203   5.921   3.733  14.561  0.7959  1.0914  0.1536
 8930TIP3   OH248204   4.083   3.911   0.005 -0.4218  0.3390  0.9592
 8930TIP3    H148205   4.036   3.991   0.031 -0.1815  0.3132  1.4836
 8930TIP3    H248206   4.013   3.847  -0.008 -0.5169 -0.0227  2.8519
 8931TIP3   OH248207   0.421   2.896   2.270 -0.1430 -0.0278 -0.5116
 8931TIP3    H148208   0.427   2.990   2.258  0.6133  0.1185  0.8539
 8931TIP3    H248209   0.414   2.861   2.181  0.1589  1.2604 -1.0655
 8932TIP3   OH248210   3.496   6.295   2.135  0.7800  0.4328 -0.1696
 8932TIP3    H148211   3.577   6.287   2.185  0.0850 -2.6194  0.7139
 8932TIP3    H248212   3.427   6.286   2.201 -0.1736 -3.5865 -1.3959
 8933TIP3   OH248213   3.151   6.426   5.821 -0.0275 -0.8063  0.1925
 8933TIP3    H148214   3.243   6.405   5.840  0.4311  1.8507  1.3026
 8933TIP3    H248215   3.107   6.418   5.905 -0.0939  1.1237  0.3811
 8934TIP3   OH248216   0.502   3.964   0.536 -0.2092  0.0764 -0.0297
 8934TIP3    H148217   0.431   3.961   0.600 -0.1665 -1.3840 -0.0147
 8934TIP3    H248218   0.568   3.904   0.570  0.3326  0.1879 -0.8518
 8935TIP3   OH248219   0.974   4.367   0.698  0.1205  0.7412  0.3010
 8935TIP3    H148220   1.026   4.332   0.771 -0.1837 -0.9206 -0.2212
 8935TIP3    H248221   0.885   4.337   0.716 -0.2539  1.6689  0.0414
 8936TIP3   OH248222   0.481   5.993  13.969 -0.0919 -0.2828 -0.0554
 8936TIP3    H148223   0.491   5.964  13.878 -1.7636  1.2851 -0.7984
 8936TIP3    H248224   0.400   5.953  13.998  0.5006 -0.8743  0.8183
 8937TIP3   OH248225   6.543   4.796   0.885  0.2334 -0.2992 -0.2734
 8937TIP3    H148226   6.528   4.702   0.879  0.9644 -0.6469  2.1085
 8937TIP3    H248227   6.473   4.828   0.942  0.2687  0.5118 -0.6717
 8938TIP3   OH248228   5.123   2.368   4.986  0.3368 -0.1152 -0.1062
 8938TIP3    H148229   5.216   2.389   5.002  0.0307  0.8168  0.5589
 8938TIP3    H248230   5.075   2.430   5.041 -0.6836 -0.9535 -0.0312
 8939TIP3   OH248231   3.848   1.078   4.488  0.5016 -0.0457  0.2791
 8939TIP3    H148232   3.832   1.143   4.419  0.0845  1.0384  1.3578
 8939TIP3    H248233   3.766   1.075   4.537  0.1272 -2.2106 -0.3581
 8940TIP3   OH248234   3.022   3.439   4.138 -0.3256 -0.3563  0.3038
 8940TIP3    H148235   3.005   3.380   4.064  2.6572  1.7756 -2.3693
 8940TIP3    H248236   3.000   3.526   4.106 -0.1831  0.5333  2.4341
 8941TIP3   OH248237   4.125   2.862  14.868 -0.0876  0.0209 -0.0433
 8941TIP3    H148238   4.119   2.792  14.803 -0.5159  0.3094 -0.3180
 8941TIP3    H248239   4.153   2.817  14.948 -0.6187 -0.5139 -0.1460
 8942TIP3   OH248240   0.157   3.637  11.580 -0.4607  0.1910  0.1585
 8942TIP3    H148241   0.069   3.663  11.556  0.4629  3.4636 -0.1258
 8942TIP3    H248242   0.204   3.630  11.497  0.0747  0.6690  0.4156
 8943TIP3   OH248243   6.384   3.163   1.659 -0.2376  0.4022  0.4066
 8943TIP3    H148244   6.477   3.140   1.647  0.2037  1.8285  0.8553
 8943TIP3    H248245   6.345   3.084   1.698  0.7431 -0.2794  0.0603
 8944TIP3   OH248246   3.593   4.419   5.628 -0.0176  0.4266 -0.1141
 8944TIP3    H148247   3.566   4.363   5.555 -0.7653 -0.8928  1.1136
 8944TIP3    H248248   3.573   4.508   5.600 -2.0026 -0.1973 -0.8215
 8945TIP3   OH248249   5.488   2.311  10.882  0.9438  0.2818  0.1368
 8945TIP3    H148250   5.423   2.339  10.818  1.4560  2.2431  0.4252
 8945TIP3    H248251   5.444   2.319  10.967  0.6595 -1.1767  0.1665
 8946TIP3   OH248252   1.920   2.088   0.237 -0.8081 -0.4291 -0.1000
 8946TIP3    H148253   1.953   2.171   0.273  0.3716 -0.3410 -1.3042
 8946TIP3    H248254   1.828   2.086   0.263 -0.5041  0.5689  1.1756
 8947TIP3   OH248255   2.752   2.458  10.854  0.0362  0.5507 -0.7093
 8947TIP3    H148256   2.816   2.530  10.853  0.0658  0.5215 -1.0436
 8947TIP3    H248257   2.803   2.381  10.878 -0.2016  0.8296  0.7570
 8948TIP3   OH248258   4.949   4.599   1.598 -0.1289 -0.0045 -0.2998
 8948TIP3    H148259   5.000   4.526   1.635 -1.2377 -0.2594  0.8125
 8948TIP3    H248260   4.975   4.675   1.650 -1.6190 -0.3442  1.0396
 8949TIP3   OH248261   1.262   3.402   1.984  0.2649  0.1877  0.1278
 8949TIP3    H148262   1.354   3.428   1.993  0.1610  0.6794 -0.1435
 8949TIP3    H248263   1.238   3.365   2.069  0.6435  0.2958  0.2829
 8950TIP3   OH248264   1.380   5.033  12.568  0.0647 -0.0091 -0.0309
 8950TIP3    H148265   1.318   4.962  12.584 -2.8022  2.2946 -0.0006
 8950TIP3    H248266   1.431   5.039  12.650 -2.8512  0.8310  1.8773
 8951TIP3   OH248267   3.910   6.431   4.397  0.0094  0.0711  0.4064
 8951TIP3    H148268   3.851   6.437   4.322 -0.0902  0.2767  0.5010
 8951TIP3    H248269   3.891   6.345   4.436 -1.9091  1.0605  1.8213
 8952TIP3   OH248270   5.072   2.317  11.718  0.4137 -0.2810  0.3843
 8952TIP3    H148271   5.019   2.387  11.681 -0.6547 -0.9278  0.6319
 8952TIP3    H248272   5.088   2.257  11.645  1.2986  0.1780  0.1809
 8953TIP3   OH248273   3.485   1.212  15.159 -0.2902 -0.1911  0.2925
 8953TIP3    H148274   3.395   1.188  15.138  0.1157 -0.9768 -0.6122
 8953TIP3    H248275   3.487   1.217  15.254 -0.6887 -2.7044  0.4888
 8954TIP3   OH248276   4.570   5.607  11.084  0.1194  0.1514  0.1515
 8954TIP3    H148277   4.616   5.555  11.017  0.0600 -0.2903  0.4451
 8954TIP3    H248278   4.507   5.659  11.035  1.4558  1.3608 -0.3447
 8955TIP3   OH248279   0.626   2.092  13.705  0.1305  0.2600 -0.3814
 8955TIP3    H148280   0.567   2.162  13.678 -0.3116  0.5553  1.2510
 8955TIP3    H248281   0.582   2.012  13.678  0.3534  0.5518 -1.7128
 8956TIP3   OH248282   0.515   0.395   3.147  0.6357  0.0273 -0.3230
 8956TIP3    H148283   0.539   0.375   3.057  1.3612  0.6581 -0.2771
 8956TIP3    H248284   0.432   0.442   3.140  0.4112 -0.4032 -0.6154
 8957TIP3   OH248285   0.010   4.089   5.221 -0.0060 -0.3564 -0.2297
 8957TIP3    H148286   0.083   4.125   5.270 -2.2127  1.0225  2.3607
 8957TIP3    H248287  -0.040   4.166   5.194 -0.8617 -1.2690 -1.3360
 8958TIP3   OH248288   3.605   3.383  12.367 -0.2931 -0.0130  0.5599
 8958TIP3    H148289   3.569   3.296  12.385 -2.1948  0.6448  0.1890
 8958TIP3    H248290   3.648   3.409  12.448  0.1378 -1.2122  0.7318
 8959TIP3   OH248291   4.353   0.099  15.428 -0.0942 -0.9380  0.0607
 8959TIP3    H148292   4.266   0.117  15.463 -0.2658  2.0197 -1.5765
 8959TIP3    H248293   4.393   0.041  15.492 -1.9715  0.5152  2.7467
 8960TIP3   OH248294   0.414   2.767  16.136  0.1159  0.1036 -0.4296
 8960TIP3    H148295   0.483   2.770  16.070 -1.1428  1.7126 -1.7501
 8960TIP3    H248296   0.460   2.777  16.219  1.5899 -0.2922 -1.1620
 8961TIP3   OH248297   1.066   0.348   3.101 -0.6839  0.3221  0.3686
 8961TIP3    H148298   1.051   0.414   3.033  0.7472 -1.2012 -1.5668
 8961TIP3    H248299   1.046   0.264   3.058  3.0301 -0.9581  0.7201
 8962TIP3   OH248300   6.220   0.907  16.861 -0.4634  0.1787 -0.0261
 8962TIP3    H148301   6.174   0.899  16.944 -1.8591 -3.0989 -0.9798
 8962TIP3    H248302   6.291   0.843  16.866  0.1570  0.7611 -0.9506
 8963TIP3   OH248303   6.107   5.439  11.787  0.2454  0.1495  0.5353
 8963TIP3    H148304   6.201   5.421  11.789  0.0908 -0.6207  1.3628
 8963TIP3    H248305   6.085   5.464  11.877 -0.4336 -0.1695  0.4662
 8964TIP3   OH248306   1.595   4.506  15.353 -0.0391  0.5284 -0.7569
 8964TIP3    H148307   1.639   4.521  15.269 -0.2217  1.7844 -0.6527
 8964TIP3    H248308   1.664   4.512  15.418  0.0593 -0.1963 -0.7803
 8965TIP3   OH248309   0.143   6.073  13.838 -0.0315 -0.5846 -0.0488
 8965TIP3    H148310   0.171   6.125  13.762  0.7765  0.6115  1.0339
 8965TIP3    H248311   0.048   6.081  13.837 -0.0842 -1.0791 -1.2712
 8966TIP3   OH248312   0.389   1.772   4.886 -0.0650  1.0334 -0.3455
 8966TIP3    H148313   0.309   1.746   4.932  0.2442  0.6561 -0.0122
 8966TIP3    H248314   0.368   1.763   4.793  0.0942 -0.5939 -0.2417
 8967TIP3   OH248315   3.908   2.228   0.294  0.1577  0.1670 -0.6657
 8967TIP3    H148316   3.979   2.290   0.277 -0.7396  0.9866 -1.5684
 8967TIP3    H248317   3.836   2.258   0.239 -0.7672 -0.8816 -0.0806
 8968TIP3   OH248318   0.644   5.221   5.519  0.8356 -0.6451  0.6246
 8968TIP3    H148319   0.710   5.205   5.452  1.9977  0.4671  1.4565
 8968TIP3    H248320   0.583   5.148   5.510  2.0348 -1.5746 -0.3335
 8969TIP3   OH248321   3.459   0.072   3.082 -0.1316  0.1659 -0.4684
 8969TIP3    H148322   3.364   0.089   3.083 -0.2484 -0.2982 -1.6077
 8969TIP3    H248323   3.499   0.158   3.090 -0.6220  0.2819  1.1709
 8970TIP3   OH248324   4.247   6.131   1.295 -0.4802 -0.1291 -0.4809
 8970TIP3    H148325   4.253   6.049   1.344  0.2128  0.8820  1.1864
 8970TIP3    H248326   4.156   6.134   1.265 -1.6643  0.3412  2.8273
 8971TIP3   OH248327   1.344   6.227   3.343 -0.1344 -0.0287 -0.2013
 8971TIP3    H148328   1.385   6.304   3.382  1.9262 -0.9166 -0.4796
 8971TIP3    H248329   1.285   6.194   3.412 -0.3539  1.2524  0.2507
 8972TIP3   OH248330   3.524   0.361   0.784 -0.1475  0.0926 -0.3481
 8972TIP3    H148331   3.488   0.404   0.707  0.5584 -1.3060 -1.5153
 8972TIP3    H248332   3.597   0.309   0.750  1.5932  1.1189  1.5949
 8973TIP3   OH248333   0.367   6.328   0.605 -0.1335  0.8468 -0.5866
 8973TIP3    H148334   0.319   6.395   0.558  0.0964  2.4227  1.3200
 8973TIP3    H248335   0.365   6.355   0.696 -1.6535 -2.7120  0.6198
 8974TIP3   OH248336   1.697   0.445  12.660  0.1876  0.1003 -0.1283
 8974TIP3    H148337   1.773   0.396  12.692 -0.0733  0.4746  1.1213
 8974TIP3    H248338   1.641   0.454  12.737 -2.1513 -1.9704 -1.4291
 8975TIP3   OH248339   0.670   5.685  16.623  0.0250 -0.3583 -0.1275
 8975TIP3    H148340   0.616   5.608  16.636 -1.4651 -0.2573 -4.2639
 8975TIP3    H248341   0.617   5.758  16.654 -0.2773 -0.6718  0.0946
 8976TIP3   OH248342   6.037   4.189  13.519 -0.0834 -0.1613 -0.0337
 8976TIP3    H148343   6.040   4.134  13.441 -0.0524  0.4771 -0.4829
 8976TIP3    H248344   5.947   4.182  13.551  0.0987 -1.0403  0.3300
 8977TIP3   OH248345   0.229   4.701  11.192  0.4233 -0.0905  0.4061
 8977TIP3    H148346   0.282   4.624  11.210  1.4173  0.7585  1.2385
 8977TIP3    H248347   0.139   4.670  11.195  0.8306 -1.3904 -0.1913
 8978TIP3   OH248348   5.463   2.200  11.982 -0.2298 -0.4506  0.0423
 8978TIP3    H148349   5.537   2.201  11.921  0.5293 -0.9250  0.9169
 8978TIP3    H248350   5.499   2.159  12.062 -1.4663 -0.7797  0.4491
 8979TIP3   OH248351   6.472   6.692   2.940  0.1309 -0.1848 -0.2354
 8979TIP3    H148352   6.522   6.643   3.005 -0.4864 -2.6510 -1.4940
 8979TIP3    H248353   6.516   6.776   2.935  1.3989 -0.6337  1.9093
 8980TIP3   OH248354   2.313   1.441   2.429 -0.2456  0.7405 -0.2720
 8980TIP3    H148355   2.336   1.510   2.492 -0.8785 -0.6876  1.5958
 8980TIP3    H248356   2.354   1.362   2.463 -4.2255 -1.0749  0.9758
 8981TIP3   OH248357   3.781   1.425  12.701 -0.6164 -0.5752  0.0169
 8981TIP3    H148358   3.813   1.428  12.611 -0.7177  1.1809  0.0106
 8981TIP3    H248359   3.831   1.354  12.741  2.0397  0.8594 -0.4795
 8982TIP3   OH248360   0.607   5.348   4.265 -0.1624 -0.4672  0.1016
 8982TIP3    H148361   0.696   5.327   4.295 -0.6033 -2.1413  0.3423
 8982TIP3    H248362   0.612   5.343   4.169  0.2029  0.3737  0.0697
 8983TIP3   OH248363   4.662   3.162   3.488 -0.4627 -0.0826 -0.1001
 8983TIP3    H148364   4.678   3.257   3.492  1.9214 -0.4179 -0.0570
 8983TIP3    H248365   4.626   3.147   3.401 -0.8005  0.8553 -0.1357
 8984TIP3   OH248366   2.400   3.152  13.228  0.1025 -0.1285  0.2851
 8984TIP3    H148367   2.435   3.217  13.289  1.2766 -1.4219  1.0415
 8984TIP3    H248368   2.476   3.126  13.175 -0.7121  0.3206 -1.1681
 8985TIP3   OH248369   4.729   3.283   2.961  0.7152 -0.5171 -0.1274
 8985TIP3    H148370   4.790   3.352   2.985  0.3134 -0.1468 -0.1585
 8985TIP3    H248371   4.644   3.314   2.991  0.2531 -0.2071 -1.6362
 8986TIP3   OH248372   1.615   4.343  12.169  0.2879 -0.0895  0.1171
 8986TIP3    H148373   1.633   4.312  12.080  0.3662 -1.0562  0.4650
 8986TIP3    H248374   1.630   4.438  12.164  1.0561 -0.2371 -0.7092
 8987TIP3   OH248375   4.870   4.316   3.757 -0.6509  0.0691  0.4641
 8987TIP3    H148376   4.849   4.225   3.739 -2.3601  0.6040 -0.3870
 8987TIP3    H248377   4.917   4.313   3.841  0.7978 -1.7261 -0.3394
 8988TIP3   OH248378   6.187   5.306   5.175 -0.0478  0.3998  0.0118
 8988TIP3    H148379   6.152   5.220   5.198  0.5548 -0.3615 -1.7478
 8988TIP3    H248380   6.129   5.338   5.106  0.8787  0.4647 -0.7745
 8989TIP3   OH248381   6.208   6.720  14.711  0.0987 -0.3902  0.0054
 8989TIP3    H148382   6.126   6.764  14.734 -0.1450  0.1963 -1.8407
 8989TIP3    H248383   6.267   6.741  14.783 -0.9694  0.2969  0.7174
 8990TIP3   OH248384   5.054   0.628   4.656 -0.1634  0.1404  0.5608
 8990TIP3    H148385   5.088   0.672   4.578 -0.8453  1.8308  1.1866
 8990TIP3    H248386   5.131   0.601   4.704  0.2679  0.2728 -0.0466
 8991TIP3   OH248387   2.370   6.330   1.538 -0.7520  0.3105 -0.4559
 8991TIP3    H148388   2.320   6.401   1.496 -0.6963  0.6516  0.0452
 8991TIP3    H248389   2.454   6.370   1.560 -2.0093  1.3096  3.3401
 8992TIP3   OH248390   0.449   5.678  16.380  0.0719 -0.1042 -0.4001
 8992TIP3    H148391   0.535   5.681  16.338  0.7244 -0.9363  0.8023
 8992TIP3    H248392   0.402   5.754  16.345  1.1998  0.2155 -1.2760
 8993TIP3   OH248393   4.220   5.178   1.431  0.2541  0.1638  0.5121
 8993TIP3    H148394   4.239   5.101   1.484 -0.0499  0.0843  0.5051
 8993TIP3    H248395   4.218   5.146   1.341 -1.0494 -0.0510  0.6015
 8994TIP3   OH248396   6.139   3.012  11.249 -0.1137  0.8899 -0.5709
 8994TIP3    H148397   6.230   2.997  11.277 -0.2221 -0.7367 -1.0188
 8994TIP3    H248398   6.093   2.932  11.273 -1.1955  1.2537 -1.3620
 8995TIP3   OH248399   5.033   4.481  13.030 -0.1059 -0.0373  0.1637
 8995TIP3    H148400   5.108   4.422  13.029 -1.3573 -1.9898  3.3568
 8995TIP3    H248401   4.957   4.424  13.040 -1.6944  1.9864  0.5645
 8996TIP3   OH248402   5.377   4.146  17.120  0.8593 -0.5614 -0.3030
 8996TIP3    H148403   5.453   4.204  17.130  0.9991 -0.0475 -3.3815
 8996TIP3    H248404   5.357   4.118  17.209  2.5674  1.9480  1.0155
 8997TIP3   OH248405   5.752   1.801  14.436  0.1002 -0.1354  0.0266
 8997TIP3    H148406   5.833   1.764  14.472  0.1610  1.7338  2.0200
 8997TIP3    H248407   5.691   1.801  14.509 -1.0187  0.4220 -0.8811
 8998TIP3   OH248408   2.616   0.718  15.018 -0.2125 -0.2278  0.0718
 8998TIP3    H148409   2.568   0.635  15.014  0.5174 -0.7413  1.2138
 8998TIP3    H248410   2.668   0.720  14.938 -0.1448 -0.9435  0.0880
 8999TIP3   OH248411   3.357   2.254  14.920 -0.0776 -0.1955 -0.6290
 8999TIP3    H148412   3.447   2.287  14.909 -0.1210 -0.1285 -0.7895
 8999TIP3    H248413   3.306   2.331  14.945  0.3259 -0.6408  1.7800
 9000TIP3   OH248414   4.683   2.727   3.445 -0.0928 -0.1767  0.7047
 9000TIP3    H148415   4.614   2.770   3.496  0.4121 -0.4645  1.6508
 9000TIP3    H248416   4.746   2.797   3.428  0.9634 -0.5892  2.6545
 9001TIP3   OH248417   3.159   4.784   4.213 -0.4733 -0.2777 -0.0774
 9001TIP3    H148418   3.119   4.723   4.275  1.3747  0.4706  2.0140
 9001TIP3    H248419   3.238   4.739   4.182 -0.2756  0.1685 -0.2360
 9002TIP3   OH248420   4.007   2.305  15.625 -0.0408  0.2255 -0.4611
 9002TIP3    H148421   3.969   2.235  15.571 -1.1425  1.5392 -1.4537
 9002TIP3    H248422   3.938   2.370  15.631  0.1658  0.2931  2.3166
 9003TIP3   OH248423   3.871   3.092  14.421 -0.0325  0.5596 -0.1574
 9003TIP3    H148424   3.872   3.154  14.348 -1.0483  0.1930 -0.5055
 9003TIP3    H248425   3.780   3.091  14.450  0.3454  0.6408  1.0732
 9004TIP3   OH248426   5.564   2.723  15.930 -0.4170 -0.1675 -0.0336
 9004TIP3    H148427   5.649   2.767  15.934  0.2046 -1.2335 -0.9108
 9004TIP3    H248428   5.525   2.739  16.016  0.7644  0.1677  0.4629
 9005TIP3   OH248429   1.290   6.582  13.679  0.1508 -0.5825 -0.2566
 9005TIP3    H148430   1.378   6.607  13.707  0.3966 -0.0512 -1.4268
 9005TIP3    H248431   1.234   6.606  13.753  0.6942  1.3510 -0.3980
 9006TIP3   OH248432   4.949   6.274  13.854  0.2275  0.3879  0.3541
 9006TIP3    H148433   4.856   6.263  13.833  0.2946 -0.2965  0.3696
 9006TIP3    H248434   4.992   6.204  13.804  0.6253  0.0944  1.1025
 9007TIP3   OH248435   1.152   0.645  12.984 -0.1720 -0.3056  0.5582
 9007TIP3    H148436   1.087   0.702  13.026  0.3792  1.3330 -0.6916
 9007TIP3    H248437   1.231   0.699  12.980  0.0709 -0.7314 -1.6249
 9008TIP3   OH248438   5.929   3.505   4.120 -0.3669  0.1192 -0.2743
 9008TIP3    H148439   5.912   3.515   4.214  0.7142  0.0582 -0.0585
 9008TIP3    H248440   5.843   3.486   4.082 -0.7183 -0.5222  0.7879
 9009TIP3   OH248441   5.638   4.507   1.308 -0.1198  0.3371 -0.4724
 9009TIP3    H148442   5.712   4.544   1.260  0.8163 -2.2751 -1.1772
 9009TIP3    H248443   5.596   4.448   1.247 -0.6841 -0.8577  1.0046
 9010TIP3   OH248444   2.591   6.327   2.719 -0.1744 -0.4759  0.0524
 9010TIP3    H148445   2.647   6.251   2.732 -0.0450 -0.5205 -0.7054
 9010TIP3    H248446   2.511   6.291   2.680  0.2472 -0.1295 -1.1720
 9011TIP3   OH248447   0.353   2.969  14.762 -0.0258 -0.6820 -0.4296
 9011TIP3    H148448   0.349   3.057  14.800  2.3546 -0.7403  0.0948
 9011TIP3    H248449   0.295   2.917  14.817  0.0848  0.1461  0.5119
 9012TIP3   OH248450   3.213   4.679   4.553 -0.0772  0.2449 -0.3925
 9012TIP3    H148451   3.286   4.623   4.582 -0.6641  0.1446  0.9843
 9012TIP3    H248452   3.179   4.635   4.475 -0.0294 -0.9209  0.2088
 9013TIP3   OH248453   3.831   2.833  13.856  0.0226  0.5571 -0.1498
 9013TIP3    H148454   3.796   2.907  13.805  0.2153  0.5906 -0.2323
 9013TIP3    H248455   3.874   2.875  13.931  0.5307  0.5516 -0.4366
 9014TIP3   OH248456   4.607   0.278   4.830  0.0438  0.0310 -0.3869
 9014TIP3    H148457   4.665   0.333   4.883  0.6358 -1.8296  1.0196
 9014TIP3    H248458   4.521   0.289   4.869 -0.0147  0.5807 -0.6555
 9015TIP3   OH248459   4.096   0.537   3.878 -0.3651  0.2251 -0.5888
 9015TIP3    H148460   4.145   0.493   3.947 -0.6368 -0.5984 -0.9124
 9015TIP3    H248461   4.145   0.520   3.798 -0.8162 -0.0351 -0.8133
 9016TIP3   OH248462   4.226   2.226  11.776 -0.1576  0.3699  0.1551
 9016TIP3    H148463   4.284   2.205  11.849  0.7353 -4.5438 -1.5910
 9016TIP3    H248464   4.272   2.295  11.727  1.0881  0.9887  2.1113
 9017TIP3   OH248465   3.846   4.375   4.825 -0.3318  0.4233  0.2762
 9017TIP3    H148466   3.938   4.396   4.809 -0.0323  1.3656  2.7640
 9017TIP3    H248467   3.840   4.281   4.810  1.3483  0.1284  1.1995
 9018TIP3   OH248468   4.677   1.226  13.907  0.0921 -0.3824  0.0430
 9018TIP3    H148469   4.632   1.308  13.890  0.9266  0.0412 -0.2178
 9018TIP3    H248470   4.694   1.190  13.820 -0.8272 -1.1482  0.1749
 9019TIP3   OH248471   4.621   0.334  11.457  0.2349  0.2264  0.2851
 9019TIP3    H148472   4.643   0.421  11.424  0.0482 -0.1492 -0.8863
 9019TIP3    H248473   4.636   0.276  11.382 -1.7035 -0.4659  0.3798
 9020TIP3   OH248474   2.551   0.976   5.340  0.1881 -0.1215 -0.1474
 9020TIP3    H148475   2.550   0.996   5.434 -0.6315  1.7131 -0.4946
 9020TIP3    H248476   2.481   1.030   5.304  1.4025  0.2884 -2.0182
 9021TIP3   OH248477   2.909   4.502  13.602 -0.0313  0.0563 -0.1021
 9021TIP3    H148478   2.997   4.464  13.592 -0.7996 -2.0906  0.6617
 9021TIP3    H248479   2.854   4.450  13.542 -1.4100 -1.1695  2.1019
 9022TIP3   OH248480   0.199   5.442  14.778  0.1586  0.0219  0.5798
 9022TIP3    H148481   0.202   5.538  14.777 -0.0718  0.0281  0.5257
 9022TIP3    H248482   0.283   5.415  14.740  0.9460  0.1918  2.1240
 9023TIP3   OH248483   1.756   6.709  12.772 -0.3959  0.0250 -0.5917
 9023TIP3    H148484   1.715   6.795  12.777  1.4136  0.9062  0.0749
 9023TIP3    H248485   1.756   6.678  12.862 -2.2569 -1.3352 -1.0023
 9024TIP3   OH248486   4.222   3.002   6.620  0.6454 -0.2302  0.2354
 9024TIP3    H148487   4.193   3.044   6.701  1.7173  0.7268  0.1575
 9024TIP3    H248488   4.260   3.074   6.569  0.9293 -1.0055 -0.6739
 9025TIP3   OH248489   4.476   4.335   3.090  0.4754 -0.1604 -0.3935
 9025TIP3    H148490   4.509   4.284   3.016 -0.4360  2.0660 -2.4729
 9025TIP3    H248491   4.540   4.405   3.102 -0.4262  0.6918 -0.4632
 9026TIP3   OH248492   2.146   3.913  11.092  0.0666 -0.1070  0.4820
 9026TIP3    H148493   2.069   3.873  11.132 -0.3418  0.3240  0.1352
 9026TIP3    H248494   2.123   3.923  10.999 -0.0989  1.5185  0.6727
 9027TIP3   OH248495   2.356   3.661   4.319 -0.3251  0.1591  0.2924
 9027TIP3    H148496   2.335   3.580   4.366 -0.3983  0.4842  0.8264
 9027TIP3    H248497   2.352   3.729   4.386 -1.9343  0.8615 -0.4726
 9028TIP3   OH248498   1.952   1.098  10.292  0.2044  0.8200 -0.0168
 9028TIP3    H148499   1.857   1.088  10.295  0.3160 -1.4543 -1.6442
 9028TIP3    H248500   1.965   1.191  10.273 -1.7067  1.0650 -0.3210
 9029TIP3   OH248501   6.597   2.974   1.602  0.1405 -0.4925  0.0620
 9029TIP3    H148502   6.623   2.985   1.694  0.5264 -2.5204  0.2333
 9029TIP3    H248503   6.627   2.886   1.579 -1.0049 -0.4744 -1.6605
 9030TIP3   OH248504   2.529   3.528  14.015  0.6045  0.1821  0.1069
 9030TIP3    H148505   2.565   3.441  13.998  0.6770  0.2474 -0.0702
 9030TIP3    H248506   2.600   3.576  14.058  0.5381  0.1296  0.2776
 9031TIP3   OH248507   4.067   4.005   4.681  0.3815 -0.1116  0.0953
 9031TIP3    H148508   4.043   3.914   4.663  1.7291 -0.7171  1.1861
 9031TIP3    H248509   4.125   4.029   4.609 -0.8448  0.2815 -0.7942
 9032TIP3   OH248510   3.629   2.287  12.885 -0.3202 -0.7348 -0.5162
 9032TIP3    H148511   3.653   2.364  12.833  1.4781 -0.3621  0.7786
 9032TIP3    H248512   3.550   2.314  12.932  0.0721  0.1790 -0.3644
 9033TIP3   OH248513   5.831   4.845   2.286  0.6294  0.1554 -0.1673
 9033TIP3    H148514   5.875   4.917   2.241  0.9906 -1.0409 -1.8492
 9033TIP3    H248515   5.902   4.783   2.306  0.3740  0.3524  1.5129
 9034TIP3   OH248516   5.236   0.068  14.847  0.1031  0.1232  0.1076
 9034TIP3    H148517   5.236   0.126  14.771  0.1607 -1.3404 -1.0400
 9034TIP3    H248518   5.323   0.081  14.886  0.9155 -0.6698 -1.3398
 9035TIP3   OH248519   3.283   1.480   3.626 -0.3198 -0.9184  0.6901
 9035TIP3    H148520   3.189   1.491   3.614 -0.3609 -0.6308  1.2604
 9035TIP3    H248521   3.296   1.482   3.721  0.3369 -0.2719  0.5969
 9036TIP3   OH248522   3.820   1.096  11.795 -0.0904 -0.0169  0.8321
 9036TIP3    H148523   3.748   1.084  11.734 -0.6753 -0.2700  1.5568
 9036TIP3    H248524   3.873   1.166  11.758 -1.8198  1.6181  1.3066
 9037TIP3   OH248525   2.248   1.312   3.069 -0.2511  0.4962 -0.3994
 9037TIP3    H148526   2.258   1.405   3.087 -1.1362  0.7937 -1.3389
 9037TIP3    H248527   2.158   1.292   3.096 -0.1757  0.0023 -0.5090
 9038TIP3   OH248528   0.890   0.005   3.287  0.1390  0.8362 -0.2288
 9038TIP3    H148529   0.870  -0.071   3.232 -2.3238  0.9130  0.4208
 9038TIP3    H248530   0.804   0.040   3.311  1.1325  1.6667  2.4875
 9039TIP3   OH248531   6.367   1.125   3.506 -0.5090 -0.8519  0.0512
 9039TIP3    H148532   6.304   1.091   3.569  0.6339 -0.0745  1.6720
 9039TIP3    H248533   6.424   1.051   3.487 -0.9778 -1.1437 -0.2425
 9040TIP3   OH248534   0.940   0.719   3.231  0.2655 -0.1449  1.0845
 9040TIP3    H148535   0.905   0.654   3.170  1.9096  0.9035 -1.1365
 9040TIP3    H248536   0.894   0.800   3.208  2.0660  0.6334 -0.0313
 9041TIP3   OH248537   1.123   4.018  14.481  0.3638 -0.3522 -0.4084
 9041TIP3    H148538   1.079   3.942  14.443  0.4794 -0.6080 -0.0353
 9041TIP3    H248539   1.074   4.037  14.561  1.1293 -0.8535  0.1896
 9042TIP3   OH248540   4.381   6.199   2.243 -0.0813  0.1656  0.4831
 9042TIP3    H148541   4.389   6.225   2.151 -1.5744  0.8538  0.5171
 9042TIP3    H248542   4.327   6.120   2.240  0.4219 -0.1886  0.7291
 9043TIP3   OH248543   1.295   5.436  10.242  0.0024  0.5372  0.2074
 9043TIP3    H148544   1.227   5.417  10.308 -0.6265  0.7536 -0.3641
 9043TIP3    H248545   1.317   5.350  10.206 -1.4479  0.6279 -1.0196
 9044TIP3   OH248546   4.989   1.401   4.936  0.5714 -0.6631 -0.3164
 9044TIP3    H148547   5.005   1.470   4.871  0.3389  0.4168  0.7477
 9044TIP3    H248548   5.010   1.441   5.020 -1.3892 -1.2588  0.5241
 9045TIP3   OH248549   4.230   5.721  12.293 -0.4533 -0.1941 -0.2033
 9045TIP3    H148550   4.264   5.727  12.204 -1.6043 -0.1986 -0.6655
 9045TIP3    H248551   4.304   5.691  12.345  0.8230  1.8164 -0.7631
 9046TIP3   OH248552   6.209   1.445   2.459 -0.4888  0.1513 -1.0641
 9046TIP3    H148553   6.212   1.541   2.454  1.7646  0.0973 -1.6372
 9046TIP3    H248554   6.300   1.418   2.464 -0.8492 -1.7060  5.8830
 9047TIP3   OH248555   4.815   3.522   5.557  0.1745  0.2597 -0.5730
 9047TIP3    H148556   4.747   3.541   5.621  1.0729 -0.3667  0.5957
 9047TIP3    H248557   4.869   3.455   5.598  1.3446  0.5363 -1.5926
 9048TIP3   OH248558   3.287   5.133   0.107 -0.3428  0.5202 -0.1893
 9048TIP3    H148559   3.235   5.193   0.161 -1.4570  0.7955 -1.5041
 9048TIP3    H248560   3.262   5.154   0.017 -0.5206 -1.6872 -0.7257
 9049TIP3   OH248561   0.454   4.600   2.477  0.2015 -0.0476 -0.6367
 9049TIP3    H148562   0.443   4.604   2.382  0.1134  0.8471 -0.6038
 9049TIP3    H248563   0.365   4.613   2.511  0.4693  1.4330 -0.4270
 9050TIP3   OH248564   1.968   2.626   2.960 -0.3440 -0.2761 -0.6273
 9050TIP3    H148565   2.009   2.697   2.909 -1.8334 -0.6358 -2.4474
 9050TIP3    H248566   2.004   2.546   2.922  0.0874 -0.5562  0.3316
 9051TIP3   OH248567   3.990   0.776   3.003  0.0936 -0.3778 -0.0658
 9051TIP3    H148568   4.080   0.759   3.030  0.6940  0.1321 -1.6608
 9051TIP3    H248569   3.965   0.854   3.053  0.5280 -0.5285  0.3968
 9052TIP3   OH248570   3.124   3.097  11.116 -0.0561  0.0941 -0.0122
 9052TIP3    H148571   3.084   3.181  11.095 -2.3237 -0.8230  0.3443
 9052TIP3    H248572   3.130   3.051  11.032 -1.1137 -0.2899  0.1045
 9053TIP3   OH248573   6.006   3.137   3.411 -0.4068  0.5211 -0.5437
 9053TIP3    H148574   5.935   3.073   3.412 -0.6238  0.7253 -1.5122
 9053TIP3    H248575   6.072   3.101   3.469 -1.1256  0.1201  0.0482
 9054TIP3   OH248576   1.046   1.052  17.064  0.4689  0.7302 -0.3751
 9054TIP3    H148577   1.088   0.973  17.030  1.8490  0.8792  0.8983
 9054TIP3    H248578   1.088   1.068  17.148 -0.2786  2.4405 -0.2794
 9055TIP3   OH248579   0.470   2.758  10.410 -0.2520 -0.2016  0.2583
 9055TIP3    H148580   0.496   2.694  10.343  0.5671  1.4073 -1.0377
 9055TIP3    H248581   0.376   2.742  10.423 -0.1487 -1.3999 -0.3201
 9056TIP3   OH248582   0.547   3.744   4.394  0.0407  0.5046 -0.0324
 9056TIP3    H148583   0.517   3.668   4.343 -0.0720  0.1336  0.5854
 9056TIP3    H248584   0.597   3.706   4.466  1.9120  1.0950 -0.9635
 9057TIP3   OH248585   4.180   2.440  16.953 -0.0677  0.4160 -0.3302
 9057TIP3    H148586   4.259   2.487  16.981  0.2701 -0.0581 -0.4802
 9057TIP3    H248587   4.145   2.401  17.032  0.6246 -0.5302 -0.4698
 9058TIP3   OH248588   3.793   4.632  14.274 -0.1919 -0.4009  0.2202
 9058TIP3    H148589   3.705   4.636  14.310  0.0618 -0.7217  0.9023
 9058TIP3    H248590   3.831   4.553  14.313  0.2567 -0.4952 -0.3883
 9059TIP3   OH248591   0.888   2.633   3.735 -0.1755 -0.4250 -0.3174
 9059TIP3    H148592   0.821   2.620   3.668  1.3067 -0.4753 -1.8477
 9059TIP3    H248593   0.943   2.555   3.730 -0.1280 -0.5041  1.0995
 9060TIP3   OH248594   5.634   5.912   1.222 -0.0050 -0.4848 -0.3374
 9060TIP3    H148595   5.559   5.879   1.173 -0.6957 -2.7133  2.0006
 9060TIP3    H248596   5.607   5.998   1.255 -2.1264 -1.7622  1.4951
 9061TIP3   OH248597   1.699   5.598   2.883  0.0557  0.3266  0.1504
 9061TIP3    H148598   1.693   5.554   2.968 -0.5804  1.3106  0.6333
 9061TIP3    H248599   1.782   5.645   2.887  0.7775 -0.8344 -0.3985
 9062TIP3   OH248600   5.351   3.450   3.604  0.1143 -0.1392  0.4364
 9062TIP3    H148601   5.404   3.474   3.529  1.1032  2.7907  1.9033
 9062TIP3    H248602   5.393   3.372   3.640  0.4533 -0.7338 -1.1855
 9063TIP3   OH248603   6.128   1.647   1.608 -0.2439 -0.0384  0.5843
 9063TIP3    H148604   6.076   1.681   1.535 -0.0632  1.0873  0.9613
 9063TIP3    H248605   6.212   1.622   1.570 -0.6742 -0.8765  0.1574
 9064TIP3   OH248606   5.930   3.136  10.296  0.0411 -0.0704 -0.5743
 9064TIP3    H148607   5.960   3.193  10.225 -0.5053  2.2109  0.9179
 9064TIP3    H248608   6.003   3.076  10.311  0.1082 -0.7204 -3.1036
 9065TIP3   OH248609   0.907   3.322   5.576 -0.3075  0.0288  0.1447
 9065TIP3    H148610   0.997   3.314   5.545  0.1401  1.2993  1.0402
 9065TIP3    H248611   0.890   3.240   5.622  0.0722 -0.5882 -0.7811
 9066TIP3   OH248612   4.739   0.723  13.345  0.1008  0.5546  0.3954
 9066TIP3    H148613   4.663   0.772  13.312  0.5513  1.2168  0.3143
 9066TIP3    H248614   4.773   0.678  13.268  0.2966  0.9516  0.2427
 9067TIP3   OH248615   2.285   3.827  12.565  0.5592  0.6361 -0.0401
 9067TIP3    H148616   2.356   3.891  12.554  1.4772 -0.3682 -0.0593
 9067TIP3    H248617   2.219   3.854  12.502  0.9052  1.5992 -0.0105
 9068TIP3   OH248618   4.853   6.324  11.506  0.1583 -0.2764  0.2558
 9068TIP3    H148619   4.767   6.361  11.486  0.2082 -0.7649 -0.9082
 9068TIP3    H248620   4.862   6.336  11.601 -0.1097  2.0779  0.0585
 9069TIP3   OH248621   6.738   1.567  10.513 -0.0038  0.0332 -0.1393
 9069TIP3    H148622   6.671   1.517  10.560  3.1718 -2.3556  2.2874
 9069TIP3    H248623   6.753   1.517  10.432 -0.0034 -0.3494  0.0952
 9070TIP3   OH248624   5.716   5.827   4.298  0.0259 -0.5140 -0.4320
 9070TIP3    H148625   5.734   5.917   4.272  1.1337 -0.2244  1.1713
 9070TIP3    H248626   5.801   5.792   4.324 -0.4135 -1.9891 -0.8930
 9071TIP3   OH248627   1.660   2.958   0.958 -0.4528 -0.1664 -0.0197
 9071TIP3    H148628   1.711   3.015   1.016 -0.8799  1.8161 -1.4603
 9071TIP3    H248629   1.725   2.917   0.901 -0.1436 -1.1797  1.0160
 9072TIP3   OH248630   4.117   0.379   0.734  0.2568  0.3458  0.6088
 9072TIP3    H148631   4.150   0.297   0.697 -0.6574 -0.2812  1.1770
 9072TIP3    H248632   4.170   0.393   0.812 -0.0641 -0.0798  0.9048
 9073TIP3   OH248633   4.110   5.952  16.758 -0.1454  0.1163 -0.1961
 9073TIP3    H148634   4.132   6.042  16.784  1.9704 -0.2369 -0.6111
 9073TIP3    H248635   4.149   5.897  16.825 -1.5253 -0.5370  0.1177
 9074TIP3   OH248636   5.044   5.904   3.361  0.1129  0.1211 -0.2916
 9074TIP3    H148637   5.090   5.885   3.279  0.7021  0.9816 -0.1711
 9074TIP3    H248638   4.951   5.896   3.338  0.2836 -0.1334 -0.9230
 9075TIP3   OH248639   5.394   1.062  16.903 -0.1249 -0.2570 -0.1386
 9075TIP3    H148640   5.437   1.093  16.824 -1.4432 -0.4203 -0.9307
 9075TIP3    H248641   5.342   1.136  16.933 -0.1460 -0.4132  0.2159
 9076TIP3   OH248642   0.439   4.900  15.472 -0.2195  0.5407  0.1758
 9076TIP3    H148643   0.441   4.806  15.453  0.5453  0.3161  1.2515
 9076TIP3    H248644   0.459   4.905  15.566  1.8035  1.8878 -0.2809
 9077TIP3   OH248645   5.307   2.430  12.340  0.4173  0.6582 -0.2846
 9077TIP3    H148646   5.217   2.432  12.370  0.2168  0.1520 -0.8402
 9077TIP3    H248647   5.310   2.492  12.267  0.6955  1.2132  0.1828
 9078TIP3   OH248648   4.317   1.883  14.978 -0.4995 -0.2020 -0.4644
 9078TIP3    H148649   4.343   1.953  15.038 -0.4346  0.4185 -1.2077
 9078TIP3    H248650   4.264   1.926  14.912  1.0862 -0.4960 -2.0056
 9079TIP3   OH248651   2.946   5.429   2.500 -0.0730 -0.4133 -0.4587
 9079TIP3    H148652   2.858   5.464   2.489  0.0745  1.6364  3.1124
 9079TIP3    H248653   3.000   5.480   2.440 -0.9864  0.1323 -0.8295
 9080TIP3   OH248654   4.330   4.588  12.930 -0.1682 -0.3750 -0.3837
 9080TIP3    H148655   4.332   4.495  12.907 -0.7187 -0.0962 -1.6200
 9080TIP3    H248656   4.312   4.633  12.847 -0.5858  0.7911  0.3227
 9081TIP3   OH248657   3.274   2.985   3.764  0.3580  0.2994  0.0295
 9081TIP3    H148658   3.217   2.910   3.747  1.2357 -0.4018  0.0954
 9081TIP3    H248659   3.249   3.015   3.851  0.2448 -0.1406  0.1532
 9082TIP3   OH248660   1.011   3.611  14.605 -0.0935 -0.6584  0.5401
 9082TIP3    H148661   1.023   3.516  14.611 -1.7769 -0.8371  3.4429
 9082TIP3    H248662   0.927   3.626  14.649 -0.7353  2.0409 -1.4242
 9083TIP3   OH248663   5.148   4.271  15.818  0.4675  0.1536  0.0548
 9083TIP3    H148664   5.212   4.213  15.859  0.6882  0.3956  0.0543
 9083TIP3    H248665   5.190   4.298  15.736  1.8649  2.9978  1.5504
 9084TIP3   OH248666   5.526   0.895  17.057  0.4205  0.5785 -0.4772
 9084TIP3    H148667   5.464   0.934  16.994  0.0861  0.3863 -0.2709
 9084TIP3    H248668   5.545   0.966  17.118 -2.1086 -0.1993  1.3683
 9085TIP3   OH248669   3.490   2.514   4.360  0.0280 -0.0544  0.6782
 9085TIP3    H148670   3.425   2.459   4.403  0.3994 -0.8510  0.2441
 9085TIP3    H248671   3.564   2.455   4.342  0.2651  0.4774 -0.1794
 9086TIP3   OH248672   2.895   4.639  12.050 -0.1618  0.5425 -0.1138
 9086TIP3    H148673   2.965   4.685  12.005 -0.8856  0.5844 -1.2235
 9086TIP3    H248674   2.854   4.585  11.982 -0.0626 -0.8724  0.8989
 9087TIP3   OH248675   4.599   0.013   0.558 -0.0882 -0.3320  0.5477
 9087TIP3    H148676   4.514  -0.008   0.596  0.7018 -1.7108  1.6092
 9087TIP3    H248677   4.606   0.108   0.569 -1.5678 -0.1575  0.2393
 9088TIP3   OH248678   0.897   4.614  11.083  0.4429  0.1517 -0.1615
 9088TIP3    H148679   0.885   4.690  11.026 -0.7310 -1.4919 -2.2451
 9088TIP3    H248680   0.939   4.548  11.028  0.7146 -1.0010  1.3535
 9089TIP3   OH248681   1.949   4.781  12.349  0.2613  0.8426 -0.2011
 9089TIP3    H148682   1.984   4.692  12.340 -0.8833  0.4624 -1.4441
 9089TIP3    H248683   1.909   4.798  12.263 -1.1830  1.8113  0.6368
 9090TIP3   OH248684   4.513   2.208   3.215  0.2290  0.7676 -0.1066
 9090TIP3    H148685   4.468   2.174   3.138 -1.3095 -1.3555  1.5892
 9090TIP3    H248686   4.456   2.278   3.246 -0.8135 -0.4076  0.7501
 9091TIP3   OH248687   3.577   0.917   1.732  0.1505 -0.3295 -0.3441
 9091TIP3    H148688   3.498   0.936   1.683  0.2897 -0.1253 -0.4918
 9091TIP3    H248689   3.629   0.862   1.674  0.7809  0.7657 -0.8658
 9092TIP3   OH248690   5.524   0.701   6.019 -0.4715  0.1711 -0.7582
 9092TIP3    H148691   5.454   0.709   6.084  1.4428 -0.5453  1.5313
 9092TIP3    H248692   5.483   0.660   5.943 -2.5049 -0.2730  0.5251
 9093TIP3   OH248693   1.161   2.963  14.580 -0.2831 -0.1654 -0.2128
 9093TIP3    H148694   1.208   2.936  14.501  1.4594  0.5202  0.5228
 9093TIP3    H248695   1.073   2.986  14.549  0.2879 -0.1171 -1.9139
 9094TIP3   OH248696   5.410   2.514  15.581 -0.1070 -0.0813 -0.2937
 9094TIP3    H148697   5.439   2.601  15.611 -2.7308  1.1013 -0.9320
 9094TIP3    H248698   5.334   2.531  15.526 -1.0635 -2.8357 -0.0048
 9095TIP3   OH248699   0.377   2.280   3.911 -0.5383  0.4341 -0.5430
 9095TIP3    H148700   0.290   2.245   3.892 -1.1566  1.3537  0.4661
 9095TIP3    H248701   0.437   2.217   3.873 -1.6505  0.6084 -2.7578
 9096TIP3   OH248702   1.855   4.082   0.944  0.4119 -0.3487 -0.0736
 9096TIP3    H148703   1.942   4.080   0.904  0.0556  0.4865 -0.9389
 9096TIP3    H248704   1.850   4.168   0.986  0.1547 -0.5478  0.3003
 9097TIP3   OH248705   1.490   2.161  12.074 -0.7449 -0.1174  0.3271
 9097TIP3    H148706   1.572   2.210  12.066  0.5653 -2.0753  1.0709
 9097TIP3    H248707   1.514   2.082  12.122 -2.6794 -1.6858 -1.1183
 9098TIP3   OH248708   1.791   3.705   4.333 -0.5725  0.1584 -0.2249
 9098TIP3    H148709   1.828   3.621   4.362  0.5209  0.5263 -0.5116
 9098TIP3    H248710   1.708   3.681   4.292  0.4666 -0.9999 -1.7976
 9099TIP3   OH248711   4.128   4.843   1.935  0.5987  0.4327  0.1977
 9099TIP3    H148712   4.103   4.767   1.883  0.1484 -0.5896  1.8237
 9099TIP3    H248713   4.087   4.829   2.020  0.7370  2.3720  0.6465
 9100TIP3   OH248714   4.798   0.489  13.909 -0.3455  0.4658  0.1006
 9100TIP3    H148715   4.800   0.585  13.915 -1.9187  0.6755 -1.6932
 9100TIP3    H248716   4.711   0.469  13.874 -0.3196 -1.6957  1.0916
 9101TIP3   OH248717   0.009   4.624  10.854 -0.0867 -0.6656 -0.6821
 9101TIP3    H148718   0.026   4.717  10.868 -0.2589 -0.8618  0.9721
 9101TIP3    H248719   0.091   4.589  10.819 -0.1618  0.1715 -1.7360
 9102TIP3   OH248720   1.418   5.210   0.822  0.0725 -0.8259 -0.2989
 9102TIP3    H148721   1.338   5.259   0.840  0.3512 -0.7132  0.6622
 9102TIP3    H248722   1.408   5.129   0.873  0.4545 -0.9298 -0.3882
 9103TIP3   OH248723   4.406   5.655   4.806 -0.3579 -0.4198  0.4611
 9103TIP3    H148724   4.467   5.629   4.736  0.4859  1.5373  0.3940
 9103TIP3    H248725   4.319   5.643   4.768  0.0471 -0.8815 -0.3543
 9104TIP3   OH248726   0.155   4.721  14.907 -0.0982 -0.5088 -0.1731
 9104TIP3    H148727   0.088   4.789  14.906 -1.0513 -1.4240 -1.5125
 9104TIP3    H248728   0.201   4.734  14.990 -0.6502  1.3595 -0.1155
 9105TIP3   OH248729   0.066   3.840   5.048 -0.9762 -0.1484  0.5683
 9105TIP3    H148730  -0.018   3.879   5.022 -0.9239 -0.5220 -0.2081
 9105TIP3    H248731   0.079   3.868   5.139 -0.7678  1.8919 -0.0537
 9106TIP3   OH248732   3.343   0.314  13.292  0.3198 -0.3379 -0.5826
 9106TIP3    H148733   3.338   0.349  13.381  2.7025  1.3058 -1.0188
 9106TIP3    H248734   3.274   0.360  13.245 -1.8153 -2.1209  0.5951
 9107TIP3   OH248735   1.864   5.788  12.983  0.6668  0.4845 -0.8450
 9107TIP3    H148736   1.948   5.808  12.941  2.1540 -2.0382  0.6710
 9107TIP3    H248737   1.839   5.703  12.948 -0.5639  0.5519 -0.1986
 9108TIP3   OH248738   6.101   4.393  11.028  0.0685 -0.0162 -0.0918
 9108TIP3    H148739   6.180   4.341  11.009 -0.4839 -1.0490  0.3565
 9108TIP3    H248740   6.041   4.373  10.956 -0.9299 -1.6736  1.1264
 9109TIP3   OH248741   3.679   0.717  13.573 -0.6489  0.2022 -0.3989
 9109TIP3    H148742   3.748   0.660  13.540 -0.0092 -0.8158  2.4146
 9109TIP3    H248743   3.716   0.758  13.651 -2.7244  0.7700  0.3728
 9110TIP3   OH248744   1.554   5.199   5.882 -0.1799  0.0243 -0.5178
 9110TIP3    H148745   1.468   5.166   5.855  0.0013 -0.3500 -0.6372
 9110TIP3    H248746   1.588   5.132   5.940  1.2198 -1.2064 -2.6130
 9111TIP3   OH248747   4.899   5.049   3.488  0.7975 -0.5050 -0.9637
 9111TIP3    H148748   4.897   5.038   3.584  0.1600  0.9151 -0.7956
 9111TIP3    H248749   4.813   5.020   3.459  0.6452 -0.0291 -0.9935
 9112TIP3   OH248750   0.908   5.282  14.417  0.5042 -0.0932  0.3925
 9112TIP3    H148751   0.973   5.227  14.461  1.6035  0.5345 -0.4137
 9112TIP3    H248752   0.926   5.271  14.324 -1.0681 -0.5068  0.1015
 9113TIP3   OH248753   0.410   0.352   1.430 -0.0371  0.0208 -0.2063
 9113TIP3    H148754   0.450   0.338   1.344 -0.5567  0.4788 -0.5289
 9113TIP3    H248755   0.480   0.390   1.483  0.2276 -0.0711 -0.4859
 9114TIP3   OH248756   2.672   3.897  17.074 -0.0952 -0.1552 -0.1111
 9114TIP3    H148757   2.659   3.846  17.154  0.7643  0.8028  0.6583
 9114TIP3    H248758   2.593   3.882  17.023 -1.3886  0.4865  1.6171
 9115TIP3   OH248759   6.538   5.106   2.037 -0.4000  0.6151  0.4559
 9115TIP3    H148760   6.577   5.065   2.114 -0.5861  0.2828  0.3760
 9115TIP3    H248761   6.558   5.046   1.965  0.7998  1.5054  0.0234
 9116TIP3   OH248762   1.643   2.202   5.198 -0.5095  0.4705  0.3942
 9116TIP3    H148763   1.716   2.249   5.238 -0.7387 -0.2191  1.6953
 9116TIP3    H248764   1.636   2.238   5.110  1.1588  0.8031  0.3779
 9117TIP3   OH248765   0.171   1.475   0.221  0.0446  0.1542  0.1591
 9117TIP3    H148766   0.221   1.394   0.233 -1.5991 -0.8635  0.3765
 9117TIP3    H248767   0.198   1.508   0.135 -1.1929 -2.0489 -1.1461
 9118TIP3   OH248768   0.829   5.503  14.055  0.2648  0.2035  0.4811
 9118TIP3    H148769   0.748   5.488  14.007  0.0574  0.6716  0.6773
 9118TIP3    H248770   0.808   5.574  14.116  0.7670  0.2024  0.6609
 9119TIP3   OH248771   6.508   3.526  11.784  0.2317  0.5303  0.0677
 9119TIP3    H148772   6.598   3.559  11.788  1.1009 -1.5616 -0.7212
 9119TIP3    H248773   6.515   3.435  11.812 -1.6764  0.3480  0.0465
 9120TIP3   OH248774   4.006   1.714   5.130 -0.3874 -0.5591  0.2188
 9120TIP3    H148775   3.961   1.702   5.045 -0.9603 -0.8322  0.5536
 9120TIP3    H248776   4.099   1.718   5.107 -0.5845  0.2667 -0.5219
 9121TIP3   OH248777   5.693   2.049   3.199 -0.1105  0.0424  0.3641
 9121TIP3    H148778   5.675   1.955   3.193 -2.5124  0.5314 -2.1254
 9121TIP3    H248779   5.765   2.063   3.137  1.2362 -0.2884  1.7932
 9122TIP3   OH248780   0.242   4.722  13.500  0.1902  0.5738  0.5122
 9122TIP3    H148781   0.239   4.704  13.406 -0.4096  1.3047  0.3801
 9122TIP3    H248782   0.312   4.665  13.533  0.3633  0.2597 -0.3599
 9123TIP3   OH248783   4.565   4.970   5.008 -0.6292 -1.0410 -0.1834
 9123TIP3    H148784   4.658   4.992   5.004 -0.7895  0.2452  1.8841
 9123TIP3    H248785   4.550   4.916   4.930  1.7524 -1.0023 -0.7449
 9124TIP3   OH248786   2.760   6.717  15.295 -0.2744 -0.0334 -0.2970
 9124TIP3    H148787   2.831   6.749  15.350 -0.1722  2.8096 -1.8871
 9124TIP3    H248788   2.801   6.651  15.238  1.6149  2.5666 -2.1811
 9125TIP3   OH248789   4.587   0.066   5.293  0.5696 -0.3033  0.4348
 9125TIP3    H148790   4.563   0.158   5.303 -2.3860 -1.0609  1.5182
 9125TIP3    H248791   4.505   0.019   5.306  1.3829 -3.0041 -2.7971
 9126TIP3   OH248792   0.590   1.609  11.619  0.1574  0.1395 -0.1758
 9126TIP3    H148793   0.495   1.620  11.629  0.2476 -0.1718  1.2376
 9126TIP3    H248794   0.604   1.604  11.524 -1.6033 -2.5886 -0.4192
 9127TIP3   OH248795   6.278   1.422   0.826 -0.2753 -0.2759  0.1955
 9127TIP3    H148796   6.301   1.330   0.831 -0.9024 -0.4113  0.8696
 9127TIP3    H248797   6.216   1.435   0.898 -0.9242  0.4503 -0.4676
 9128TIP3   OH248798   5.212   1.110  10.403  0.3739  0.2544  0.6727
 9128TIP3    H148799   5.251   1.104  10.490  1.2653 -0.8092  0.2158
 9128TIP3    H248800   5.192   1.020  10.379  1.3687  0.3818 -0.7602
 9129TIP3   OH248801   2.498   1.553   1.980 -0.4043 -0.3900  0.0749
 9129TIP3    H148802   2.571   1.491   1.976  0.8510  1.0013  0.3433
 9129TIP3    H248803   2.420   1.500   1.965  0.4992 -2.2262  1.5064
 9130TIP3   OH248804   5.504   0.100   5.391  0.4321 -0.3966  0.1871
 9130TIP3    H148805   5.599   0.103   5.378  0.3980 -2.3755 -0.7668
 9130TIP3    H248806   5.469   0.063   5.310 -1.0475 -0.7679  0.9522
 9131TIP3   OH248807   1.134   0.620  12.589 -0.8415 -0.1365 -0.0113
 9131TIP3    H148808   1.066   0.672  12.632 -0.9937 -0.0806 -0.3123
 9131TIP3    H248809   1.190   0.591  12.660 -1.5454 -0.7224  0.3212
 9132TIP3   OH248810   6.716   4.791  14.165  0.2801  0.7124 -0.0990
 9132TIP3    H148811   6.699   4.821  14.254 -0.1364  1.9674 -0.5690
 9132TIP3    H248812   6.810   4.770  14.164  0.3021  0.7622  0.6089
 9133TIP3   OH248813   2.994   0.440  10.531 -0.5034  0.1846  0.1959
 9133TIP3    H148814   3.083   0.472  10.545 -0.8243  1.7595 -1.0670
 9133TIP3    H248815   2.941   0.519  10.521 -2.0850 -0.7118  1.0419
 9134TIP3   OH248816   2.847   5.747  14.112  0.1092 -0.1841 -0.2877
 9134TIP3    H148817   2.809   5.660  14.127  0.7405 -0.1716  1.7719
 9134TIP3    H248818   2.777   5.797  14.069 -1.0729 -1.0760  0.5214
 9135TIP3   OH248819   1.395   3.406   5.009  0.2641 -0.3945  1.0683
 9135TIP3    H148820   1.430   3.488   5.043  0.7958 -0.0833 -0.1652
 9135TIP3    H248821   1.300   3.420   5.006  0.4519  0.8781 -0.7637
 9136TIP3   OH248822   1.416   1.180   1.342 -0.8657  0.1386  0.0021
 9136TIP3    H148823   1.455   1.216   1.262 -0.2333 -1.9746 -0.6960
 9136TIP3    H248824   1.440   1.243   1.410 -0.1235  1.2153 -1.2006
 9137TIP3   OH248825   5.360   5.442  12.400  0.0220 -0.1427  0.4243
 9137TIP3    H148826   5.374   5.418  12.308  0.1839  1.6595 -0.0495
 9137TIP3    H248827   5.268   5.419  12.416 -0.1215 -0.1332 -0.3079
 9138TIP3   OH248828   3.204   1.249   0.626 -0.2136 -0.5069 -0.5210
 9138TIP3    H148829   3.203   1.344   0.624  2.1759 -0.4259 -0.9611
 9138TIP3    H248830   3.235   1.226   0.713 -0.9020 -0.9041 -0.3703
 9139TIP3   OH248831   1.941   0.167  13.017 -0.2530  0.4367 -0.3034
 9139TIP3    H148832   1.974   0.249  13.054  1.0527 -0.8480  1.5975
 9139TIP3    H248833   1.988   0.099  13.065 -1.1751 -1.4433 -1.9250
 9140TIP3   OH248834   0.750   5.844   3.578  0.0685  0.1213  0.1711
 9140TIP3    H148835   0.675   5.785   3.591 -1.6770  1.8386 -1.4183
 9140TIP3    H248836   0.728   5.923   3.628  1.3934  0.2327  0.6262
 9141TIP3   OH248837   5.109   1.153   5.183  0.1943  0.5226 -0.2214
 9141TIP3    H148838   5.180   1.175   5.242 -1.2238  0.8272  1.4452
 9141TIP3    H248839   5.087   1.236   5.140 -0.1453  0.7549  0.3931
 9142TIP3   OH248840   5.544   2.890  14.927  0.2052 -0.3195 -0.3575
 9142TIP3    H148841   5.578   2.955  14.990 -0.1937 -1.8339  1.5215
 9142TIP3    H248842   5.610   2.888  14.857  0.5611  1.5969 -0.1431
 9143TIP3   OH248843   6.665   4.221   1.102 -0.5306 -0.1021  0.1642
 9143TIP3    H148844   6.666   4.167   1.023 -0.5278  1.8017 -1.2065
 9143TIP3    H248845   6.713   4.169   1.167  1.1077 -0.9779 -1.6211
 9144TIP3   OH248846   5.403   5.887   2.168 -0.2020  0.0850  0.3971
 9144TIP3    H148847   5.471   5.820   2.168  0.1461  0.3717 -1.5212
 9144TIP3    H248848   5.329   5.846   2.122 -0.2578  0.7289 -0.1101
 9145TIP3   OH248849   6.784   4.866   2.896  0.4229  0.2712 -0.2710
 9145TIP3    H148850   6.702   4.848   2.849  1.0888 -1.0057 -0.9949
 9145TIP3    H248851   6.834   4.922   2.838  0.4778  0.2172 -0.2758
 9146TIP3   OH248852   4.928   1.416  11.783  0.0277  0.2597 -0.5365
 9146TIP3    H148853   4.909   1.446  11.695 -0.0510  0.0827 -0.5797
 9146TIP3    H248854   5.024   1.417  11.789  0.1079 -1.3605 -1.1986
 9147TIP3   OH248855   3.387   0.632  13.574 -0.4216  0.7664 -0.2850
 9147TIP3    H148856   3.468   0.663  13.534 -0.1831  1.0239  0.3759
 9147TIP3    H248857   3.407   0.628  13.668 -1.1558  0.7756 -0.1215
 9148TIP3   OH248858   5.920   4.534  14.883  0.3515  0.0159  0.1337
 9148TIP3    H148859   6.002   4.493  14.911  0.4380 -0.6598 -1.0048
 9148TIP3    H248860   5.942   4.626  14.871  1.9475 -0.6455 -3.4036
 9149TIP3   OH248861   5.481   0.713   4.788  0.3248  0.1691 -0.3352
 9149TIP3    H148862   5.414   0.647   4.809 -0.4422  0.5155 -1.5866
 9149TIP3    H248863   5.516   0.686   4.703  1.7691  0.0272  0.2788
 9150TIP3   OH248864   2.226   2.462   3.837 -0.1577 -0.3426 -0.3950
 9150TIP3    H148865   2.209   2.430   3.926 -1.5413 -0.2369 -0.5955
 9150TIP3    H248866   2.252   2.554   3.850  0.4634 -0.5557 -0.0600
 9151TIP3   OH248867   5.419   6.450   1.115 -0.5247  0.2631  0.4762
 9151TIP3    H148868   5.399   6.496   1.033 -0.1182 -0.2332  0.0892
 9151TIP3    H248869   5.511   6.470   1.131  0.2158 -1.8666 -0.6902
 9152TIP3   OH248870   4.534   0.300   1.673 -0.6208 -0.0011  0.0728
 9152TIP3    H148871   4.540   0.286   1.767  1.2554 -1.0372 -0.1678
 9152TIP3    H248872   4.593   0.374   1.656 -2.2132  1.2964 -0.1187
 9153TIP3   OH248873   2.098   4.155  14.916  0.4866 -0.1906 -0.1372
 9153TIP3    H148874   2.008   4.124  14.916 -1.0091  3.5660  0.1611
 9153TIP3    H248875   2.105   4.208  14.995  3.3248 -1.1351  0.3556
 9154TIP3   OH248876   0.105   2.511  11.481 -0.4412  0.2490 -0.0922
 9154TIP3    H148877   0.116   2.569  11.556 -3.5364  1.7209 -0.6115
 9154TIP3    H248878   0.107   2.570  11.405  0.1381 -0.8595 -0.9607
 9155TIP3   OH248879   1.988   1.349  12.592  0.7150 -0.0376 -0.2200
 9155TIP3    H148880   2.051   1.288  12.555  1.0748 -1.1853  2.1074
 9155TIP3    H248881   1.907   1.331  12.545  1.3080 -0.9285 -0.9324
 9156TIP3   OH248882   1.846   2.823   4.776  0.5461  0.2312 -0.0659
 9156TIP3    H148883   1.908   2.883   4.734  0.1833  0.4645 -0.2811
 9156TIP3    H248884   1.777   2.811   4.710 -0.5230  1.3535  0.7970
 9157TIP3   OH248885   1.268   1.175  11.782  0.4283 -0.2504 -0.5252
 9157TIP3    H148886   1.330   1.115  11.825  0.2624  1.2738  2.0793
 9157TIP3    H248887   1.198   1.187  11.846 -0.2042  1.6619 -1.4932
 9158TIP3   OH248888   2.623   3.979   3.353  0.0645  0.1037 -0.0289
 9158TIP3    H148889   2.641   4.068   3.323  0.2102  0.2205  0.4045
 9158TIP3    H248890   2.676   3.969   3.432 -0.8551  0.0347  0.5853
 9159TIP3   OH248891   6.017   3.519  11.029  0.2484 -0.0130  0.1965
 9159TIP3    H148892   6.091   3.577  11.044 -0.0412  0.5347 -0.4683
 9159TIP3    H248893   5.953   3.544  11.096  0.8335 -0.8115  1.0847
 9160TIP3   OH248894   0.979   5.636   5.634  0.2566  0.3348  0.0002
 9160TIP3    H148895   0.958   5.543   5.626 -0.3834  0.5599 -1.1784
 9160TIP3    H248896   0.965   5.656   5.726  0.6524 -0.7927  0.3209
 9161TIP3   OH248897   0.760   5.429   5.341 -0.7239  0.1932 -0.6162
 9161TIP3    H148898   0.665   5.414   5.343 -0.7681  0.5554  1.3664
 9161TIP3    H248899   0.769   5.523   5.350 -0.1612  0.1450 -0.6746
 9162TIP3   OH248900   5.896   5.945   6.464  0.3806 -1.2040  0.5769
 9162TIP3    H148901   5.825   6.003   6.439  1.7769  2.0040  3.2114
 9162TIP3    H248902   5.853   5.862   6.484 -2.3281 -0.0027  0.2177
 9163TIP3   OH248903   3.574   4.485   3.276  0.1814 -0.8388  0.3046
 9163TIP3    H148904   3.571   4.496   3.181 -2.0426  1.4974  0.5338
 9163TIP3    H248905   3.520   4.407   3.292  1.4601 -1.9031 -0.3548
 9164TIP3   OH248906   0.763   2.158  15.884 -0.3331 -0.3538  0.2229
 9164TIP3    H148907   0.801   2.107  15.955  0.5211 -0.3417 -0.2222
 9164TIP3    H248908   0.792   2.114  15.804  1.9305  1.8011 -0.2448
 9165TIP3   OH248909   3.086   2.888  12.347 -0.1530 -0.4768  0.3589
 9165TIP3    H148910   3.012   2.939  12.381  0.3597 -0.0552  0.8542
 9165TIP3    H248911   3.050   2.800  12.333 -0.6729 -0.3512  0.8762
 9166TIP3   OH248912   0.587   5.121   0.467 -1.0153  0.3190  0.2782
 9166TIP3    H148913   0.631   5.036   0.466 -1.4394  0.0843 -1.3980
 9166TIP3    H248914   0.596   5.152   0.558  1.1682 -0.4478  0.3837
 9167TIP3   OH248915   1.182   0.837  14.849  0.1282  0.6050 -0.2461
 9167TIP3    H148916   1.142   0.753  14.871  1.1503  0.2407  0.2863
 9167TIP3    H248917   1.169   0.891  14.927  1.0767  0.3300  0.1060
 9168TIP3   OH248918   2.441   1.047  12.414  0.3502  0.3083  0.2408
 9168TIP3    H148919   2.504   1.053  12.486  0.2024  1.2851  0.3034
 9168TIP3    H248920   2.400   0.961  12.425  1.6538 -0.3379  0.2046
 9169TIP3   OH248921   4.951   1.042   3.367 -0.1226  0.1424  0.0562
 9169TIP3    H148922   4.873   1.004   3.328 -0.5797 -0.0694  1.1294
 9169TIP3    H248923   4.960   1.128   3.327 -0.6478 -0.0181 -0.3992
 9170TIP3   OH248924   4.531   1.402  16.811  0.2063  0.3611 -0.3720
 9170TIP3    H148925   4.498   1.456  16.739 -0.6208  1.4595  0.7720
 9170TIP3    H248926   4.453   1.378  16.861  0.8767  0.9461  1.0282
 9171TIP3   OH248927   5.527   4.195   0.463  0.2189 -0.2178 -0.0866
 9171TIP3    H148928   5.462   4.210   0.531 -0.1630  0.2208 -0.5369
 9171TIP3    H248929   5.594   4.261   0.479  0.3880 -0.4533  0.1774
 9172TIP3   OH248930   1.142   1.407   5.522 -0.3394  0.2517 -0.0281
 9172TIP3    H148931   1.130   1.324   5.567  1.0004 -0.3420 -0.7144
 9172TIP3    H248932   1.075   1.408   5.453 -2.0940  0.9572  1.5996
 9173TIP3   OH248933   0.007   3.191  14.546 -0.3270 -0.0300 -0.7327
 9173TIP3    H148934   0.033   3.202  14.455  1.8588 -0.4880 -0.2096
 9173TIP3    H248935   0.022   3.098  14.565 -0.8314  0.0437  0.0882
 9174TIP3   OH248936   6.235   0.382   6.272 -0.4236 -0.0866  0.1473
 9174TIP3    H148937   6.238   0.353   6.181  0.1072  0.1610  0.0767
 9174TIP3    H248938   6.143   0.381   6.295 -0.9095  2.4773 -1.2545
 9175TIP3   OH248939   2.522   5.172   0.935 -0.3459 -0.2223 -0.5265
 9175TIP3    H148940   2.554   5.262   0.940  0.0866 -0.4181  0.4182
 9175TIP3    H248941   2.578   5.131   0.868 -2.1858  0.8359 -2.8502
 9176TIP3   OH248942   1.722   1.636  15.026 -0.2549  0.2727  0.1759
 9176TIP3    H148943   1.627   1.648  15.026 -0.2672  0.2464 -0.8132
 9176TIP3    H248944   1.755   1.702  15.087 -0.8986  0.3668  0.4244
 9177TIP3   OH248945   6.615   4.090  14.231  0.6499 -0.0659 -0.2490
 9177TIP3    H148946   6.565   4.144  14.170  0.0830  1.5598  1.5411
 9177TIP3    H248947   6.549   4.049  14.287  1.1763  1.3649  1.5408
 9178TIP3   OH248948   5.487   6.679  12.006  0.1924  0.4131 -0.4931
 9178TIP3    H148949   5.408   6.729  12.024  0.1864  0.4385 -0.5869
 9178TIP3    H248950   5.489   6.611  12.073  0.7734  1.1960  0.3069
 9179TIP3   OH248951   5.817   5.566   5.678 -0.2102  0.3533 -0.6272
 9179TIP3    H148952   5.782   5.563   5.767 -0.4656 -0.5714 -0.7539
 9179TIP3    H248953   5.902   5.610   5.687  0.0189 -0.2329  0.1553
 9180TIP3   OH248954   1.703   4.432   0.737 -0.5936  0.2342 -0.2715
 9180TIP3    H148955   1.738   4.357   0.688 -1.9050  0.6849 -1.9729
 9180TIP3    H248956   1.767   4.446   0.807  0.8423 -1.0670 -1.2435
 9181TIP3   OH248957   4.845   0.595  16.858  0.4796  0.2128 -0.0599
 9181TIP3    H148958   4.880   0.520  16.905  2.2180  1.0125  0.0146
 9181TIP3    H248959   4.909   0.612  16.788 -1.2889 -0.0481 -1.8164
 9182TIP3   OH248960   0.439   0.921  17.111  0.0000 -0.4519  0.0525
 9182TIP3    H148961   0.350   0.936  17.142  0.3240  2.0599 -0.0015
 9182TIP3    H248962   0.428   0.883  17.024 -1.0964  1.2170 -0.5913
 9183TIP3   OH248963   4.501   6.071  12.098  0.4105  0.3918  0.5304
 9183TIP3    H148964   4.543   6.155  12.117  1.4574  0.1227 -0.5009
 9183TIP3    H248965   4.531   6.013  12.167 -1.2958  1.1288  1.9834
 9184TIP3   OH248966   3.374   3.264  15.920  0.3252 -0.0672  0.0956
 9184TIP3    H148967   3.292   3.267  15.871 -0.0631 -2.0660  0.5502
 9184TIP3    H248968   3.424   3.338  15.886 -1.1746  0.4881 -1.0437
 9185TIP3   OH248969   5.367   4.259   4.798 -0.0257 -0.5321  0.0223
 9185TIP3    H148970   5.284   4.228   4.762 -0.7706  0.5554  0.7422
 9185TIP3    H248971   5.362   4.240   4.892  0.1649  0.3137  0.2148
 9186TIP3   OH248972   3.160   0.553  16.347  0.3888  0.3339  0.6387
 9186TIP3    H148973   3.140   0.470  16.303  1.2959 -0.3516  1.4770
 9186TIP3    H248974   3.248   0.575  16.317  1.2435 -0.4187  2.4567
 9187TIP3   OH248975   5.534   2.941   3.679 -0.5775 -0.2630  0.4053
 9187TIP3    H148976   5.555   2.874   3.613 -1.7574 -0.0983 -0.1614
 9187TIP3    H248977   5.523   2.892   3.760 -1.1043 -0.7215  0.0637
 9188TIP3   OH248978   1.681   0.342  14.760  0.4961 -0.0787 -0.3200
 9188TIP3    H148979   1.773   0.365  14.743 -0.1536  1.8368 -1.4740
 9188TIP3    H248980   1.681   0.246  14.765  2.5357 -0.1276 -0.3664
 9189TIP3   OH248981   6.114   3.316  11.282 -0.6004 -0.5257 -0.0346
 9189TIP3    H148982   6.024   3.339  11.306 -1.2404 -1.7494 -1.1446
 9189TIP3    H248983   6.120   3.223  11.303  0.4532 -0.4356  0.0973
 9190TIP3   OH248984   3.294   0.273   3.360  0.0769 -0.5231 -0.2725
 9190TIP3    H148985   3.247   0.314   3.432  0.1578 -0.7550 -0.0860
 9190TIP3    H248986   3.298   0.180   3.384 -0.4730 -0.7094 -0.8904
 9191TIP3   OH248987   1.521   3.732   4.431 -0.1572 -0.0375 -0.3382
 9191TIP3    H148988   1.566   3.650   4.450  0.3765 -0.3577 -2.6396
 9191TIP3    H248989   1.456   3.741   4.501  0.1858 -2.0877  0.3152
 9192TIP3   OH248990   5.783   6.279   0.122  0.4714  0.0976  0.1875
 9192TIP3    H148991   5.874   6.297   0.096  0.7446  0.7985  1.4889
 9192TIP3    H248992   5.736   6.268   0.040  1.8398 -0.8375 -0.5100
 9193TIP3   OH248993   5.666   6.000   5.046 -0.0875 -0.0443 -0.1698
 9193TIP3    H148994   5.575   6.027   5.032  0.0879  0.0085 -1.2366
 9193TIP3    H248995   5.709   6.012   4.961  0.7403 -0.7819  0.1308
 9194TIP3   OH248996   2.152   3.237  13.055  0.1237 -0.0737 -0.0606
 9194TIP3    H148997   2.133   3.252  12.962 -4.5020  0.8300  0.7703
 9194TIP3    H248998   2.188   3.148  13.058  0.5102 -0.0722 -2.6935
 9195TIP3   OH248999   4.674   4.823  12.243  0.2718 -0.4698 -0.2162
 9195TIP3    H149000   4.665   4.877  12.321  3.2109  0.4664 -0.4216
 9195TIP3    H249001   4.691   4.886  12.172 -1.3060 -1.3760 -1.4744
 9196TIP3   OH249002   5.724   4.749  10.590 -0.2173  0.3319 -0.9858
 9196TIP3    H149003   5.813   4.780  10.605 -0.2979  0.2237 -0.2402
 9196TIP3    H249004   5.735   4.668  10.541  0.1606 -0.2413  0.0068
 9197TIP3   OH249005   4.959   6.541  17.099  0.5211  0.1285 -0.0163
 9197TIP3    H149006   5.031   6.504  17.151  0.9424  0.0166 -0.6534
 9197TIP3    H249007   4.884   6.486  17.120  0.3286  0.9076  1.4813
 9198TIP3   OH249008   3.310   3.782   2.144 -0.2907 -0.6702  0.3110
 9198TIP3    H149009   3.311   3.771   2.239 -0.0447 -0.6340  0.3146
 9198TIP3    H249010   3.219   3.768   2.118 -0.6600  0.8483  0.7227
 9199TIP3   OH249011   1.130   2.055   0.602  0.2174  0.3620 -0.0807
 9199TIP3    H149012   1.107   2.132   0.550  0.2558 -0.1602 -0.8745
 9199TIP3    H249013   1.203   2.085   0.657  0.5537  0.7653 -0.7343
 9200TIP3   OH249014   0.005   3.136   3.028 -0.4492  0.1192 -0.4344
 9200TIP3    H149015   0.040   3.061   3.076 -0.5097  0.8390  0.7660
 9200TIP3    H249016  -0.002   3.105   2.937  1.4701 -0.6626 -0.3691
 9201TIP3   OH249017   0.285   3.838  13.268  0.5109 -0.0531 -0.1089
 9201TIP3    H149018   0.209   3.896  13.271  0.2979 -0.2967 -0.6403
 9201TIP3    H249019   0.291   3.812  13.176 -0.7703 -2.6915  0.4594
 9202TIP3   OH249020   3.658   2.859  15.940 -0.1200  0.2563  0.0630
 9202TIP3    H149021   3.570   2.830  15.915 -0.0892 -1.4078  1.7143
 9202TIP3    H249022   3.691   2.906  15.863 -1.4963 -1.2314 -1.4933
 9203TIP3   OH249023   6.335   1.207  15.447  0.0666 -0.9284  0.0371
 9203TIP3    H149024   6.287   1.182  15.526 -0.9419  1.2241  0.1613
 9203TIP3    H249025   6.424   1.224  15.477 -0.2113 -0.5261  0.6549
 9204TIP3   OH249026   2.576   2.579   2.684  0.6945  0.4650  0.1671
 9204TIP3    H149027   2.645   2.525   2.722  1.5720 -0.0979 -2.0625
 9204TIP3    H249028   2.526   2.519   2.629  1.1623  1.6785 -1.6867
 9205TIP3   OH249029   3.095   4.276  10.584 -0.2681 -0.1957  0.6841
 9205TIP3    H149030   3.123   4.216  10.515 -1.3654 -1.4525  1.2790
 9205TIP3    H249031   3.130   4.361  10.558  0.2830 -0.8573 -0.8371
 9206TIP3   OH249032   0.349   1.008  15.396 -0.0578  0.7413  0.2044
 9206TIP3    H149033   0.280   1.024  15.460 -1.4584  1.5899 -1.4230
 9206TIP3    H249034   0.340   0.915  15.374 -0.4379  0.7598  0.2775
 9207TIP3   OH249035   2.347   0.586   2.902 -0.0031  0.0350 -0.3514
 9207TIP3    H149036   2.300   0.537   2.969  0.9741  0.3778  0.6213
 9207TIP3    H249037   2.402   0.647   2.951  0.9620  0.0997 -1.4578
 9208TIP3   OH249038   6.332   2.196  11.894 -0.2152 -0.5214 -0.3584
 9208TIP3    H149039   6.259   2.250  11.864  0.3737  0.7569  0.4417
 9208TIP3    H249040   6.297   2.150  11.971  0.1884  1.1082  0.8341
 9209TIP3   OH249041   0.729   3.996   3.095  0.3597 -0.2961 -0.6048
 9209TIP3    H149042   0.643   4.024   3.125 -0.2323 -0.3429 -2.1754
 9209TIP3    H249043   0.749   4.053   3.020  2.2537  0.5263  0.4560
 9210TIP3   OH249044   4.819   4.326   1.207 -0.3533  0.1571  0.3907
 9210TIP3    H149045   4.801   4.407   1.160 -0.5699 -0.5859 -0.8269
 9210TIP3    H249046   4.734   4.302   1.246 -0.5247  0.0020 -0.0708
 9211TIP3   OH249047   5.834   4.296  17.178  0.2093 -0.3015  0.3593
 9211TIP3    H149048   5.926   4.280  17.198 -0.5798 -3.1754  2.3185
 9211TIP3    H249049   5.786   4.254  17.249 -2.6477  1.0853 -0.6013
 9212TIP3   OH249050   0.220   0.892  15.079 -0.1962  0.4788  0.3540
 9212TIP3    H149051   0.157   0.820  15.082  0.2389  0.1054  2.5881
 9212TIP3    H249052   0.190   0.953  15.147  1.1968  0.8292  0.6985
 9213TIP3   OH249053   1.281   6.586  10.253 -0.4209  0.5882  0.2036
 9213TIP3    H149054   1.193   6.625  10.258 -0.3863  1.4799 -3.3090
 9213TIP3    H249055   1.271   6.501  10.296 -2.8516  0.9286  0.5002
 9214TIP3   OH249056   0.475   5.741   3.560 -0.0804 -0.3172  0.5673
 9214TIP3    H149057   0.513   5.741   3.472 -0.9442 -0.6760  0.1777
 9214TIP3    H249058   0.437   5.828   3.570  1.0776  0.1569  1.0838
 9215TIP3   OH249059   4.779   6.704  12.082 -0.3866 -0.2048 -0.2597
 9215TIP3    H149060   4.842   6.766  12.119  0.6756 -1.3272 -0.1094
 9215TIP3    H249061   4.759   6.645  12.155 -0.8949 -0.4086 -0.5646
 9216TIP3   OH249062   4.924   3.680  14.335  0.0809  0.5725 -0.4294
 9216TIP3    H149063   5.007   3.643  14.305  1.1230  1.3848  1.3041
 9216TIP3    H249064   4.898   3.626  14.410 -2.1462 -1.0194 -2.1767
 9217TIP3   OH249065   6.546   0.236   3.925  0.1344 -0.3481 -0.1815
 9217TIP3    H149066   6.459   0.218   3.890  0.1558  0.5541 -0.7207
 9217TIP3    H249067   6.564   0.162   3.983 -0.7903 -0.7826 -0.4300
 9218TIP3   OH249068   5.852   4.298   2.895  0.2120 -0.1605 -0.2568
 9218TIP3    H149069   5.922   4.363   2.901  0.9274 -0.8635 -0.8792
 9218TIP3    H249070   5.832   4.276   2.986 -2.1277  3.0599  0.2109
 9219TIP3   OH249071   5.417   4.620   6.506  0.2820 -0.3802 -0.6493
 9219TIP3    H149072   5.446   4.710   6.521  1.4401 -0.8308  0.0282
 9219TIP3    H249073   5.396   4.616   6.413  2.3134  0.0632 -1.1846
 9220TIP3   OH249074   1.017   0.379  14.241 -0.6975 -0.1945 -0.1246
 9220TIP3    H149075   0.924   0.376  14.217 -1.0371  1.8990  0.7311
 9220TIP3    H249076   1.063   0.369  14.158 -1.7191 -0.0041 -0.7338
 9221TIP3   OH249077   5.363   0.584   0.592  0.1747  0.5108  0.0094
 9221TIP3    H149078   5.297   0.644   0.559 -0.1146  0.8972  1.2385
 9221TIP3    H249079   5.423   0.640   0.642 -0.5887 -0.2998  1.9242
 9222TIP3   OH249080   1.755   4.975  12.935 -0.0405 -0.2939  0.5761
 9222TIP3    H149081   1.842   4.955  12.971  0.0561 -1.4744 -0.2511
 9222TIP3    H249082   1.723   5.047  12.989  1.9637  1.0334  0.0974
 9223TIP3   OH249083   5.775   2.617  15.723 -0.1285 -0.1162 -0.4511
 9223TIP3    H149084   5.795   2.587  15.812  2.3188  1.3306 -0.3917
 9223TIP3    H249085   5.723   2.547  15.685  0.2820 -1.6153  1.5409
 9224TIP3   OH249086   4.159   5.257   3.615 -0.2432  0.3794 -0.0602
 9224TIP3    H149087   4.183   5.344   3.583  0.0794  0.1467 -0.4593
 9224TIP3    H249088   4.199   5.251   3.701 -0.5756  0.7647  0.1250
 9225TIP3   OH249089   1.260   4.030   3.130  0.0005 -0.1289 -0.0426
 9225TIP3    H149090   1.245   3.936   3.129  0.8145 -0.2785  0.7664
 9225TIP3    H249091   1.349   4.040   3.164 -0.4538  0.9701  0.8836
 9226TIP3   OH249092   2.510   6.681  14.407  0.3172 -0.6392 -0.3305
 9226TIP3    H149093   2.429   6.694  14.358  0.2702 -0.6207 -0.2488
 9226TIP3    H249094   2.577   6.667  14.340  0.6021  1.2347 -0.4756
 9227TIP3   OH249095   3.240   5.827  16.086  0.5334  0.2471  0.5888
 9227TIP3    H149096   3.277   5.880  16.157 -0.6075  0.0902  1.3435
 9227TIP3    H249097   3.247   5.882  16.008  2.3662  0.1829  0.6857
 9228TIP3   OH249098   4.007   1.585  12.801  0.0202  0.4059 -0.2163
 9228TIP3    H149099   3.919   1.568  12.836 -1.0051  0.5975 -2.5317
 9228TIP3    H249100   4.010   1.534  12.720  2.7780 -1.0854  0.6996
 9229TIP3   OH249101   3.944   1.648  11.401  0.4885 -0.2642 -0.3289
 9229TIP3    H149102   3.981   1.560  11.393 -0.6247 -0.7659 -0.1747
 9229TIP3    H249103   3.979   1.682  11.483  0.8523 -0.6037 -0.3432
 9230TIP3   OH249104   4.005   1.853  13.912  0.4793  0.0862 -0.5609
 9230TIP3    H149105   3.996   1.792  13.985  0.4161 -1.0658 -1.5025
 9230TIP3    H249106   4.024   1.937  13.953 -0.5191 -0.3358  0.8140
 9231TIP3   OH249107   0.526   3.323   0.797  0.5117  0.2483  0.0472
 9231TIP3    H149108   0.615   3.297   0.773  0.2019 -0.4725 -0.3451
 9231TIP3    H249109   0.489   3.244   0.837 -0.0457  0.4548 -0.0649
 9232TIP3   OH249110   3.139   3.422   4.844  0.8080 -0.5620  0.4904
 9232TIP3    H149111   3.082   3.487   4.885 -1.0605 -1.7858 -0.0363
 9232TIP3    H249112   3.215   3.472   4.815 -0.4552  1.3606  0.2920
 9233TIP3   OH249113   1.630   1.716   1.648  0.0892 -0.7647  0.3187
 9233TIP3    H149114   1.711   1.665   1.648  0.5485 -0.1124  2.1456
 9233TIP3    H249115   1.650   1.794   1.597  0.7697 -0.3905  1.1433
 9234TIP3   OH249116   1.910   3.472  14.454 -0.3102 -0.3001 -0.0558
 9234TIP3    H149117   1.836   3.426  14.413  0.2861 -1.2806 -0.0474
 9234TIP3    H249118   1.943   3.410  14.519 -0.3733  0.7012  0.9565
 9235TIP3   OH249119   5.008   1.224  16.099  0.0664  0.5778  0.5288
 9235TIP3    H149120   5.016   1.129  16.107 -2.0656  0.2310 -0.7050
 9235TIP3    H249121   5.088   1.258  16.138  1.5899 -1.7829 -0.3249
 9236TIP3   OH249122   2.525   6.311  16.122  0.7506  0.1764  0.1588
 9236TIP3    H149123   2.526   6.251  16.048  1.6575  0.8479 -0.3976
 9236TIP3    H249124   2.436   6.346  16.124  0.7931  0.3630 -0.8006
 9237TIP3   OH249125   0.847   4.264   5.736 -0.1839 -0.4571  0.7002
 9237TIP3    H149126   0.890   4.223   5.812 -2.3811 -1.1538  1.6456
 9237TIP3    H249127   0.819   4.350   5.768 -0.7702 -0.5953  0.5777
 9238TIP3   OH249128   3.678   3.717  15.606  0.0768 -0.4476 -0.6443
 9238TIP3    H149129   3.704   3.725  15.515  0.2711  2.7698 -0.4167
 9238TIP3    H249130   3.760   3.699  15.653  0.2756 -0.3105 -0.9356
 9239TIP3   OH249131   4.479   1.726   0.012  0.2692  0.7684 -0.0806
 9239TIP3    H149132   4.400   1.765  -0.026 -0.3615 -0.7761 -0.4294
 9239TIP3    H249133   4.521   1.682  -0.062  2.1465  2.5513 -0.1743
 9240TIP3   OH249134   5.590   2.021   1.336 -0.1085 -0.2955 -0.1466
 9240TIP3    H149135   5.579   2.093   1.274 -1.6804 -0.7421 -0.4383
 9240TIP3    H249136   5.685   2.005   1.338 -0.0451 -1.8791 -4.3770
 9241TIP3   OH249137   3.619   0.284  12.835 -0.4989  0.0498  0.5956
 9241TIP3    H149138   3.672   0.244  12.903 -0.7521 -0.8043  0.3024
 9241TIP3    H249139   3.529   0.265  12.861 -0.6699  1.1807  0.9033
 9242TIP3   OH249140   6.146   6.638  13.462  0.1458  0.4512 -0.3767
 9242TIP3    H149141   6.054   6.621  13.483 -0.0487  2.8556  1.1425
 9242TIP3    H249142   6.195   6.587  13.526 -0.1424 -0.1232 -0.6068
 9243TIP3   OH249143   0.577   6.176  11.321 -0.0280 -0.2110 -0.0005
 9243TIP3    H149144   0.644   6.219  11.268  0.3855  0.7918  1.2738
 9243TIP3    H249145   0.554   6.241  11.388  0.4984 -1.8676  1.9112
 9244TIP3   OH249146   6.449   1.984   4.201  0.3176  0.1686 -0.3075
 9244TIP3    H149147   6.445   2.020   4.112  0.8296  3.2565  0.8039
 9244TIP3    H249148   6.365   2.006   4.240  1.5411  2.7330  1.2006
 9245TIP3   OH249149   2.550   6.062  13.684 -0.5051  0.1055 -0.3201
 9245TIP3    H149150   2.488   6.104  13.624 -0.8948  0.3244  0.2304
 9245TIP3    H249151   2.503   5.985  13.716 -0.8913  0.7982  0.8534
 9246TIP3   OH249152   5.203   1.209   4.470  0.0510 -0.2908  0.3144
 9246TIP3    H149153   5.178   1.147   4.401  0.7068  1.5663 -1.7206
 9246TIP3    H249154   5.286   1.245   4.440  0.1962  0.8075  1.9499
 9247TIP3   OH249155   6.565   3.126  14.357  0.0753 -0.3138  0.4467
 9247TIP3    H149156   6.554   3.033  14.380 -2.0268  0.3317  2.4785
 9247TIP3    H249157   6.476   3.160  14.353  0.8380  1.8105  0.5531
 9248TIP3   OH249158   1.432   6.084   1.058 -0.2008  0.7158 -0.2663
 9248TIP3    H149159   1.472   5.997   1.064 -1.8098  0.0089  1.0502
 9248TIP3    H249160   1.500   6.139   1.018  1.1333 -0.9537 -0.4270
 9249TIP3   OH249161   2.844   1.801  16.011  0.2180 -0.0729  0.2057
 9249TIP3    H149162   2.812   1.722  15.968 -0.1583 -0.0232  0.3938
 9249TIP3    H249163   2.935   1.781  16.032  0.1103 -0.4773  0.3023
 9250TIP3   OH249164   2.728   5.767  11.717 -0.4407 -0.1054 -0.0630
 9250TIP3    H149165   2.710   5.732  11.631  0.6720 -1.3298  0.1720
 9250TIP3    H249166   2.812   5.728  11.742 -0.7718  0.1654  1.5986
 9251TIP3   OH249167   4.705   0.995  10.580  0.1485 -0.7235  0.3589
 9251TIP3    H149168   4.699   0.901  10.562 -2.1512 -0.7761  1.0623
 9251TIP3    H249169   4.746   1.000  10.667 -0.6607 -1.1365  0.7678
 9252TIP3   OH249170   4.468   0.797   4.570 -0.5422 -0.1486  0.5458
 9252TIP3    H149171   4.466   0.706   4.602  0.1529  0.0207  1.0823
 9252TIP3    H249172   4.376   0.821   4.563 -0.8732 -1.7146 -2.0040
 9253TIP3   OH249173   1.633   2.939  16.947  0.5938  0.1505 -0.1090
 9253TIP3    H149174   1.705   2.877  16.939  0.7293  0.2662  0.1816
 9253TIP3    H249175   1.675   3.022  16.969  0.5053  0.6157 -1.6104
 9254TIP3   OH249176   0.944   1.890  12.446 -0.1583  0.2226 -0.9960
 9254TIP3    H149177   0.945   1.794  12.453  5.1076 -0.4277 -4.7642
 9254TIP3    H249178   1.007   1.919  12.511 -0.6496  0.9961 -0.8615
 9255TIP3   OH249179   6.569   1.785  12.390  0.2982  0.0387  0.5691
 9255TIP3    H149180   6.583   1.878  12.407 -1.0096  0.4030 -0.1504
 9255TIP3    H249181   6.480   1.781  12.354  0.8207 -1.3355 -0.6482
 9256TIP3   OH249182   3.380   5.024   0.688  0.2963 -0.1715 -0.0979
 9256TIP3    H149183   3.460   5.004   0.736  0.4034 -0.5453 -0.4323
 9256TIP3    H249184   3.322   5.063   0.754  0.4810 -0.5826  0.3128
 9257TIP3   OH249185   3.542   1.324  12.155 -0.7119 -0.8966  0.2927
 9257TIP3    H149186   3.584   1.244  12.124  1.0384 -0.1937  0.7111
 9257TIP3    H249187   3.544   1.383  12.080 -0.2082 -0.5980  0.5335
 9258TIP3   OH249188   1.842   2.925   2.841  0.1762 -0.3339 -0.2127
 9258TIP3    H149189   1.773   2.985   2.811  0.1997  0.1418  0.6587
 9258TIP3    H249190   1.904   2.922   2.768  0.4520  1.1326 -0.0612
 9259TIP3   OH249191   4.270   0.128   5.127  0.1536  0.4803 -0.0844
 9259TIP3    H149192   4.272   0.120   5.222 -2.5027 -0.9136 -0.0423
 9259TIP3    H249193   4.188   0.084   5.101  0.7079  0.9595 -2.9928
 9260TIP3   OH249194   2.010   6.217  10.137 -0.1341  0.3407 -0.2479
 9260TIP3    H149195   1.918   6.240  10.120 -0.1013 -0.1402 -1.1349
 9260TIP3    H249196   2.010   6.185  10.227 -0.6098  1.5237  0.1883
 9261TIP3   OH249197   5.868   5.896  11.939  0.1298  0.1646 -0.3246
 9261TIP3    H149198   5.907   5.871  12.022 -0.3711  0.1960 -0.0766
 9261TIP3    H249199   5.851   5.813  11.894  2.1204  0.1765 -1.2241
 9262TIP3   OH249200   6.209   2.699  13.103  0.1436 -0.2476  0.4880
 9262TIP3    H149201   6.130   2.750  13.085 -0.0891 -0.6476  0.3612
 9262TIP3    H249202   6.210   2.633  13.034 -1.7543 -2.9960  2.8438
 9263TIP3   OH249203   1.818   0.601   1.176  0.3449 -0.4094  0.6615
 9263TIP3    H149204   1.910   0.583   1.157 -0.3332 -1.5481 -2.0627
 9263TIP3    H249205   1.778   0.514   1.187 -0.4231  0.0717  1.9648
 9264TIP3   OH249206   4.991   2.922   0.723  0.4921  0.2176 -0.0669
 9264TIP3    H149207   4.982   3.015   0.742 -1.5616 -0.2482  1.5663
 9264TIP3    H249208   5.029   2.885   0.802 -0.5856 -0.5886  0.1021
 9265TIP3   OH249209   2.512   3.352  13.371  0.2265  0.0280  0.2689
 9265TIP3    H149210   2.472   3.430  13.409 -0.4936  1.6802 -3.4367
 9265TIP3    H249211   2.606   3.361  13.391  0.1438  1.8433  0.0044
 9266TIP3   OH249212   0.824   3.907   6.169 -0.0641 -0.4361 -0.1397
 9266TIP3    H149213   0.759   3.879   6.234 -0.0347  0.7878  0.4641
 9266TIP3    H249214   0.867   3.827   6.142  1.3336 -0.8592  2.8956
 9267TIP3   OH249215   5.231   5.172   0.371  0.1349  0.1930  0.2760
 9267TIP3    H149216   5.235   5.151   0.464 -0.8077  0.2657  0.3398
 9267TIP3    H249217   5.240   5.267   0.367  0.4871  0.1615  0.2646
 9268TIP3   OH249218   4.547   6.137  17.194 -0.1786  0.3048  0.0375
 9268TIP3    H149219   4.527   6.119  17.286  0.5386 -0.2320  0.0899
 9268TIP3    H249220   4.470   6.106  17.146 -0.6490  0.7863  0.4627
 9269TIP3   OH249221   1.076   0.096   3.517  0.1398  0.1136  0.0786
 9269TIP3    H149222   1.039   0.040   3.448  1.2870 -0.2285 -0.2946
 9269TIP3    H249223   1.010   0.163   3.532 -0.0261  0.3606 -1.5692
 9270TIP3   OH249224   0.297   5.647  14.434 -0.1809 -0.1812 -0.1944
 9270TIP3    H149225   0.328   5.617  14.520 -1.2248  2.0769  1.0668
 9270TIP3    H249226   0.202   5.644  14.441 -0.2740  0.3224 -1.1750
 9271TIP3   OH249227   2.248   2.854  13.385 -0.7059 -0.1792  0.0658
 9271TIP3    H149228   2.210   2.787  13.328  3.2204 -2.4293 -0.2700
 9271TIP3    H249229   2.173   2.895  13.428 -3.5260 -2.2914 -2.4274
 9272TIP3   OH249230   5.843   2.624  11.314 -0.6686  0.1818  0.0423
 9272TIP3    H149231   5.885   2.618  11.228 -0.6852  0.4298  0.0170
 9272TIP3    H249232   5.792   2.705  11.311 -0.4002  0.3681  0.4031
 9273TIP3   OH249233   6.677   1.022  11.902 -0.1807  0.2664 -0.2053
 9273TIP3    H149234   6.642   0.984  11.821  0.5802  2.8292 -1.8638
 9273TIP3    H249235   6.661   1.116  11.892  0.3751  0.7033  2.4511
 9274TIP3   OH249236   1.541   2.823   3.230  0.2193  0.8926 -0.0162
 9274TIP3    H149237   1.564   2.916   3.218 -0.2344  0.9489 -0.4989
 9274TIP3    H249238   1.569   2.781   3.149  0.4562  0.5953  0.2177
 9275TIP3   OH249239   3.173   6.442  12.253  0.5346  0.1737 -0.1839
 9275TIP3    H149240   3.084   6.460  12.283 -0.8402 -2.6998 -2.1164
 9275TIP3    H249241   3.181   6.489  12.170  0.2927 -0.5881 -0.6541
 9276TIP3   OH249242   2.828   5.170   5.117 -0.0967 -0.4819 -0.0614
 9276TIP3    H149243   2.782   5.224   5.182 -0.2105 -0.2514 -0.3333
 9276TIP3    H249244   2.888   5.117   5.169 -0.5393 -0.6550  0.2810
 9277TIP3   OH249245   3.705   6.059   5.622  0.0851  0.4162  0.3763
 9277TIP3    H149246   3.752   6.057   5.539  1.3304 -0.6041  1.0734
 9277TIP3    H249247   3.773   6.055   5.688 -0.9106  0.8179  1.4621
 9278TIP3   OH249248   4.706   0.437  16.244 -0.0185 -0.0402  0.1167
 9278TIP3    H149249   4.635   0.385  16.205  1.7642 -0.6612 -2.5575
 9278TIP3    H249250   4.687   0.527  16.218 -2.1601  0.5685  3.2751
 9279TIP3   OH249251   1.568   1.979   4.032  0.0908  0.3624  0.1488
 9279TIP3    H149252   1.613   1.897   4.011 -0.4208  0.3787 -1.1123
 9279TIP3    H249253   1.542   2.014   3.947  1.8454  2.7521  0.4959
 9280TIP3   OH249254   4.661   6.123  16.913 -0.8641 -1.0177 -0.0930
 9280TIP3    H149255   4.633   6.032  16.903 -1.5573 -0.9908  1.2781
 9280TIP3    H249256   4.704   6.125  16.999  3.1133 -0.9588 -1.8633
 9281TIP3   OH249257   6.367   4.592   4.830  0.1728 -0.3654  0.1588
 9281TIP3    H149258   6.301   4.614   4.764 -0.3103  0.2777  0.8371
 9281TIP3    H249259   6.450   4.608   4.787 -0.1208 -0.6207 -0.5185
 9282TIP3   OH249260   3.344   2.297  15.191 -0.7074  0.3056  0.1872
 9282TIP3    H149261   3.355   2.245  15.111  0.7044 -2.8651  2.2303
 9282TIP3    H249262   3.254   2.280  15.219 -0.7195  0.1860  0.0763
 9283TIP3   OH249263   3.285   4.504   5.579  0.4282  0.2665  0.0200
 9283TIP3    H149264   3.280   4.416   5.616  0.0486 -0.2417 -1.1580
 9283TIP3    H249265   3.306   4.561   5.653 -1.4952 -0.5049  1.2403
 9284TIP3   OH249266   5.038   5.243   1.957  0.5903  0.1503  0.4783
 9284TIP3    H149267   5.092   5.278   2.028  1.6905 -1.2324  0.3829
 9284TIP3    H249268   5.100   5.198   1.900 -0.2870  1.1591 -1.3389
 9285TIP3   OH249269   6.510   1.887  15.927  0.3538 -0.5311 -0.1459
 9285TIP3    H149270   6.553   1.813  15.969 -1.7661 -1.1149  1.1815
 9285TIP3    H249271   6.463   1.849  15.852  3.8798  0.4630 -3.1485
 9286TIP3   OH249272   5.854   1.699   2.511 -0.1232 -0.6849 -0.2747
 9286TIP3    H149273   5.853   1.772   2.449  1.6433 -0.7628 -0.4547
 9286TIP3    H249274   5.858   1.621   2.456  2.0911 -0.7363 -0.1546
 9287TIP3   OH249275   3.462   5.764  15.286  0.2744 -0.3110 -0.0194
 9287TIP3    H149276   3.542   5.815  15.296  0.2692 -0.4607  0.8385
 9287TIP3    H249277   3.418   5.771  15.371 -0.9310  0.2855 -0.6705
 9288TIP3   OH249278   4.245   2.755   2.628  0.3201  0.2456 -0.4424
 9288TIP3    H149279   4.253   2.845   2.596 -2.8030  0.2281 -1.6391
 9288TIP3    H249280   4.187   2.761   2.703 -1.9692 -0.8914 -1.9829
 9289TIP3   OH249281   2.623   3.549  15.447  0.4925 -0.3834  0.6942
 9289TIP3    H149282   2.707   3.587  15.420  0.1286  1.2959  1.7347
 9289TIP3    H249283   2.561   3.621  15.437 -0.9359 -1.7293 -0.4939
 9290TIP3   OH249284   1.893   0.025  12.027 -0.4579  0.1506  0.2859
 9290TIP3    H149285   1.860   0.088  11.963  1.1097  0.1124 -0.6256
 9290TIP3    H249286   1.855   0.052  12.110 -3.1849 -0.2529 -0.7385
 9291TIP3   OH249287   6.043   3.222   4.117  0.2761 -0.0264  0.1980
 9291TIP3    H149288   6.014   3.313   4.109  1.3431  0.2940 -0.3535
 9291TIP3    H249289   5.976   3.179   4.170 -0.5440  0.9415 -0.0224
 9292TIP3   OH249290   4.695   0.906   3.282 -0.1546 -0.4396  0.3816
 9292TIP3    H149291   4.704   0.844   3.354  1.1900 -0.2603  0.3988
 9292TIP3    H249292   4.608   0.944   3.294 -0.6030 -1.6021  0.9383
 9293TIP3   OH249293   4.472   4.059   3.190  0.6486 -0.0325 -0.2881
 9293TIP3    H149294   4.428   3.978   3.165  1.8753 -1.2100  1.2093
 9293TIP3    H249295   4.447   4.122   3.122 -2.8525 -0.7533  0.1574
 9294TIP3   OH249296   1.057   1.163  15.468 -0.1102 -0.3389  0.1105
 9294TIP3    H149297   1.039   1.096  15.534  0.5340 -0.5568  0.0752
 9294TIP3    H249298   0.971   1.195  15.443 -0.4884 -1.6610 -0.3956
 9295TIP3   OH249299   2.590   1.684   3.999  0.5413 -0.0505 -0.2010
 9295TIP3    H149300   2.668   1.727   4.032 -0.6260  0.2742  2.3381
 9295TIP3    H249301   2.607   1.590   4.009  0.7624  0.0043 -0.0683
 9296TIP3   OH249302   4.217   6.101  14.683 -0.0217 -0.5824  0.3712
 9296TIP3    H149303   4.219   6.189  14.720  1.7558  0.3574 -1.7122
 9296TIP3    H249304   4.309   6.078  14.671 -0.4738 -1.8603 -0.9944
 9297TIP3   OH249305   4.314   5.637   2.776 -0.2113  0.1825  0.1301
 9297TIP3    H149306   4.366   5.710   2.741  0.2955 -0.1418  0.1880
 9297TIP3    H249307   4.319   5.647   2.871 -0.5359  0.3408  0.1316
 9298TIP3   OH249308   2.780   2.388   2.774  0.6505 -0.6727 -0.6639
 9298TIP3    H149309   2.874   2.378   2.791  0.8102 -1.4003 -1.8439
 9298TIP3    H249310   2.740   2.309   2.811  0.4938 -0.3469 -0.1322
 9299TIP3   OH249311   0.194   2.575   5.619 -0.1260 -0.1509  0.3889
 9299TIP3    H149312   0.215   2.499   5.674  0.3978 -0.4743 -0.2492
 9299TIP3    H249313   0.170   2.644   5.682  1.0690 -0.3240  1.0692
 9300TIP3   OH249314   2.442   5.518  13.494  0.1163 -0.1638  0.1608
 9300TIP3    H149315   2.473   5.591  13.441 -0.1132 -0.9723 -1.1149
 9300TIP3    H249316   2.462   5.440  13.443 -2.4131 -0.8260  0.0366
 9301TIP3   OH249317   2.761   2.339   4.335 -0.0324  0.5731 -0.2779
 9301TIP3    H149318   2.770   2.434   4.327 -2.2381  0.7199 -2.3804
 9301TIP3    H249319   2.687   2.318   4.278 -0.0233 -2.3479  0.6478
 9302TIP3   OH249320   3.565   4.837  15.128  0.5510  0.0881 -0.2767
 9302TIP3    H149321   3.474   4.861  15.112  0.1642  0.9517  2.5803
 9302TIP3    H249322   3.564   4.742  15.136 -0.1846  0.1155  0.0369
 9303TIP3   OH249323   4.293   5.014  10.886  0.0187 -0.1848 -0.2556
 9303TIP3    H149324   4.339   5.005  10.802  0.3856 -0.9775  0.0198
 9303TIP3    H249325   4.264   4.926  10.907  1.2322 -0.2770  1.1708
 9304TIP3   OH249326   2.535   0.738  13.784 -0.2827  1.2285 -0.3097
 9304TIP3    H149327   2.478   0.775  13.716 -0.0639  0.3023 -1.0068
 9304TIP3    H249328   2.558   0.651  13.753  2.2535  1.8658 -0.5058
 9305TIP3   OH249329   1.839   2.745  16.890 -0.2280  0.0736 -0.0175
 9305TIP3    H149330   1.894   2.789  16.826 -0.4577  0.0091 -0.2607
 9305TIP3    H249331   1.883   2.661  16.906  0.3803  0.5180  0.6882
 9306TIP3   OH249332   0.995   0.607  11.675 -0.5033  0.5757 -0.6897
 9306TIP3    H149333   1.070   0.616  11.617 -1.7836  2.3054 -2.2366
 9306TIP3    H249334   0.988   0.692  11.719 -0.8546  0.0285  0.3472
 9307TIP3   OH249335   1.770   5.072  10.924 -0.5616  0.5011  0.1427
 9307TIP3    H149336   1.820   5.153  10.925  0.9648 -0.3281 -1.9087
 9307TIP3    H249337   1.761   5.048  11.016  1.4383  1.5207  0.6595
 9308TIP3   OH249338   2.562   6.619   3.304  0.0091  0.1182 -0.1606
 9308TIP3    H149339   2.567   6.563   3.227  0.7270  2.2590 -1.7695
 9308TIP3    H249340   2.624   6.580   3.366  0.7420 -0.6789 -1.3614
 9309TIP3   OH249341   2.695   6.210  13.434 -0.5451 -0.4694 -0.7207
 9309TIP3    H149342   2.746   6.254  13.366 -0.8034 -0.0695 -0.6601
 9309TIP3    H249343   2.726   6.250  13.516  0.1357 -1.3146 -0.5534
 9310TIP3   OH249344   5.648   6.696  16.842  0.2228  0.2704 -0.1321
 9310TIP3    H149345   5.578   6.740  16.890  0.2455 -0.8239  0.9576
 9310TIP3    H249346   5.603   6.631  16.787  0.3767 -0.8832  1.0538
 9311TIP3   OH249347   4.267   3.722  13.770  0.0917 -0.0946 -0.0998
 9311TIP3    H149348   4.357   3.719  13.738  0.3932  0.5892  0.6641
 9311TIP3    H249349   4.227   3.641  13.736  0.9470 -0.3376 -0.5551
 9312TIP3   OH249350   4.514   6.028   3.579 -0.2438 -0.2454  0.7007
 9312TIP3    H149351   4.461   5.949   3.587 -1.6523  0.6711  0.8153
 9312TIP3    H249352   4.451   6.097   3.559  0.6155  1.2976  2.9331
 9313TIP3   OH249353   1.398   0.584  12.388 -0.3716 -0.2073  0.2648
 9313TIP3    H149354   1.351   0.543  12.460 -0.2018 -0.6040  0.1541
 9313TIP3    H249355   1.347   0.561  12.310 -0.6310  0.3369  0.2726
 9314TIP3   OH249356   6.024   3.273  17.018 -0.5833  0.0908 -0.4205
 9314TIP3    H149357   6.016   3.342  16.953  3.2286  1.7938  0.6676
 9314TIP3    H249358   5.993   3.314  17.100  0.4198  0.0756 -0.0272
 9315TIP3   OH249359   6.466   2.842  15.699  0.3755  0.2263 -0.1766
 9315TIP3    H149360   6.404   2.913  15.714  0.4978  0.5536 -1.1551
 9315TIP3    H249361   6.472   2.798  15.783  0.2669  1.3442  0.4337
 9316TIP3   OH249362   3.259   0.928  15.129 -0.3272 -0.1366 -0.6199
 9316TIP3    H149363   3.260   0.913  15.034  0.6336 -0.2005 -0.6076
 9316TIP3    H249364   3.199   0.861  15.163 -1.3968  0.4528 -1.2589
 9317TIP3   OH249365   4.812   5.060   4.972 -0.2515 -0.1902 -0.0336
 9317TIP3    H149366   4.757   5.137   4.956  0.9047  0.2668 -2.1849
 9317TIP3    H249367   4.869   5.087   5.045 -1.4067  0.1090  0.7820
 9318TIP3   OH249368   0.711   3.771   1.911 -0.4332 -0.0055 -0.0650
 9318TIP3    H149369   0.699   3.850   1.858 -0.1818 -0.7028 -1.1773
 9318TIP3    H249370   0.799   3.780   1.948  0.5196 -0.8148 -2.0285
 9319TIP3   OH249371   0.643   6.573  12.463  0.2857 -0.1527 -0.6445
 9319TIP3    H149372   0.622   6.539  12.550  0.0988  0.0199 -0.6227
 9319TIP3    H249373   0.738   6.567  12.458  0.3609  0.4612 -0.1691
 9320TIP3   OH249374   5.066   6.176   1.231  0.0412  0.2213  0.1630
 9320TIP3    H149375   5.000   6.186   1.163 -0.9783 -1.6115  0.8286
 9320TIP3    H249376   5.074   6.263   1.270 -0.5384  0.9119 -1.2066
 9321TIP3   OH249377   1.581   2.880  12.869  0.0822  0.2091 -0.0014
 9321TIP3    H149378   1.664   2.831  12.871 -0.6008 -0.9959 -0.0786
 9321TIP3    H249379   1.602   2.960  12.822  1.4603  0.4211  0.9113
 9322TIP3   OH249380   5.148   1.265   0.066 -0.2452  0.5400 -0.0020
 9322TIP3    H149381   5.169   1.174   0.043 -0.6130  0.4874 -0.1317
 9322TIP3    H249382   5.231   1.302   0.096  0.8360  1.2193 -3.3239
 9323TIP3   OH249383   5.881   5.508  12.434  0.1742 -0.0240  0.4620
 9323TIP3    H149384   5.849   5.444  12.370 -0.0766  1.5008 -1.0330
 9323TIP3    H249385   5.907   5.456  12.510  0.0840 -1.8842 -0.7174
 9324TIP3   OH249386   5.511   3.972   6.096  0.1196  0.0448  0.1761
 9324TIP3    H149387   5.439   3.910   6.088 -1.0723  1.5735 -1.8138
 9324TIP3    H249388   5.521   3.986   6.190 -2.4810  0.0710  0.5110
 9325TIP3   OH249389   1.324   4.901  14.533 -0.8774  0.6857 -0.0513
 9325TIP3    H149390   1.294   4.854  14.611  1.3615  0.0373  0.5029
 9325TIP3    H249391   1.286   4.853  14.460 -0.9107 -0.2985  0.5877
 9326TIP3   OH249392   2.283   2.836   2.586  0.2650  0.8866  0.1578
 9326TIP3    H149393   2.297   2.902   2.518  0.5342  1.0978  0.4184
 9326TIP3    H249394   2.296   2.752   2.541 -0.6104  0.9794 -0.3017
 9327TIP3   OH249395   3.655   5.706  11.891  0.0806 -0.5851 -0.0810
 9327TIP3    H149396   3.600   5.784  11.882 -0.7331 -1.1975 -0.6541
 9327TIP3    H249397   3.745   5.739  11.894 -0.2698  0.3805 -0.0858
 9328TIP3   OH249398   3.768   0.004   3.747 -0.6519 -0.2519 -0.2573
 9328TIP3    H149399   3.746  -0.085   3.775 -0.3298  0.1830  1.4965
 9328TIP3    H249400   3.683   0.046   3.733 -0.8130 -0.6983 -0.6194
 9329TIP3   OH249401   2.902   3.660  15.414  0.1923 -0.8127  0.0793
 9329TIP3    H149402   2.914   3.718  15.489 -0.2416  1.5998 -1.6000
 9329TIP3    H249403   2.951   3.702  15.343 -0.4813 -2.3037 -1.3324
 9330TIP3   OH249404   3.954   6.296  15.530  0.5107  0.2117 -0.0705
 9330TIP3    H149405   3.889   6.320  15.464  1.0624 -2.2647 -1.6042
 9330TIP3    H249406   4.007   6.375  15.540 -1.5148  1.6659 -0.1896
 9331TIP3   OH249407   6.742   2.770   2.547  0.1832  0.0124  0.0690
 9331TIP3    H149408   6.679   2.803   2.483  0.3475  3.1847  1.3484
 9331TIP3    H249409   6.816   2.739   2.495 -1.4881 -1.7715 -1.3712
 9332TIP3   OH249410   1.688   3.456   2.659 -0.1033  0.8040 -0.0265
 9332TIP3    H149411   1.737   3.490   2.733  0.6347  0.7508 -0.4800
 9332TIP3    H249412   1.663   3.534   2.609  2.9498  0.7324 -1.9287
 9333TIP3   OH249413   5.965   6.207  14.576  0.5563 -0.3548 -0.0135
 9333TIP3    H149414   5.979   6.234  14.486 -0.9244 -0.0215 -0.1665
 9333TIP3    H249415   6.043   6.156  14.599  0.8554 -0.6087 -1.5317
 9334TIP3   OH249416   2.051   6.764   3.131 -0.1866  0.4322 -0.2543
 9334TIP3    H149417   2.025   6.733   3.044 -0.4419 -2.4023  0.7205
 9334TIP3    H249418   2.147   6.763   3.129 -0.1436 -1.7672  0.0807
 9335TIP3   OH249419   0.163   1.220   0.722  0.3521 -0.1337  0.0003
 9335TIP3    H149420   0.113   1.200   0.801 -0.2875 -1.3534 -0.6930
 9335TIP3    H249421   0.098   1.224   0.652  1.1450 -1.3127 -0.8467
 9336TIP3   OH249422   6.326   3.072   3.085 -0.3472 -0.3093 -0.4064
 9336TIP3    H149423   6.354   3.071   3.177 -0.1312  0.6285 -0.4518
 9336TIP3    H249424   6.273   2.993   3.075  0.1134 -0.7299  0.3707
 9337TIP3   OH249425   1.863   6.526  14.159 -0.0027 -0.1398 -0.5065
 9337TIP3    H149426   1.851   6.470  14.082 -0.3970 -1.0785  0.2262
 9337TIP3    H249427   1.890   6.611  14.122  1.3825 -0.9984 -1.6130
 9338TIP3   OH249428   2.649   6.262  15.638  0.2885 -0.1113 -0.3788
 9338TIP3    H149429   2.719   6.324  15.657  2.7778 -2.4602 -1.1890
 9338TIP3    H249430   2.614   6.290  15.554  2.2023 -0.3596 -1.3339
 9339TIP3   OH249431   3.633   4.021  15.847  0.3855  0.0082 -0.5003
 9339TIP3    H149432   3.576   3.991  15.776  1.3225 -2.1312 -0.4410
 9339TIP3    H249433   3.640   3.945  15.906  1.3767  1.0047  0.7254
 9340TIP3   OH249434   2.720   3.896  15.028  0.8061 -0.0695 -0.3477
 9340TIP3    H149435   2.706   3.803  15.045  0.3938  0.2970  1.5810
 9340TIP3    H249436   2.721   3.936  15.115 -0.9397  1.9932 -1.1815
 9341TIP3   OH249437   1.150   1.660   4.680  0.0300  0.4384 -0.0144
 9341TIP3    H149438   1.146   1.602   4.756  1.0014  0.0665 -0.2316
 9341TIP3    H249439   1.166   1.601   4.606 -2.5323  0.5907 -0.7917
 9342TIP3   OH249440   0.709   4.303  16.750 -0.0498 -0.4913 -0.4621
 9342TIP3    H149441   0.705   4.263  16.663  2.4416 -0.4645 -0.6527
 9342TIP3    H249442   0.717   4.229  16.810 -0.9399 -0.4654 -0.2843
 9343TIP3   OH249443   2.002   5.225   4.250  0.4586 -0.5547 -0.3608
 9343TIP3    H149444   1.998   5.176   4.333  2.3731  0.0288  0.1183
 9343TIP3    H249445   1.952   5.171   4.188 -0.9745 -1.0326  1.1315
 9344TIP3   OH249446   3.770   3.715   3.346  0.4385 -0.1538 -0.5604
 9344TIP3    H149447   3.843   3.729   3.286  1.2674  0.7501  0.5913
 9344TIP3    H249448   3.711   3.788   3.329  1.4847  1.0883  0.7984
 9345TIP3   OH249449   4.745   6.473   4.815 -0.5971  0.1142 -0.5610
 9345TIP3    H149450   4.726   6.380   4.802  0.5976 -0.2255  0.0165
 9345TIP3    H249451   4.711   6.491   4.903  1.6158 -0.4953  0.4753
 9346TIP3   OH249452   6.139   0.129  16.865  0.2050 -0.0692  0.0711
 9346TIP3    H149453   6.141   0.223  16.886 -0.7206 -0.1733  0.6441
 9346TIP3    H249454   6.048   0.104  16.874  0.5556 -1.1940  0.6495
 9347TIP3   OH249455   0.277   1.092   1.558  0.1276 -0.3629  0.6193
 9347TIP3    H149456   0.247   1.021   1.615 -0.2727 -1.0924 -0.4694
 9347TIP3    H249457   0.368   1.106   1.583 -0.6051  0.8501  2.9407
 9348TIP3   OH249458   1.731   5.993   0.483  0.2542 -0.0676 -0.0088
 9348TIP3    H149459   1.655   5.934   0.482  0.5194 -0.4120  0.0413
 9348TIP3    H249460   1.786   5.960   0.554  0.0797  0.6550  0.4708
 9349TIP3   OH249461   5.524   0.295   1.100  0.0284 -0.4124  0.8356
 9349TIP3    H149462   5.473   0.370   1.068 -0.0006 -0.0717  1.6373
 9349TIP3    H249463   5.550   0.248   1.022 -1.4979 -0.5765  0.3906
 9350TIP3   OH249464   5.938   1.534   6.634  0.9273  0.2931  0.3774
 9350TIP3    H149465   5.980   1.452   6.608 -1.3163 -0.7576 -0.1386
 9350TIP3    H249466   5.869   1.547   6.569 -0.3005  1.3248  1.8332
 9351TIP3   OH249467   2.041   2.556   0.914  0.6175  0.3722  0.1113
 9351TIP3    H149468   2.094   2.535   0.991  1.8381  0.9375 -0.5493
 9351TIP3    H249469   2.054   2.649   0.900  1.1555  0.1165 -1.3029
 9352TIP3   OH249470   2.284   3.096  14.840 -0.3444 -0.7611 -0.4300
 9352TIP3    H149471   2.228   3.056  14.907 -0.6662 -0.0449 -0.2626
 9352TIP3    H249472   2.306   3.024  14.782 -0.4746 -1.2939  0.1659
 9353TIP3   OH249473   6.327   0.682   2.503 -0.3559 -0.4579  0.6408
 9353TIP3    H149474   6.340   0.734   2.583 -0.6315 -2.4548  2.0531
 9353TIP3    H249475   6.265   0.614   2.528 -1.1033 -0.6658 -1.5463
 9354TIP3   OH249476   4.242   2.736  16.914 -0.1569 -0.5472  0.1472
 9354TIP3    H149477   4.201   2.735  17.001 -1.6719  1.9087 -0.4566
 9354TIP3    H249478   4.282   2.822  16.908 -0.1547 -0.6455 -1.6239
 9355TIP3   OH249479   3.811   5.446   0.243  0.6282 -0.0448 -0.5401
 9355TIP3    H149480   3.823   5.356   0.272  3.3151  0.5843  0.6179
 9355TIP3    H249481   3.767   5.438   0.158 -0.8438 -2.3055  0.3505
 9356TIP3   OH249482   0.810   5.457  12.992 -0.1236 -0.1376  0.3497
 9356TIP3    H149483   0.809   5.494  12.904 -1.7187 -2.0857 -0.5373
 9356TIP3    H249484   0.889   5.493  13.033 -0.0865  1.8760 -1.3823
 9357TIP3   OH249485   4.376   4.467  10.121 -0.6146  0.3030  0.0242
 9357TIP3    H149486   4.384   4.561  10.134  0.6113  0.2196 -0.0142
 9357TIP3    H249487   4.342   4.434  10.205  0.9015  0.5606  0.7718
 9358TIP3   OH249488   3.037   5.827   1.968 -0.1751 -0.2335 -0.1020
 9358TIP3    H149489   2.963   5.817   1.908 -1.3442  1.0123  1.0794
 9358TIP3    H249490   3.013   5.776   2.045  0.5120 -0.3471  0.0490
 9359TIP3   OH249491   2.467   0.273   3.764  0.2556 -0.4897 -0.2436
 9359TIP3    H149492   2.536   0.278   3.698  1.2772 -0.9821  0.7801
 9359TIP3    H249493   2.394   0.322   3.725  1.1425 -0.0216 -1.3603
 9360TIP3   OH249494   3.683   3.250   4.565 -0.1083  0.2229  0.2499
 9360TIP3    H149495   3.678   3.334   4.518 -0.6582 -0.1319 -0.3337
 9360TIP3    H249496   3.594   3.216   4.563  0.3896 -1.1108 -0.8863
 9361TIP3   OH249497   3.369   4.873  13.745  0.2076 -0.4280 -0.6001
 9361TIP3    H149498   3.426   4.797  13.739  1.3947  0.4848 -1.3599
 9361TIP3    H249499   3.299   4.846  13.806  1.1654 -1.7401 -0.0362
 9362TIP3   OH249500   4.399   2.912   0.423 -0.8520 -0.1227  0.3196
 9362TIP3    H149501   4.421   2.964   0.500  3.0121  0.4809 -0.9796
 9362TIP3    H249502   4.409   2.821   0.452  0.3899  0.0948  0.6141
 9363TIP3   OH249503   1.749   1.606  12.610  0.0873 -0.2354  0.2597
 9363TIP3    H149504   1.777   1.604  12.701 -0.7124 -0.7739  0.5051
 9363TIP3    H249505   1.716   1.518  12.593 -0.3835  0.0495 -0.3488
 9364TIP3   OH249506   3.396   2.855   2.985 -0.0462 -0.4000 -0.0558
 9364TIP3    H149507   3.418   2.948   2.984 -1.6755  0.0092 -0.8414
 9364TIP3    H249508   3.406   2.828   2.893  1.5691 -1.3184  0.3543
 9365TIP3   OH249509   3.905   0.106  17.162  0.6899  0.1210  0.4979
 9365TIP3    H149510   3.893   0.088  17.069  0.5711  0.9865  0.3420
 9365TIP3    H249511   3.997   0.133  17.169  0.4160  1.0999  0.4534
 9366TIP3   OH249512   4.601   0.153   4.478  0.4166  0.1066 -0.4886
 9366TIP3    H149513   4.616   0.242   4.447  0.6963  0.1913 -0.1145
 9366TIP3    H249514   4.521   0.159   4.531 -1.3113 -0.4376 -2.8865
 9367TIP3   OH249515   2.521   4.676   0.102  0.1226  0.2760 -0.2073
 9367TIP3    H149516   2.576   4.681   0.180 -0.5400 -0.5708  0.3492
 9367TIP3    H249517   2.524   4.763   0.064 -0.4606  1.0653  1.4300
 9368TIP3   OH249518   1.820   5.509   3.857 -0.6249  0.2067 -0.0315
 9368TIP3    H149519   1.837   5.601   3.838  0.3183  0.2586  0.9796
 9368TIP3    H249520   1.807   5.469   3.771  1.5958  0.7974 -0.7190
 9369TIP3   OH249521   2.009   2.741  11.867  0.0731  0.3298  0.0669
 9369TIP3    H149522   2.058   2.735  11.949 -0.8221 -1.0921  0.5240
 9369TIP3    H249523   2.054   2.682  11.807  0.2476  0.7607 -0.2402
 9370TIP3   OH249524   0.996   4.135   2.639  0.1215 -0.1007 -0.2941
 9370TIP3    H149525   1.034   4.053   2.606  0.8582 -0.4773  1.3794
 9370TIP3    H249526   0.994   4.193   2.563  0.9575 -1.1878 -1.1808
 9371TIP3   OH249527   5.096   5.710   3.552  0.2100 -0.0398  0.4301
 9371TIP3    H149528   5.058   5.780   3.500 -0.8263 -0.5150  0.5107
 9371TIP3    H249529   5.172   5.681   3.502  1.2558  1.7897  0.8864
 9372TIP3   OH249530   0.933   5.966  12.490 -0.4886 -0.0456  0.3715
 9372TIP3    H149531   1.026   5.959  12.469 -0.4546 -2.2098  0.9770
 9372TIP3    H249532   0.903   6.041  12.439  1.2529 -0.2745 -1.1162
 9373TIP3   OH249533   0.687   0.655   5.701 -0.0516 -0.3184  0.1869
 9373TIP3    H149534   0.753   0.687   5.639 -0.2511  0.5964  0.4337
 9373TIP3    H249535   0.604   0.668   5.656 -0.1444 -0.3381  0.3521
 9374TIP3   OH249536   3.310   5.205  16.168 -0.0694  0.0835 -0.3662
 9374TIP3    H149537   3.385   5.237  16.217  0.3973 -0.2185 -0.8743
 9374TIP3    H249538   3.282   5.279  16.115  0.7042 -0.1946 -1.1751
 9375TIP3   OH249539   0.082   0.905   3.672  0.1306  0.4362 -0.6710
 9375TIP3    H149540   0.144   0.855   3.725 -1.5423  0.7083  1.6760
 9375TIP3    H249541   0.112   0.996   3.679  1.0652  0.2549 -1.9330
 9376TIP3   OH249542   4.695   5.653  16.733  0.2512 -0.2071 -0.2822
 9376TIP3    H149543   4.708   5.582  16.796  0.7702  0.4468  0.3540
 9376TIP3    H249544   4.600   5.664  16.729  0.2425  0.6523  1.4271
 9377TIP3   OH249545   5.148   3.010  12.863  0.2920  0.5351 -0.5474
 9377TIP3    H149546   5.210   2.981  12.796  2.4755 -0.7733  1.8384
 9377TIP3    H249547   5.065   2.971  12.839  0.6253  1.2854 -3.1945
 9378TIP3   OH249548   3.061   2.545  12.277  0.3042  0.0472  0.1284
 9378TIP3    H149549   3.060   2.582  12.189  0.9496 -1.2472 -0.4438
 9378TIP3    H249550   3.152   2.550  12.305  0.7358 -2.4943 -0.6061
 9379TIP3   OH249551   1.782   0.014   4.502  0.3483 -0.0346 -0.5677
 9379TIP3    H149552   1.754  -0.046   4.571  0.4659  0.3281 -0.1970
 9379TIP3    H249553   1.734  -0.014   4.424 -1.4442  0.8570  0.1486
 9380TIP3   OH249554   4.291   0.363   5.481 -0.3879  0.0467 -0.6810
 9380TIP3    H149555   4.315   0.403   5.564  1.2961  0.8912 -1.5174
 9380TIP3    H249556   4.239   0.429   5.436  0.8951  0.6684 -1.3256
 9381TIP3   OH249557   6.569   0.157   0.832  0.3966  0.2400  0.3567
 9381TIP3    H149558   6.606   0.202   0.909 -0.4030  1.0265  0.2950
 9381TIP3    H249559   6.511   0.222   0.793 -1.1767 -1.0225  0.5367
 9382TIP3   OH249560   3.675   1.581   1.911 -0.1490  0.3200  0.0178
 9382TIP3    H149561   3.749   1.641   1.900  0.1720 -0.0070  0.3485
 9382TIP3    H249562   3.695   1.533   1.991 -1.0285  0.6449  0.4426
 9383TIP3   OH249563   2.524   3.249   4.837  0.1521 -0.4653 -0.3968
 9383TIP3    H149564   2.496   3.281   4.751 -2.2814  1.1569  0.8765
 9383TIP3    H249565   2.460   3.182   4.860  2.0109 -2.4134 -0.6742
 9384TIP3   OH249566   5.734   1.951  11.194  0.2712  0.2400 -0.2167
 9384TIP3    H149567   5.754   1.881  11.256  3.1872  0.6729 -0.5245
 9384TIP3    H249568   5.812   1.959  11.140 -1.9377  0.2047 -3.7591
 9385TIP3   OH249569   1.426   2.170  11.556  0.2513  0.1157  0.0846
 9385TIP3    H149570   1.512   2.159  11.515  0.6722 -0.9933  1.1919
 9385TIP3    H249571   1.367   2.117  11.503  0.5521 -0.3507  0.2139
 9386TIP3   OH249572   6.127   0.368  13.994  0.0232  0.2547 -0.1759
 9386TIP3    H149573   6.182   0.343  13.920 -0.8723  0.5898 -0.9775
 9386TIP3    H249574   6.167   0.324  14.069  0.6456 -0.5232 -0.9359
 9387TIP3   OH249575   5.527   5.227   3.424  0.4396  0.1498 -0.1243
 9387TIP3    H149576   5.546   5.133   3.418  1.9890  0.4787 -0.9062
 9387TIP3    H249577   5.613   5.268   3.434 -0.2765  1.4424  1.1235
 9388TIP3   OH249578   1.793   0.533   1.783 -0.0478  0.2086  0.3690
 9388TIP3    H149579   1.881   0.558   1.755 -0.3987  0.5827 -0.4370
 9388TIP3    H249580   1.753   0.494   1.705 -0.4763 -0.2942  0.8286
 9389TIP3   OH249581   4.488   3.247   5.621  0.1082 -0.4220  0.3171
 9389TIP3    H149582   4.473   3.310   5.550  1.3977  2.0213  2.0545
 9389TIP3    H249583   4.405   3.243   5.668  0.3537  1.0998  0.9530
 9390TIP3   OH249584   6.208   5.568   1.471  0.0286 -0.2508 -0.0164
 9390TIP3    H149585   6.145   5.511   1.427 -0.5757  0.9919 -0.8193
 9390TIP3    H249586   6.203   5.543   1.563 -1.1738 -0.6191 -0.1617
 9391TIP3   OH249587   0.755   4.158  15.073  0.0149 -0.4151  0.2876
 9391TIP3    H149588   0.719   4.226  15.017  0.5098 -0.6649 -0.3475
 9391TIP3    H249589   0.827   4.202  15.120  0.5702 -0.5759 -0.3892
 9392TIP3   OH249590   5.180   6.719   6.423  0.4880 -0.4146  0.4000
 9392TIP3    H149591   5.149   6.682   6.506  1.6803  0.8928  1.4772
 9392TIP3    H249592   5.264   6.759   6.444  0.4632  0.6226 -1.2705
 9393TIP3   OH249593   6.448   4.292   2.673  0.0754  0.2452  0.2023
 9393TIP3    H149594   6.457   4.225   2.606  0.1927  1.0532 -0.6214
 9393TIP3    H249595   6.530   4.290   2.722  0.0524 -0.2423  0.2246
 9394TIP3   OH249596   6.197   4.676   2.093 -0.1240 -0.1970 -0.7758
 9394TIP3    H149597   6.147   4.708   2.168  1.1304  0.6626 -0.2806
 9394TIP3    H249598   6.217   4.585   2.114 -1.9813 -0.7846 -1.2792
 9395TIP3   OH249599   5.408   5.785  11.877 -0.3044 -0.0754 -0.3410
 9395TIP3    H149600   5.342   5.732  11.832 -0.8068 -0.2435  0.5557
 9395TIP3    H249601   5.390   5.771  11.970 -0.1539  1.3126 -0.0796
 9396TIP3   OH249602   4.494   4.201  12.273 -0.0211 -0.8360 -0.3739
 9396TIP3    H149603   4.495   4.220  12.367  0.8111 -2.5960  0.0131
 9396TIP3    H249604   4.447   4.119  12.265 -1.6124  0.1471 -1.7380
 9397TIP3   OH249605   4.031   0.001  11.265 -0.4252 -0.8154  0.2223
 9397TIP3    H149606   4.081   0.045  11.196 -1.4254  0.8148  0.4589
 9397TIP3    H249607   3.957  -0.039  11.219 -0.9660  0.0742  0.2958
 9398TIP3   OH249608   3.175   3.758  13.675 -0.6600  0.3660  0.1347
 9398TIP3    H149609   3.138   3.846  13.678 -0.0066  0.6204  1.7559
 9398TIP3    H249610   3.142   3.715  13.754  0.1602 -0.3640  0.0991
 9399TIP3   OH249611   5.648   2.157   2.764 -0.4836 -0.0132 -0.5997
 9399TIP3    H149612   5.696   2.081   2.731  0.0203  0.1766 -0.3175
 9399TIP3    H249613   5.637   2.214   2.688  0.9555  0.5732 -0.3934
 9400TIP3   OH249614   2.515   4.793   4.729  0.2797  0.2721 -0.1289
 9400TIP3    H149615   2.512   4.716   4.672 -0.6579  1.7548 -2.2274
 9400TIP3    H249616   2.578   4.770   4.797  1.0544 -1.8341 -1.4486
 9401TIP3   OH249617   4.395   2.639  14.190 -0.1668 -0.3903  0.1306
 9401TIP3    H149618   4.489   2.652  14.184 -0.2519  0.0212 -0.4039
 9401TIP3    H249619   4.369   2.686  14.270 -0.0489  0.3078 -0.2296
 9402TIP3   OH249620   0.403   0.623  17.102 -0.3417 -0.1486  0.1026
 9402TIP3    H149621   0.387   0.592  17.191  0.9875 -1.1868  0.0114
 9402TIP3    H249622   0.450   0.705  17.113  0.2980 -0.5487  0.3626
 9403TIP3   OH249623   1.251   0.159  16.477  0.3452 -0.1666  0.2861
 9403TIP3    H149624   1.217   0.106  16.549 -1.7199 -0.0780 -0.5695
 9403TIP3    H249625   1.176   0.172  16.419  1.1177  2.5524 -0.2356
 9404TIP3   OH249626   3.944   2.021  14.430 -0.7022  0.0715 -0.3980
 9404TIP3    H149627   3.886   2.002  14.356  0.1392 -0.0629 -1.0332
 9404TIP3    H249628   3.935   1.946  14.488 -1.0733 -0.0015 -0.5456
 9405TIP3   OH249629   2.783   3.688   0.827  0.0330  0.0561 -0.8977
 9405TIP3    H149630   2.868   3.713   0.863  1.4978  0.1088 -4.0517
 9405TIP3    H249631   2.736   3.771   0.819  0.7628  0.4174 -1.5857
 9406TIP3   OH249632   2.441   6.366  14.213  0.4939  0.0608 -0.0730
 9406TIP3    H149633   2.387   6.412  14.148  1.7432  0.5665 -0.7779
 9406TIP3    H249634   2.417   6.408  14.296 -1.3409 -0.7985 -0.1113
 9407TIP3   OH249635   1.830   6.339   1.416 -0.0650  0.8248  0.4466
 9407TIP3    H149636   1.755   6.397   1.424  0.0400  0.7309  2.5051
 9407TIP3    H249637   1.792   6.251   1.407 -0.2085  0.9030  0.2894
 9408TIP3   OH249638   1.152   2.894  13.663  0.0584 -0.4462 -0.1391
 9408TIP3    H149639   1.146   2.915  13.756  0.2322 -1.9121  0.2304
 9408TIP3    H249640   1.070   2.849  13.642  0.0353 -0.1644 -0.6892
 9409TIP3   OH249641   1.040   1.055  15.734 -0.0177 -0.1023 -0.1351
 9409TIP3    H149642   1.019   1.138  15.775  0.2617 -0.8062  1.4918
 9409TIP3    H249643   0.978   0.992  15.771  0.0076 -0.6997 -1.0629
 9410TIP3   OH249644   1.413   2.693  11.971 -0.3677 -0.3775 -0.6636
 9410TIP3    H149645   1.413   2.710  12.065 -0.0364 -0.1530 -0.7027
 9410TIP3    H249646   1.458   2.768  11.932 -0.2784 -0.5871 -0.9768
 9411TIP3   OH249647   1.478   0.950  14.765 -0.4728 -0.5975  0.0692
 9411TIP3    H149648   1.464   0.969  14.672  0.0955 -0.8930 -0.0791
 9411TIP3    H249649   1.389   0.938  14.800 -0.6636 -1.0943 -0.5664
 9412TIP3   OH249650   2.407   0.209   2.899  0.0256 -0.2285  0.3384
 9412TIP3    H149651   2.488   0.259   2.889 -0.5458  0.6130 -0.2138
 9412TIP3    H249652   2.349   0.266   2.950 -0.5875 -0.3841 -0.1685
 9413TIP3   OH249653   6.404   0.503   5.940 -0.4056  0.5291 -0.1307
 9413TIP3    H149654   6.332   0.566   5.941  0.2040  1.2378  0.9851
 9413TIP3    H249655   6.438   0.503   6.029 -0.5433 -1.5885 -0.0088
 9414TIP3   OH249656   1.964   3.520   5.904  0.2502  0.2055 -0.5523
 9414TIP3    H149657   2.031   3.574   5.945  0.9439 -0.2119 -1.1186
 9414TIP3    H249658   2.010   3.472   5.835 -0.2199 -1.4667  0.2295
 9415TIP3   OH249659   0.332   4.772  16.974 -0.6224 -0.0308 -0.1081
 9415TIP3    H149660   0.347   4.741  16.884  2.3638  0.6810  0.0490
 9415TIP3    H249661   0.344   4.694  17.028  2.0664  0.2826 -0.0888
 9416TIP3   OH249662   6.579   5.651  10.924  0.2165 -0.0740  0.2736
 9416TIP3    H149663   6.502   5.675  10.975 -1.6177 -1.0946 -1.8624
 9416TIP3    H249664   6.603   5.731  10.877  0.1993  0.1363  0.6211
 9417TIP3   OH249665   3.730   1.701   5.194 -0.0863 -0.2244  0.8265
 9417TIP3    H149666   3.701   1.623   5.146 -1.4358  1.3247 -1.0695
 9417TIP3    H249667   3.824   1.705   5.178  0.1738 -1.8723  1.6721
 9418TIP3   OH249668   6.084   1.413   5.173  0.2452  0.0695  0.1981
 9418TIP3    H149669   6.146   1.359   5.222  0.2665  0.0014  0.0957
 9418TIP3    H249670   6.031   1.351   5.124  0.8453  0.1744 -0.6074
 9419TIP3   OH249671   6.023   6.377   3.056 -0.5533 -0.2626  0.2110
 9419TIP3    H149672   5.935   6.412   3.066 -1.4080 -2.0856 -0.4313
 9419TIP3    H249673   6.011   6.295   3.008  1.5541 -0.3134 -0.3376
 9420TIP3   OH249674   4.730   4.965   4.711 -0.1566 -0.6034 -0.0073
 9420TIP3    H149675   4.734   5.053   4.673  1.3717 -0.6765 -0.0915
 9420TIP3    H249676   4.753   4.977   4.803  1.3561 -1.0296 -0.2949
 9421TIP3   OH249677   0.098   2.367   0.541  0.5325 -0.0717  0.5335
 9421TIP3    H149678   0.164   2.310   0.502  0.3312  1.0354 -1.5893
 9421TIP3    H249679   0.071   2.322   0.621  0.1292 -3.0999 -1.1724
 9422TIP3   OH249680   2.027   4.417  12.085  0.3632 -0.0088 -0.3622
 9422TIP3    H149681   2.070   4.401  12.001 -0.5397 -0.6439 -0.7228
 9422TIP3    H249682   1.953   4.356  12.085 -0.8035  1.3621  0.0343
 9423TIP3   OH249683   1.424   4.436   1.051 -0.5869 -0.0879 -0.4148
 9423TIP3    H149684   1.410   4.457   0.959  1.0099 -0.3876 -0.7657
 9423TIP3    H249685   1.442   4.520   1.092 -1.2686  0.0430 -0.3778
 9424TIP3   OH249686   4.612   5.118  14.318 -0.3338 -0.1205  0.5005
 9424TIP3    H149687   4.537   5.083  14.271 -0.2562 -0.7725  0.8420
 9424TIP3    H249688   4.637   5.197  14.270  0.6256 -1.4998 -1.4062
 9425TIP3   OH249689   2.254   0.396   2.717  0.0982  0.0473 -0.0598
 9425TIP3    H149690   2.290   0.469   2.766 -0.0189  1.0580 -1.3984
 9425TIP3    H249691   2.171   0.430   2.681 -0.1355 -0.8536 -0.4024
 9426TIP3   OH249692   3.650   0.515   5.448  0.2799  0.0086  0.1731
 9426TIP3    H149693   3.684   0.429   5.473  2.2169  0.4429 -0.7914
 9426TIP3    H249694   3.563   0.519   5.488  0.9891 -1.5306  2.0342
 9427TIP3   OH249695   2.320   3.443  13.190 -0.4038 -0.2085 -0.2983
 9427TIP3    H149696   2.406   3.404  13.200 -0.8152 -1.4062 -1.2267
 9427TIP3    H249697   2.269   3.378  13.142 -2.4849 -0.4814  2.1043
 9428TIP3   OH249698   0.729   4.443   1.201 -0.7394 -0.4736 -0.2221
 9428TIP3    H149699   0.818   4.430   1.168 -0.3796  1.7709 -0.2469
 9428TIP3    H249700   0.738   4.441   1.296 -0.0098  2.9933 -0.1055
 9429TIP3   OH249701   6.103   1.899  14.674 -0.9163  0.5407  0.2650
 9429TIP3    H149702   6.127   1.885  14.766  2.1103 -0.9658 -0.6179
 9429TIP3    H249703   6.105   1.994  14.663 -3.1420  0.9000  2.0773
 9430TIP3   OH249704   3.087   3.476   2.569  0.3188  0.2926 -0.5004
 9430TIP3    H149705   3.148   3.455   2.640  0.5918  1.3263 -0.4183
 9430TIP3    H249706   3.063   3.567   2.584 -2.3235 -0.4358  0.2666
 9431TIP3   OH249707   5.944   0.655  11.639 -0.2252  0.2144 -0.1041
 9431TIP3    H149708   5.955   0.562  11.617  0.9419  0.3022  0.1009
 9431TIP3    H249709   6.023   0.697  11.606 -1.4047  1.4042 -1.5653
 9432TIP3   OH249710   6.708   5.648  16.876 -0.4884  0.1116  0.0640
 9432TIP3    H149711   6.779   5.601  16.921 -0.2280 -0.1061 -0.5557
 9432TIP3    H249712   6.708   5.735  16.916  0.7690  0.4278 -0.5595
 9433TIP3   OH249713   4.416   2.970   4.994  0.0412 -0.0373  0.1811
 9433TIP3    H149714   4.435   2.879   5.015 -0.2185  0.3080  2.1303
 9433TIP3    H249715   4.397   3.011   5.079 -1.6340  1.4073 -0.8120
 9434TIP3   OH249716   3.696   3.867   1.521  0.0712  0.4544 -0.5748
 9434TIP3    H149717   3.633   3.865   1.593 -0.9986  3.3973 -1.3106
 9434TIP3    H249718   3.706   3.960   1.500  3.9037  0.0663 -1.2167
 9435TIP3   OH249719   4.362   2.502  14.776  0.6070  0.2073 -0.3848
 9435TIP3    H149720   4.293   2.565  14.755  1.3182  1.2446  0.2971
 9435TIP3    H249721   4.320   2.417  14.766 -0.8953  0.8090  0.3740
 9436TIP3   OH249722   4.510   2.198   5.183  0.3563 -0.3632  0.0744
 9436TIP3    H149723   4.472   2.111   5.169 -0.4868  0.0578 -0.3071
 9436TIP3    H249724   4.567   2.187   5.259  1.4646 -1.6040 -0.9063
 9437TIP3   OH249725   5.372   5.565  15.500  0.5373 -0.3235  0.4437
 9437TIP3    H149726   5.388   5.535  15.411  0.6238  0.9187  0.0141
 9437TIP3    H249727   5.373   5.661  15.493  1.2821 -0.1934  1.9051
 9438TIP3   OH249728   6.537   6.423  13.646 -0.0257 -0.0888 -0.6771
 9438TIP3    H149729   6.525   6.329  13.632 -0.0543  0.1455 -2.5661
 9438TIP3    H249730   6.453   6.454  13.678 -0.1561 -0.6453 -0.4786
 9439TIP3   OH249731   4.070   0.166   4.763  0.2834 -0.0574  0.1297
 9439TIP3    H149732   4.099   0.111   4.836  1.2552 -0.8471 -0.8126
 9439TIP3    H249733   3.975   0.154   4.760  0.2734 -0.2778  1.0444
 9440TIP3   OH249734   1.341   4.679   1.798  0.5509  0.0671 -0.5067
 9440TIP3    H149735   1.336   4.774   1.808 -1.7658  0.0426 -0.9445
 9440TIP3    H249736   1.324   4.644   1.886 -0.4556  0.0714 -0.6832
 9441TIP3   OH249737   3.910   3.103   3.598 -0.1708 -0.0244  0.0156
 9441TIP3    H149738   3.816   3.123   3.597 -0.1836 -0.1047 -0.4221
 9441TIP3    H249739   3.917   3.031   3.662 -1.0319 -2.9031 -2.8416
 9442TIP3   OH249740   5.335   1.850   0.904  0.3844  0.2935 -0.2709
 9442TIP3    H149741   5.414   1.865   0.955  0.6320 -0.5571 -0.3861
 9442TIP3    H249742   5.320   1.932   0.857 -0.0589  1.2203  1.4248
 9443TIP3   OH249743   3.023   3.660   0.948 -0.1746  0.3578  0.0292
 9443TIP3    H149744   3.092   3.721   0.921  0.0103  0.3246  0.4258
 9443TIP3    H249745   3.050   3.577   0.909  0.5078  0.1312  0.9555
 9444TIP3   OH249746   1.159   4.641  13.619  0.3604 -0.0323  0.0138
 9444TIP3    H149747   1.129   4.552  13.633  0.5653  0.0674  1.1382
 9444TIP3    H249748   1.121   4.666  13.535 -1.3890 -0.4618  0.6539
 9445TIP3   OH249749   1.511   0.741   3.070 -0.5350 -0.4890 -0.0028
 9445TIP3    H149750   1.503   0.686   3.148  0.2121  0.7360  0.9685
 9445TIP3    H249751   1.421   0.768   3.051 -0.6061  0.1434  1.1408
 9446TIP3   OH249752   4.863   0.570  15.685  0.7025  0.1883 -0.1840
 9446TIP3    H149753   4.905   0.648  15.650  0.0938  0.5082 -0.2119
 9446TIP3    H249754   4.878   0.575  15.780  2.4934 -0.7642 -0.3710
 9447TIP3   OH249755   2.141   2.327   6.142  0.1866  0.3127 -0.4115
 9447TIP3    H149756   2.141   2.271   6.220  0.0488  0.7392 -0.0949
 9447TIP3    H249757   2.210   2.392   6.160 -0.8029  1.2780  0.0027
 9448TIP3   OH249758   1.419   6.184  11.970  0.4878  0.6116  0.3457
 9448TIP3    H149759   1.491   6.189  11.908  0.2901 -1.7443 -0.1503
 9448TIP3    H249760   1.367   6.110  11.941 -1.1081  1.1129  1.7807
 9449TIP3   OH249761   1.319   3.601  15.096 -0.3224  0.4726  0.2281
 9449TIP3    H149762   1.397   3.656  15.109 -0.1117  0.3314 -0.4071
 9449TIP3    H249763   1.276   3.600  15.182  0.2288  0.7775  0.5149
 9450TIP3   OH249764   0.991   2.508   5.573  0.1279 -0.0630  0.0075
 9450TIP3    H149765   0.954   2.447   5.637 -0.2042  1.1539  1.0216
 9450TIP3    H249766   1.013   2.586   5.625  0.1871  0.8268 -1.3124
 9451TIP3   OH249767   2.289   3.210   5.250  0.2439 -0.6205  0.4246
 9451TIP3    H149768   2.266   3.184   5.339  0.2771  1.9879  1.2926
 9451TIP3    H249769   2.205   3.230   5.208  0.2738 -1.2169  0.0665
 9452TIP3   OH249770   6.121   5.834  17.157 -0.0220  0.1128  0.2145
 9452TIP3    H149771   6.065   5.905  17.127  1.1071  0.0302 -2.3601
 9452TIP3    H249772   6.071   5.754  17.138 -0.7748  0.1266  1.9651
 9453TIP3   OH249773   6.488   4.470   1.121  0.3810 -0.0410  0.1602
 9453TIP3    H149774   6.518   4.483   1.031 -0.2820  0.4167  0.0018
 9453TIP3    H249775   6.520   4.383   1.145  0.4594 -0.2109 -0.5558
 9454TIP3   OH249776   2.963   4.329   4.660 -0.4474 -0.3472 -0.1612
 9454TIP3    H149777   3.024   4.263   4.626  0.8874 -0.3496  2.0626
 9454TIP3    H249778   2.891   4.278   4.696  0.0723 -0.5635  0.5977
 9455TIP3   OH249779   4.146   5.321   5.875 -0.4277 -0.1596  0.0895
 9455TIP3    H149780   4.202   5.378   5.822 -0.3102 -1.1526 -0.8929
 9455TIP3    H249781   4.073   5.378   5.903 -1.5057  0.0077 -2.7070
 9456TIP3   OH249782   3.434   0.012   1.205 -0.3806 -0.1098 -0.2347
 9456TIP3    H149783   3.352   0.019   1.252 -1.3216 -0.5244 -1.7432
 9456TIP3    H249784   3.487  -0.048   1.258 -0.0930  1.9821  1.9829
 9457TIP3   OH249785   2.516   6.511   3.998  0.2280  0.0867  0.4388
 9457TIP3    H149786   2.512   6.590   3.944 -1.2755 -1.0794 -1.2695
 9457TIP3    H249787   2.512   6.544   4.088  1.7365  2.0350 -0.1108
 9458TIP3   OH249788   4.216   2.115  15.169 -0.0844  0.3906  0.9012
 9458TIP3    H149789   4.209   2.138  15.262 -0.8672  0.2912  0.8681
 9458TIP3    H249790   4.308   2.133  15.147  0.1329  0.3190  1.7185
 9459TIP3   OH249791   5.340   3.229  15.421  0.9574  0.0909 -0.7051
 9459TIP3    H149792   5.331   3.214  15.327  1.9349 -1.8507 -0.5306
 9459TIP3    H249793   5.297   3.313  15.436  0.3534  0.2051 -2.8011
 9460TIP3   OH249794   3.690   4.403   0.213  0.5760  0.1353 -0.1720
 9460TIP3    H149795   3.630   4.395   0.287  0.6991  0.2240 -0.0646
 9460TIP3    H249796   3.670   4.489   0.175 -0.4223 -0.4456 -1.0485
 9461TIP3   OH249797   1.470   0.010  11.206 -0.0044 -0.2358 -0.1451
 9461TIP3    H149798   1.439   0.096  11.234 -1.8114 -1.5541  2.3069
 9461TIP3    H249799   1.392  -0.033  11.171  0.9846 -0.7639 -1.8298
 9462TIP3   OH249800   4.177   5.178  15.126  0.4745  0.2316  0.1281
 9462TIP3    H149801   4.109   5.171  15.059  0.5644 -0.3795  0.0994
 9462TIP3    H249802   4.174   5.270  15.153 -0.3840  0.2129  0.1424
 9463TIP3   OH249803   3.330   6.337   3.389  0.5986 -0.8245 -0.0724
 9463TIP3    H149804   3.236   6.350   3.381  0.7953  1.1411  0.3846
 9463TIP3    H249805   3.349   6.263   3.331 -1.1127 -0.8581 -0.6472
 9464TIP3   OH249806   6.080   3.814   4.092 -0.4307  0.6468 -0.4225
 9464TIP3    H149807   6.066   3.908   4.104  0.3538  0.9661 -1.8145
 9464TIP3    H249808   5.991   3.777   4.091 -0.7474  1.3608  0.1283
 9465TIP3   OH249809   4.173   0.855  14.676  0.4913 -0.1357 -0.6426
 9465TIP3    H149810   4.109   0.904  14.729  0.7954  1.0153 -1.3239
 9465TIP3    H249811   4.127   0.773  14.655  0.2521 -0.5204  1.1401
 9466TIP3   OH249812   6.375   0.010  11.965 -0.1579 -0.0784  0.4332
 9466TIP3    H149813   6.355   0.050  11.880  1.8371 -1.3202 -0.7124
 9466TIP3    H249814   6.293  -0.034  11.991 -0.4359 -0.8719 -1.5732
 9467TIP3   OH249815   5.537   4.478  11.552  0.6696  0.5921 -0.3887
 9467TIP3    H149816   5.603   4.519  11.496  0.9288 -1.6557 -1.8687
 9467TIP3    H249817   5.553   4.384  11.543  1.7426  0.0174  4.7595
 9468TIP3   OH249818   2.927   0.270  11.177 -0.7075 -0.1266  0.4394
 9468TIP3    H149819   2.847   0.311  11.211 -1.0345 -0.9598  0.7169
 9468TIP3    H249820   2.898   0.184  11.147  0.1992 -0.6983  1.1458
 9469TIP3   OH249821   6.335   0.168  12.298 -0.7506 -0.5264  0.2017
 9469TIP3    H149822   6.277   0.149  12.372  0.8095  0.7152  1.8398
 9469TIP3    H249823   6.307   0.255  12.268 -1.9653 -1.3991 -1.3191
 9470TIP3   OH249824   1.500   5.844  12.202  0.7522  0.1305 -0.1342
 9470TIP3    H149825   1.446   5.782  12.251 -1.1904  0.7829 -1.3272
 9470TIP3    H249826   1.590   5.819  12.222  0.0347 -2.1965  0.4860
 9471TIP3   OH249827   0.274   3.298  15.908  0.4262  0.3521  0.1638
 9471TIP3    H149828   0.213   3.327  15.841 -1.6065 -2.0124  0.8137
 9471TIP3    H249829   0.315   3.220  15.871 -1.5204 -1.6506  1.8533
 9472TIP3   OH249830   6.053   1.409   3.058  0.3687  0.0482  0.5905
 9472TIP3    H149831   6.107   1.415   2.979 -1.6978  2.8336 -0.7611
 9472TIP3    H249832   6.075   1.487   3.108 -2.5760  1.5684 -0.2527
 9473TIP3   OH249833   6.015   3.290  13.670 -0.0751 -0.0753 -0.0697
 9473TIP3    H149834   6.073   3.305  13.745  1.4389  1.0004 -1.3739
 9473TIP3    H249835   5.962   3.369  13.664  1.5677  1.0201 -1.5370
 9474TIP3   OH249836   3.227   0.760   5.090  0.3216 -0.2254  0.0981
 9474TIP3    H149837   3.220   0.777   4.996  2.2059  0.6665  0.0631
 9474TIP3    H249838   3.137   0.761   5.122 -0.2523  1.0599 -1.4434
 9475TIP3   OH249839   3.143   4.466  11.611  0.4729 -1.1109  0.1310
 9475TIP3    H149840   3.077   4.534  11.620  1.5650 -0.2063  1.8453
 9475TIP3    H249841   3.112   4.411  11.539 -0.1257  1.5605 -1.7806
 9476TIP3   OH249842   5.916   5.799   1.517 -0.3502  0.5202 -0.0711
 9476TIP3    H149843   5.999   5.824   1.478 -0.1491 -0.3538 -0.2135
 9476TIP3    H249844   5.939   5.740   1.589 -0.8864 -0.4790 -0.7020
 9477TIP3   OH249845   5.965   4.950  15.932 -0.1301  0.3789 -0.1020
 9477TIP3    H149846   6.031   4.899  15.979  0.3790 -0.8420 -2.0268
 9477TIP3    H249847   5.887   4.948  15.989  1.3115  1.5685  2.0541
 9478TIP3   OH249848   1.226   3.616  11.951  0.0800 -0.3386  0.6577
 9478TIP3    H149849   1.149   3.580  11.995  1.8355 -2.0021  2.5823
 9478TIP3    H249850   1.255   3.688  12.008  0.0782  0.1530  0.0499
 9479TIP3   OH249851   4.902   1.790  16.780 -0.0614 -0.1725  0.3300
 9479TIP3    H149852   4.881   1.791  16.873 -0.5659  1.7904  0.2521
 9479TIP3    H249853   4.835   1.734  16.741 -0.1673 -0.5788  1.0780
 9480TIP3   OH249854   5.603   1.300  16.044  0.1014 -0.2563  0.4118
 9480TIP3    H149855   5.578   1.241  16.116 -2.7659  0.1048 -0.1885
 9480TIP3    H249856   5.530   1.295  15.982  1.3353  1.3859 -1.2874
 9481TIP3   OH249857   6.615   0.852   2.964  0.3930  0.8785  0.0275
 9481TIP3    H149858   6.680   0.875   2.898 -0.0099  2.7568  0.2130
 9481TIP3    H249859   6.587   0.937   2.999 -1.3790  0.0587  0.6818
 9482TIP3   OH249860   0.709   5.447   4.697  0.2274  0.2345 -0.5447
 9482TIP3    H149861   0.666   5.402   4.624  1.1018  1.2617 -1.7458
 9482TIP3    H249862   0.650   5.436   4.771 -1.3981  0.4004 -1.7744
 9483TIP3   OH249863   2.337   3.537   3.392  0.1084 -0.3790 -0.2390
 9483TIP3    H149864   2.311   3.608   3.334 -0.0419  0.4245  0.7794
 9483TIP3    H249865   2.256   3.488   3.409 -0.1161  0.1566  0.2973
 9484TIP3   OH249866   5.587   3.906  10.896 -0.4120 -0.0621  0.7902
 9484TIP3    H149867   5.533   3.838  10.857  0.3364 -1.0154  1.3589
 9484TIP3    H249868   5.634   3.945  10.822 -0.4934 -0.4880  0.5112
 9485TIP3   OH249869   2.083   2.808  12.923  0.2963  0.6376 -0.0423
 9485TIP3    H149870   2.050   2.877  12.865 -0.3224  0.6808  0.3570
 9485TIP3    H249871   2.133   2.854  12.990 -0.2179  0.7055  0.2922
 9486TIP3   OH249872   2.450   6.192  14.747 -0.5894  0.5170  0.6239
 9486TIP3    H149873   2.531   6.241  14.737  0.3229 -1.0689  0.0565
 9486TIP3    H249874   2.403   6.240  14.816  0.1601  2.2706 -0.0111
 9487TIP3   OH249875   0.014   5.538   0.347 -0.0082  0.2137  0.0800
 9487TIP3    H149876   0.070   5.576   0.279 -0.0781  0.9423  0.4155
 9487TIP3    H249877   0.074   5.491   0.405  0.2388  0.8394  0.3370
 9488TIP3   OH249878   4.566   3.189  14.583  0.0915  0.6936 -0.8027
 9488TIP3    H149879   4.570   3.246  14.506  0.8105 -0.3335 -1.5674
 9488TIP3    H249880   4.646   3.137  14.577 -0.2237  0.0755  0.2327
 9489TIP3   OH249881   4.977   2.228   5.774  0.2020  0.0120 -0.0801
 9489TIP3    H149882   4.949   2.142   5.743  0.3872  0.4332 -1.4561
 9489TIP3    H249883   5.068   2.215   5.801 -0.0785 -0.4459  0.6731
 9490TIP3   OH249884   4.640   4.518   0.159  0.2437  0.0767  0.0298
 9490TIP3    H149885   4.729   4.553   0.158  0.7197 -1.1377 -0.4988
 9490TIP3    H249886   4.642   4.450   0.226  0.2991 -1.4302 -1.4583
 9491TIP3   OH249887   0.886   2.916   2.180  0.0451  0.3654  0.2010
 9491TIP3    H149888   0.835   2.932   2.260  0.2144 -1.3020  0.6814
 9491TIP3    H249889   0.905   2.823   2.183  0.2415  0.3209 -1.6981
 9492TIP3   OH249890   5.191   0.991   4.249  0.2326  0.4610  0.4567
 9492TIP3    H149891   5.115   0.995   4.192  0.8102  2.3096 -0.2370
 9492TIP3    H249892   5.266   1.010   4.192  1.6700 -3.7325  0.5230
 9493TIP3   OH249893   3.670   5.977   3.374  0.4208  0.2498  0.3884
 9493TIP3    H149894   3.729   5.913   3.333  0.8530 -0.6187  2.2375
 9493TIP3    H249895   3.691   5.972   3.467  0.0918  2.7468  0.6562
 9494TIP3   OH249896   3.845   4.275   5.750  0.2250 -0.0501  0.0714
 9494TIP3    H149897   3.769   4.306   5.701  0.2771 -1.6071 -1.0847
 9494TIP3    H249898   3.917   4.329   5.719 -0.4029  1.5535  1.2989
 9495TIP3   OH249899   3.386   0.354  15.721 -0.0697  0.4769 -0.2194
 9495TIP3    H149900   3.324   0.359  15.794 -0.2605 -0.8240 -0.2611
 9495TIP3    H249901   3.438   0.434  15.728  0.0637  0.2797  1.4927
 9496TIP3   OH249902   2.694   3.172   1.850  0.3832  0.0103 -0.4370
 9496TIP3    H149903   2.729   3.118   1.921 -1.3176 -0.9544 -0.2871
 9496TIP3    H249904   2.698   3.115   1.773  0.4587  0.3946 -0.7185
 9497TIP3   OH249905   3.299   3.433  11.411  0.3853 -0.1444 -0.1656
 9497TIP3    H149906   3.333   3.480  11.487  0.7290  0.5591 -0.7400
 9497TIP3    H249907   3.351   3.352  11.408 -0.5308 -0.8145  1.1060
 9498TIP3   OH249908   0.708   4.042  12.106  0.5547  0.1084  0.4646
 9498TIP3    H149909   0.648   3.979  12.145 -0.3091  2.4443  3.3102
 9498TIP3    H249910   0.769   4.064  12.177  1.1357  2.0072 -0.5552
 9499TIP3   OH249911   5.311   0.648   1.485  0.6047 -0.3067 -0.0855
 9499TIP3    H149912   5.395   0.686   1.510  0.9353 -1.2806  0.3493
 9499TIP3    H249913   5.245   0.709   1.519  1.1119 -0.1500  0.6299
 9500TIP3   OH249914   6.760   2.450  17.153  0.2247 -0.0678 -0.3569
 9500TIP3    H149915   6.822   2.416  17.088 -0.9013 -1.2424 -0.8564
 9500TIP3    H249916   6.677   2.408  17.131 -0.3617  0.1011  1.3791
 9501TIP3   OH249917   4.220   1.527  13.383 -0.0854 -0.1444 -0.0411
 9501TIP3    H149918   4.235   1.586  13.309  1.0298 -0.9240 -0.4640
 9501TIP3    H249919   4.270   1.566  13.455  0.8819 -0.7123 -0.3974
 9502TIP3   OH249920   4.040   4.316  17.048  0.6530 -0.0523  0.1235
 9502TIP3    H149921   4.090   4.375  17.104  2.3049 -1.8359  0.6116
 9502TIP3    H249922   3.963   4.294  17.101 -0.0973  1.7511 -0.1454
 9503TIP3   OH249923   0.252   3.515  11.332 -0.0994 -0.2367 -0.0978
 9503TIP3    H149924   0.335   3.563  11.328 -0.6039  0.6702  0.1158
 9503TIP3    H249925   0.249   3.466  11.250  1.5451 -1.8329  0.7299
 9504TIP3   OH249926   1.070   0.521  11.416  0.0603  0.0956  1.0206
 9504TIP3    H149927   1.141   0.544  11.356 -1.6835 -0.5650 -1.4616
 9504TIP3    H249928   1.075   0.425  11.424 -0.9450 -0.0409  0.2258
 9505TIP3   OH249929   4.379   1.226   5.017 -0.6853 -0.0322  0.2697
 9505TIP3    H149930   4.294   1.264   5.039 -0.5715  0.3748  0.0243
 9505TIP3    H249931   4.360   1.163   4.947 -0.5777  1.2748 -0.9849
 9506TIP3   OH249932   0.099   4.305  12.061 -0.3134  0.3141 -0.1678
 9506TIP3    H149933   0.170   4.370  12.059 -0.8180  0.8680 -0.1732
 9506TIP3    H249934   0.095   4.276  12.152  0.8494 -0.7636 -0.4291
 9507TIP3   OH249935   3.382   4.897   1.942  0.5161  0.0680 -0.1935
 9507TIP3    H149936   3.462   4.845   1.934  0.4749  0.2098 -1.6805
 9507TIP3    H249937   3.367   4.903   2.037  1.8252 -0.6138  0.0756
 9508TIP3   OH249938   0.331   3.181  10.914 -0.5950  0.0836 -0.1035
 9508TIP3    H149939   0.424   3.166  10.902 -1.0158 -1.8873 -1.4580
 9508TIP3    H249940   0.307   3.243  10.845 -0.3100  0.5807  0.2380
 9509TIP3   OH249941   0.165   1.305  12.568  0.7733  0.4352  0.0249
 9509TIP3    H149942   0.108   1.332  12.495 -0.3567 -1.0845  0.2991
 9509TIP3    H249943   0.122   1.228  12.605  1.7093  0.7335  1.8603
 9510TIP3   OH249944   3.683   3.315   5.724 -0.1173  0.1561  0.5558
 9510TIP3    H149945   3.730   3.248   5.674 -1.2136 -1.7341  1.9536
 9510TIP3    H249946   3.595   3.315   5.688 -0.5464 -0.2685  1.5797
 9511TIP3   OH249947   3.854   3.816   3.576 -0.9095  0.0637  0.9321
 9511TIP3    H149948   3.836   3.773   3.493  1.6470  0.1190  0.2490
 9511TIP3    H249949   3.850   3.745   3.640  0.8526 -0.7915  0.1620
 9512TIP3   OH249950   6.125   4.107   1.982 -0.3198  0.0099  0.2896
 9512TIP3    H149951   6.162   4.147   1.903 -2.0212 -0.2861 -0.7121
 9512TIP3    H249952   6.181   4.031   2.000 -1.4267 -1.5454 -2.2872
 9513TIP3   OH249953   1.890   2.243   4.039  0.0612  0.0916 -0.6706
 9513TIP3    H149954   1.891   2.182   3.966  1.8458 -0.4054 -0.2735
 9513TIP3    H249955   1.918   2.191   4.115 -1.0639  0.7600  0.2382
 9514TIP3   OH249956   3.109   6.543   2.163 -0.1862 -0.2621 -0.3652
 9514TIP3    H149957   3.175   6.477   2.183 -1.1063 -1.2296 -0.4245
 9514TIP3    H249958   3.121   6.611   2.230 -0.3690 -1.3393  0.7930
 9515TIP3   OH249959   2.237   3.361   6.023 -0.1692  0.5669 -0.9017
 9515TIP3    H149960   2.315   3.409   6.051  0.2836 -0.3056 -0.6545
 9515TIP3    H249961   2.236   3.371   5.927  1.1010 -0.6588 -1.0825
 9516TIP3   OH249962   5.249   1.651   3.175  0.2225 -0.7907 -0.4855
 9516TIP3    H149963   5.313   1.714   3.144  0.3047  0.1463  1.4563
 9516TIP3    H249964   5.300   1.584   3.220 -0.0845 -0.2808  0.6655
 9517TIP3   OH249965   0.573   5.805  15.108  0.0856 -0.4885 -0.1647
 9517TIP3    H149966   0.479   5.822  15.101  0.4263  1.9063  0.4181
 9517TIP3    H249967   0.614   5.890  15.093  2.1408 -1.3494  0.2931
 9518TIP3   OH249968   4.535   2.002   0.201 -0.6060 -0.3376  0.3224
 9518TIP3    H149969   4.628   2.011   0.222 -0.7496 -0.8262  1.2334
 9518TIP3    H249970   4.524   1.908   0.184 -0.8226 -0.1921 -0.3213
 9519TIP3   OH249971   3.740   5.428   0.704  0.1569 -0.6707  0.1702
 9519TIP3    H149972   3.698   5.407   0.787 -0.4480 -0.3482 -0.0443
 9519TIP3    H249973   3.681   5.491   0.663  1.5271  0.8426  0.4430
 9520TIP3   OH249974   2.687   5.766   1.398 -0.3096  0.1127  0.0835
 9520TIP3    H149975   2.635   5.824   1.342  0.0985  0.7105  0.3116
 9520TIP3    H249976   2.730   5.825   1.460  0.4817 -0.3877  0.0224
 9521TIP3   OH249977   0.621   1.473  12.734 -0.3979 -0.0145 -0.8171
 9521TIP3    H149978   0.642   1.516  12.651 -1.8816  2.3985 -0.0612
 9521TIP3    H249979   0.543   1.421  12.714 -0.2154 -0.1795 -1.1200
 9522TIP3   OH249980   1.689   3.903   5.020  0.4192 -0.0401 -0.0981
 9522TIP3    H149981   1.604   3.913   5.062  0.5594  0.0848  0.1561
 9522TIP3    H249982   1.709   3.990   4.985  2.0852  0.9425  2.9536
 9523TIP3   OH249983   6.274   3.256   2.376 -0.4457  0.2772  0.5401
 9523TIP3    H149984   6.341   3.244   2.308  1.1790  1.7140  1.8137
 9523TIP3    H249985   6.192   3.264   2.327  0.3435 -1.0237 -1.1010
 9524TIP3   OH249986   5.869   1.476   3.586 -0.2371 -0.1569  0.0021
 9524TIP3    H149987   5.962   1.458   3.569 -0.1442 -2.4009  2.3118
 9524TIP3    H249988   5.845   1.541   3.520  3.0433  0.7702 -0.4546
 9525TIP3   OH249989   1.150   2.816  17.008 -0.3855  0.6643 -0.8096
 9525TIP3    H149990   1.116   2.847  17.092 -0.0296  0.2114 -0.4905
 9525TIP3    H249991   1.098   2.738  16.988  1.2959 -0.8424  0.3508
 9526TIP3   OH249992   3.011   0.674   6.147 -0.2059  0.1788  0.3602
 9526TIP3    H149993   3.091   0.692   6.098 -0.7133 -0.6923 -0.8320
 9526TIP3    H249994   2.991   0.583   6.129 -1.3930  0.3407  0.7528
 9527TIP3   OH249995   5.122   3.653  16.541  0.2180 -0.0191 -0.6621
 9527TIP3    H149996   5.050   3.716  16.546  0.1940  0.3603 -3.7716
 9527TIP3    H249997   5.201   3.707  16.547  0.2000  0.0814 -1.2411
 9528TIP3   OH249998   0.214   4.903   3.990 -0.0505 -0.2669 -0.3650
 9528TIP3    H149999   0.304   4.872   3.987  0.1156 -0.3838  2.5974
 9528TIP3    H250000   0.204   4.958   3.912  2.6859  0.0823 -0.5490
 9529TIP3   OH250001   2.505   2.039  13.646 -0.0465 -0.4863  0.0366
 9529TIP3    H150002   2.466   1.999  13.723  0.1688  0.1160  0.4700
 9529TIP3    H250003   2.531   1.966  13.590 -0.0506 -0.9295  0.6122
 9530TIP3   OH250004   3.275   1.298  11.935 -0.0593 -0.2604 -0.4891
 9530TIP3    H150005   3.364   1.284  11.968  0.0827 -1.2358 -1.2396
 9530TIP3    H250006   3.232   1.350  12.003  1.1283  0.3640 -0.1868
 9531TIP3   OH250007   4.008   2.309   5.326  0.6046 -0.1612 -0.0822
 9531TIP3    H150008   4.072   2.301   5.397 -0.0547 -0.0741  0.5262
 9531TIP3    H250009   3.940   2.366   5.361  0.5685  0.3802 -1.0039
 9532TIP3   OH250010   6.013   0.070  15.069 -0.4826 -0.3699 -0.7677
 9532TIP3    H150011   6.061  -0.009  15.044  0.7867  0.0585  0.2282
 9532TIP3    H250012   5.979   0.050  15.156 -0.5758 -0.0049 -0.7212
 9533TIP3   OH250013   4.695   2.470  13.032 -0.3156 -0.4023  0.2121
 9533TIP3    H150014   4.719   2.410  13.102  1.3885  0.1581  0.1443
 9533TIP3    H250015   4.720   2.426  12.951 -1.9762 -0.9065 -0.0663
 9534TIP3   OH250016   5.861   0.325   5.444  0.4998 -0.3203 -0.1059
 9534TIP3    H150017   5.864   0.421   5.444  4.9848 -0.1866 -2.6924
 9534TIP3    H250018   5.883   0.300   5.533  0.1931  1.0404  0.3776
 9535TIP3   OH250019   4.949   1.725   1.748 -0.1627  0.1075 -0.7081
 9535TIP3    H150020   4.943   1.796   1.685 -2.2490  0.2076 -0.4723
 9535TIP3    H250021   4.863   1.723   1.791  1.2550  0.3422  2.4557
 9536TIP3   OH250022   3.277   0.308   1.036  0.3960 -0.0554  0.3104
 9536TIP3    H150023   3.353   0.349   1.077 -0.1210  0.6325  0.6023
 9536TIP3    H250024   3.203   0.361   1.064 -0.1560 -0.5065 -0.2578
 9537TIP3   OH250025   0.766   4.709   2.652 -0.0853  0.4666  0.1065
 9537TIP3    H150026   0.691   4.652   2.670 -0.0805  1.0049  2.1525
 9537TIP3    H250027   0.842   4.652   2.661  0.0310  0.9579  3.8191
 9538TIP3   OH250028   5.195   2.672   2.749  0.9300  0.0168  0.1472
 9538TIP3    H150029   5.120   2.725   2.778  0.8358  0.0670 -0.1773
 9538TIP3    H250030   5.172   2.583   2.775  0.6286 -0.0080 -0.1999
 9539TIP3   OH250031   2.982   5.964   3.987 -0.0514 -0.1271  0.2865
 9539TIP3    H150032   3.016   6.049   3.959  0.3266 -0.6592 -0.9465
 9539TIP3    H250033   2.888   5.970   3.968  0.0313 -0.1067 -0.1261
 9540TIP3   OH250034   0.234   1.829  16.668 -0.5483 -0.6548 -0.1980
 9540TIP3    H150035   0.280   1.909  16.643 -0.8768 -0.9275 -1.7852
 9540TIP3    H250036   0.144   1.858  16.686 -0.8627 -0.7390 -1.5130
 9541TIP3   OH250037   4.344   3.857   3.824  0.2655  0.4449 -0.2762
 9541TIP3    H150038   4.258   3.839   3.787  0.0007 -1.3304  1.1042
 9541TIP3    H250039   4.398   3.782   3.798  1.5461  1.6918 -1.4241
 9542TIP3   OH250040   5.073   6.525  11.615 -0.1751  0.2069  0.5628
 9542TIP3    H150041   5.093   6.512  11.707 -1.1897 -1.7130  0.5883
 9542TIP3    H250042   5.002   6.590  11.614 -0.5692 -0.2032  1.1976
 9543TIP3   OH250043   3.934   1.126   0.658 -0.3982  0.7675 -0.2871
 9543TIP3    H150044   3.839   1.132   0.653 -0.4106  0.5162 -0.3399
 9543TIP3    H250045   3.952   1.089   0.744 -0.3788  0.0388 -0.6017
 9544TIP3   OH250046   0.147   5.839  15.587 -0.0250  0.0496  0.4339
 9544TIP3    H150047   0.218   5.807  15.531  0.9896  2.6928  0.0383
 9544TIP3    H250048   0.180   5.829  15.676  0.5263  0.5282  0.2878
 9545TIP3   OH250049   6.531   4.976   5.974  0.2936 -0.8816 -0.1528
 9545TIP3    H150050   6.562   5.047   6.030 -2.1106  1.2401 -1.3168
 9545TIP3    H250051   6.473   4.925   6.030 -2.2063  1.3026 -0.5877
 9546TIP3   OH250052   4.337   4.342  10.343  0.0306 -0.6602  0.2164
 9546TIP3    H150053   4.367   4.414  10.399 -1.4511  0.2681 -0.1265
 9546TIP3    H250054   4.287   4.286  10.402 -0.5848 -0.2813  0.0583
 9547TIP3   OH250055   6.388   1.697  13.995  0.6672 -0.5066  0.0926
 9547TIP3    H150056   6.310   1.715  14.047  1.9628 -0.3238  2.1101
 9547TIP3    H250057   6.454   1.758  14.029  1.6357 -0.4533 -1.7350
 9548TIP3   OH250058   5.656   0.638  10.434  0.0480  0.3215 -0.3591
 9548TIP3    H150059   5.601   0.705  10.395  1.8044  2.9581  1.3114
 9548TIP3    H250060   5.741   0.649  10.392  0.8709  0.5093  1.2411
 9549TIP3   OH250061   1.836   1.987  12.479 -0.6219 -0.4020  0.0581
 9549TIP3    H150062   1.904   1.927  12.511 -0.8474 -0.7487 -0.0965
 9549TIP3    H250063   1.788   2.012  12.558  0.1145  0.4086  0.2667
 9550TIP3   OH250064   2.869   1.094  14.518  0.2083 -0.0784  0.0763
 9550TIP3    H150065   2.809   1.057  14.453 -1.5456  1.1137  0.9638
 9550TIP3    H250066   2.851   1.044  14.598  2.2295 -1.4128 -0.2095
 9551TIP3   OH250067   1.877   5.879   0.709  0.4214 -0.0471  0.5056
 9551TIP3    H150068   1.889   5.971   0.733  0.8905 -0.1643  0.7319
 9551TIP3    H250069   1.964   5.842   0.714  0.1453 -0.6392  0.9711
 9552TIP3   OH250070   2.526   4.875   3.189  0.7568 -0.4197  0.5906
 9552TIP3    H150071   2.605   4.836   3.151  0.3794 -1.1597  0.5531
 9552TIP3    H250072   2.542   4.872   3.284  0.7710 -0.5769  0.5836
 9553TIP3   OH250073   4.501   0.301  11.889 -0.3208 -0.2693  0.2002
 9553TIP3    H150074   4.426   0.340  11.934 -1.3459 -0.8321 -0.9331
 9553TIP3    H250075   4.492   0.331  11.798  1.5890  0.7135  0.2803
 9554TIP3   OH250076   0.363   0.881   4.630 -0.3322 -0.1127 -0.1754
 9554TIP3    H150077   0.387   0.827   4.705 -0.4722 -1.1683 -0.8554
 9554TIP3    H250078   0.348   0.968   4.666  1.3524 -0.1687  0.7439
 9555TIP3   OH250079   0.767   4.109   0.656 -0.1475  0.1786  0.1464
 9555TIP3    H150080   0.693   4.150   0.701 -0.7042 -1.4129  0.7681
 9555TIP3    H250081   0.769   4.019   0.690 -0.0682 -0.8790 -2.3837
 9556TIP3   OH250082   4.087   3.881  11.911 -0.0359  0.0893  0.0880
 9556TIP3    H150083   4.099   3.789  11.886 -1.1363 -0.1210  0.2799
 9556TIP3    H250084   4.092   3.929  11.828 -2.0207 -0.4351 -0.4076
 9557TIP3   OH250085   4.468   1.570  16.543 -0.1117  0.1728  0.4570
 9557TIP3    H150086   4.433   1.481  16.542  2.1430 -0.7825 -0.4255
 9557TIP3    H250087   4.430   1.611  16.465 -1.2058  0.0182  0.8957
 9558TIP3   OH250088   4.065   0.504   0.280  0.4225 -0.3951  0.1551
 9558TIP3    H150089   4.071   0.588   0.235 -0.0142  0.1916  1.1703
 9558TIP3    H250090   4.079   0.525   0.373 -3.7718 -0.7891  1.0539
 9559TIP3   OH250091   2.132   0.216  15.039  0.5128 -0.3025  0.3763
 9559TIP3    H150092   2.147   0.304  15.006 -0.9349  0.4471  1.5735
 9559TIP3    H250093   2.183   0.159  14.981 -1.1194  0.9814 -2.5111
 9560TIP3   OH250094   3.542   2.926  17.016  0.5367  0.1044 -0.4078
 9560TIP3    H150095   3.491   2.986  17.071 -0.6464 -0.2094 -1.1313
 9560TIP3    H250096   3.479   2.892  16.953  1.3320 -1.3804 -0.4479
 9561TIP3   OH250097   4.581   2.644  11.935  0.3959  0.1195  0.1019
 9561TIP3    H150098   4.651   2.661  11.998 -1.1119 -1.7514  2.4633
 9561TIP3    H250099   4.617   2.576  11.877  1.3002  0.8024 -0.1443
 9562TIP3   OH250100   2.852   1.769  10.085  0.0359  0.2952  0.0314
 9562TIP3    H150101   2.805   1.716  10.021 -1.3661  0.8935  0.5226
 9562TIP3    H250102   2.783   1.810  10.137  0.9861  3.2720 -0.8342
 9563TIP3   OH250103   1.724   0.356   2.007 -0.2851  0.3253 -0.2563
 9563TIP3    H150104   1.708   0.413   1.931  1.6131 -0.3342 -1.2206
 9563TIP3    H250105   1.729   0.268   1.970  1.1015  0.0426  0.5458
 9564TIP3   OH250106   0.037   0.171  11.480  0.5742  0.2470 -0.1699
 9564TIP3    H150107   0.054   0.200  11.569 -0.4706  0.6593 -0.0976
 9564TIP3    H250108   0.005   0.249  11.435 -0.4466 -0.3353 -0.4779
 9565TIP3   OH250109   6.069   3.210  16.346 -0.1426 -0.4597  0.8302
 9565TIP3    H150110   6.080   3.183  16.437  0.8783  3.3918  2.0458
 9565TIP3    H250111   6.152   3.250  16.322 -0.7329 -0.4804 -1.4897
 9566TIP3   OH250112   0.909   5.629   2.356  0.2330 -0.0343 -0.2316
 9566TIP3    H150113   0.884   5.718   2.329 -0.2684 -0.1023 -0.0074
 9566TIP3    H250114   1.003   5.633   2.369  0.1947  0.5024 -0.0924
 9567TIP3   OH250115   2.135   1.663   4.384 -0.4726  0.6612 -0.1793
 9567TIP3    H150116   2.108   1.583   4.430  2.5806  0.3135  1.2595
 9567TIP3    H250117   2.131   1.639   4.291 -1.9225 -0.3168  0.0884
 9568TIP3   OH250118   6.222   4.759   6.474 -0.2523 -0.0618  1.1301
 9568TIP3    H150119   6.268   4.694   6.526 -1.6050 -1.6486  0.4379
 9568TIP3    H250120   6.168   4.708   6.414  1.0353  1.6512 -1.7026
 9569TIP3   OH250121   3.951   5.624  10.189  0.0988  0.1346 -0.2271
 9569TIP3    H150122   3.983   5.537  10.212  2.4647  1.3199  1.4003
 9569TIP3    H250123   4.030   5.679  10.188 -1.4931  2.6309  0.6997
 9570TIP3   OH250124   6.458   0.431  16.073 -0.1443  0.2877  0.1800
 9570TIP3    H150125   6.458   0.508  16.016 -2.0787 -0.4688 -0.9402
 9570TIP3    H250126   6.394   0.372  16.033  0.0593 -1.2070  1.9450
 9571TIP3   OH250127   0.263   5.701   4.681 -0.3619  1.0278  0.0173
 9571TIP3    H150128   0.319   5.767   4.722  0.7699  0.1385 -0.0506
 9571TIP3    H250129   0.201   5.677   4.750  1.7307 -0.7034  1.4653
 9572TIP3   OH250130   1.619   5.295   2.856 -0.1629  0.0282 -0.1231
 9572TIP3    H150131   1.610   5.200   2.852  0.1237 -0.0383  0.5660
 9572TIP3    H250132   1.713   5.310   2.849 -0.3011  0.3465 -1.4689
 9573TIP3   OH250133   3.005   2.160  14.625  0.0401  0.0328 -0.0394
 9573TIP3    H150134   2.930   2.129  14.574  0.8173  0.8695 -1.7769
 9573TIP3    H250135   2.974   2.241  14.667 -1.4564 -1.9812  3.1652
 9574TIP3   OH250136   5.840   0.640   4.355 -0.7662  0.3859 -0.7119
 9574TIP3    H150137   5.892   0.560   4.350  0.3463  1.1456 -3.6254
 9574TIP3    H250138   5.906   0.710   4.363 -1.6584  1.1072  0.6503
 9575TIP3   OH250139   2.645   2.163   2.918  0.0964 -0.6986  0.4200
 9575TIP3    H150140   2.556   2.147   2.951 -1.1771  1.3305 -1.7558
 9575TIP3    H250141   2.688   2.210   2.989 -1.1434 -0.2210  0.8973
 9576TIP3   OH250142   5.023   5.336   0.610  0.8034  1.1162 -0.4008
 9576TIP3    H150143   5.117   5.319   0.618  0.6047 -0.1203 -0.5305
 9576TIP3    H250144   4.997   5.367   0.697  0.9036 -0.8430  0.3765
 9577TIP3   OH250145   2.754   6.675  12.187  0.2570 -0.2408 -0.1528
 9577TIP3    H150146   2.783   6.720  12.108  1.6283 -2.2473 -0.8487
 9577TIP3    H250147   2.659   6.665  12.176  0.4230 -0.4244 -1.5066
 9578TIP3   OH250148   5.974   0.905  16.781  0.3260  0.2226  0.0926
 9578TIP3    H150149   5.950   0.837  16.844  1.5994 -0.1460  0.1958
 9578TIP3    H250150   6.069   0.912  16.788  0.1274  3.1379  1.2635
 9579TIP3   OH250151   0.414   1.185  13.551 -0.3918  0.0611  0.3279
 9579TIP3    H150152   0.472   1.260  13.567 -2.1018  1.2646  1.1882
 9579TIP3    H250153   0.389   1.155  13.638 -1.3465 -0.2011 -0.0266
 9580TIP3   OH250154   0.974   2.115  11.480 -0.0908  0.0323 -0.2647
 9580TIP3    H150155   1.057   2.081  11.512  1.2217  1.5016 -1.9108
 9580TIP3    H250156   0.950   2.056  11.408  0.5598  0.7024 -1.0525
 9581TIP3   OH250157   4.991   1.824  15.188  0.0502 -0.6292  0.1973
 9581TIP3    H150158   4.985   1.824  15.092  0.6701 -1.7251  0.1530
 9581TIP3    H250159   4.973   1.915  15.212  1.9271  0.1309 -1.0901
 9582TIP3   OH250160   5.353   1.984  12.583 -0.1325 -0.0100 -0.2701
 9582TIP3    H150161   5.385   1.896  12.566 -0.8414 -0.4150  0.3759
 9582TIP3    H250162   5.394   2.039  12.516  1.1780 -0.6365 -0.0113
 9583TIP3   OH250163   3.534   1.253   0.859  0.4776  0.2504  0.3288
 9583TIP3    H150164   3.468   1.247   0.928  1.6656  0.1306  1.4826
 9583TIP3    H250165   3.557   1.346   0.856  0.5325  0.2326  0.1974
 9584TIP3   OH250166   6.130   1.538   3.287 -0.1235  0.1814 -0.7451
 9584TIP3    H150167   6.146   1.445   3.304 -0.4934  0.1955 -0.3000
 9584TIP3    H250168   6.215   1.579   3.301 -0.0973 -0.0072 -0.3423
 9585TIP3   OH250169   4.226   5.574  13.864  0.4085  0.3181  0.6350
 9585TIP3    H150170   4.212   5.662  13.829 -1.3783 -0.2116 -0.1118
 9585TIP3    H250171   4.220   5.584  13.959  1.9676  1.2556  0.6530
 9586TIP3   OH250172   3.917   2.417  12.520  0.0717  0.3002  0.2594
 9586TIP3    H150173   3.858   2.342  12.524  0.1257  0.2287 -0.1457
 9586TIP3    H250174   3.897   2.458  12.436  1.3252 -0.3451 -0.3899
 9587TIP3   OH250175   6.221   5.244  14.289  0.1408 -0.5221 -0.3520
 9587TIP3    H150176   6.278   5.216  14.361 -1.1396 -1.7105  0.2374
 9587TIP3    H250177   6.258   5.199  14.212  2.4750  1.9770 -0.8594
 9588TIP3   OH250178   5.288   2.164  11.122  0.0555  0.2139  0.3008
 9588TIP3    H150179   5.335   2.092  11.163 -1.5033  0.1325  2.0798
 9588TIP3    H250180   5.248   2.125  11.044 -1.1677 -1.0301  1.4946
 9589TIP3   OH250181   1.552   0.029   2.230 -0.7082 -0.2430  0.1749
 9589TIP3    H150182   1.459   0.010   2.240 -0.3049 -2.1801  0.6855
 9589TIP3    H250183   1.577   0.071   2.313 -1.2652  1.0425 -0.2838
 9590TIP3   OH250184   1.744   0.946  13.780 -0.6438 -0.1960 -0.0271
 9590TIP3    H150185   1.797   0.890  13.724 -0.3651  0.6902 -0.6818
 9590TIP3    H250186   1.693   0.886  13.834 -0.5969 -1.0669 -0.9310
 9591TIP3   OH250187   5.347   1.602   5.113  0.3692 -0.2609  0.5107
 9591TIP3    H150188   5.404   1.640   5.180  0.9770 -0.3956  0.0728
 9591TIP3    H250189   5.387   1.518   5.093  0.2635 -0.1635 -0.1147
 9592TIP3   OH250190   2.313   1.162   4.413  0.2708  0.1742  0.1577
 9592TIP3    H150191   2.377   1.172   4.342  0.2928 -0.4111  0.0910
 9592TIP3    H250192   2.366   1.165   4.493  0.2549  0.7587  0.1469
 9593TIP3   OH250193   1.264   3.291  16.249 -0.7819 -0.6560  0.0129
 9593TIP3    H150194   1.169   3.286  16.262 -0.7556 -2.1552 -0.2064
 9593TIP3    H250195   1.300   3.293  16.337 -0.9974 -0.8682  0.1090
 9594TIP3   OH250196   0.934   2.368   5.818  0.0015  0.2933  0.3598
 9594TIP3    H150197   0.996   2.328   5.879 -0.1793 -0.1049  0.2890
 9594TIP3    H250198   0.901   2.445   5.864 -1.6386 -1.0849  1.6234
 9595TIP3   OH250199   3.679   6.689  14.786 -0.0014  0.1041  0.0164
 9595TIP3    H150200   3.602   6.742  14.766  1.3201  2.1935  0.1277
 9595TIP3    H250201   3.727   6.684  14.704 -0.4076 -1.5152 -0.1506
 9596TIP3   OH250202   6.255   3.107   1.199  0.7762 -0.3127  0.3067
 9596TIP3    H150203   6.165   3.075   1.197  1.5051 -2.5181 -1.1552
 9596TIP3    H250204   6.260   3.170   1.127  0.0553  1.0678  1.4078
 9597TIP3   OH250205   3.446   3.399   4.433 -0.2165 -0.1232  0.2571
 9597TIP3    H150206   3.493   3.341   4.374  1.4716  0.2299  1.1734
 9597TIP3    H250207   3.391   3.341   4.486 -0.1735 -0.6475 -0.2685
 9598TIP3   OH250208   3.347   2.815  13.331 -0.0202 -0.2988 -0.4177
 9598TIP3    H150209   3.336   2.907  13.308  0.4170  0.0540  0.6946
 9598TIP3    H250210   3.440   2.798  13.317  0.2068 -0.1419  0.7665
 9599TIP3   OH250211   1.900   3.356  11.803  0.1181  0.1035  0.5777
 9599TIP3    H150212   1.822   3.305  11.825 -0.9807  1.2480 -0.5063
 9599TIP3    H250213   1.947   3.363  11.886 -1.3721  0.1206  1.4668
 9600TIP3   OH250214   3.768   5.973  12.214  0.2971 -0.2499  0.5152
 9600TIP3    H150215   3.858   5.971  12.249 -0.3362 -0.8599  2.2357
 9600TIP3    H250216   3.774   6.027  12.136  2.0836  0.1138  0.8486
 9601TIP3   OH250217   2.328   6.306   3.988 -0.0551 -0.2072  0.7008
 9601TIP3    H150218   2.390   6.375   4.012 -1.3342  0.7886  1.3522
 9601TIP3    H250219   2.281   6.287   4.069 -0.9169 -0.5740  0.1364
 9602TIP3   OH250220   4.535   5.331  11.656  0.4074  0.8202 -0.3842
 9602TIP3    H150221   4.571   5.289  11.735 -0.5706 -0.1016 -0.4082
 9602TIP3    H250222   4.445   5.354  11.680  0.1461  0.6566 -1.1908
 9603TIP3   OH250223   4.277   4.432   5.144 -0.0112  0.0380 -0.4244
 9603TIP3    H150224   4.323   4.515   5.155  1.4396 -0.4937 -1.9572
 9603TIP3    H250225   4.332   4.368   5.189  0.1932 -0.4474 -1.3473
 9604TIP3   OH250226   2.565   1.536  11.302  0.3481  0.0975 -0.5070
 9604TIP3    H150227   2.596   1.474  11.368  2.9906  1.2354 -0.5404
 9604TIP3    H250228   2.481   1.566  11.335  1.2949  0.1786  2.0904
 9605TIP3   OH250229   1.325   6.247  12.441  0.0854 -0.0649  0.3823
 9605TIP3    H150230   1.364   6.202  12.367  1.2417  0.8402  0.4137
 9605TIP3    H250231   1.332   6.185  12.514  1.2619 -0.0121  0.3267
 9606TIP3   OH250232   1.971   3.500   4.377  0.4900 -0.2161 -0.3110
 9606TIP3    H150233   2.016   3.490   4.461  0.4889  1.7157 -0.0330
 9606TIP3    H250234   2.032   3.551   4.324  0.1365 -0.7024 -1.2040
 9607TIP3   OH250235   2.794   5.696   6.006  0.2118 -0.0715  0.1375
 9607TIP3    H150236   2.837   5.655   6.081  1.2195 -0.6195 -0.7233
 9607TIP3    H250237   2.716   5.738   6.043  0.4873 -0.6599  1.4211
 9608TIP3   OH250238   0.861   2.437   1.921 -0.5485 -0.3000 -0.2540
 9608TIP3    H150239   0.838   2.351   1.956  0.2106 -0.0229  0.9659
 9608TIP3    H250240   0.795   2.453   1.853 -0.0414 -2.3297 -1.3152
 9609TIP3   OH250241   2.663   4.447   5.451  0.3712 -0.7760 -0.3499
 9609TIP3    H150242   2.709   4.388   5.511 -1.4848 -1.2224  0.7058
 9609TIP3    H250243   2.582   4.401   5.429 -0.9052  1.1113  0.1097
 9610TIP3   OH250244   3.059   1.661   4.921  0.4289 -0.1401  0.7915
 9610TIP3    H150245   3.094   1.588   4.870  1.6038  0.7125  0.3353
 9610TIP3    H250246   3.122   1.732   4.908 -1.3596  1.3971  0.1169
 9611TIP3   OH250247   6.756   3.816   1.116 -0.1253 -0.2406 -0.0058
 9611TIP3    H150248   6.754   3.902   1.158  1.7203 -0.3528  0.3854
 9611TIP3    H250249   6.775   3.754   1.188  0.1032 -0.7888 -0.5291
 9612TIP3   OH250250   2.350   1.873  11.402  0.0269 -0.2754 -0.4221
 9612TIP3    H150251   2.346   1.821  11.482  0.4973 -0.5643 -0.5811
 9612TIP3    H250252   2.320   1.960  11.428 -0.9342 -0.6611 -0.1909
 9613TIP3   OH250253   3.783   2.853  10.328  0.3325 -0.1053  0.4585
 9613TIP3    H150254   3.690   2.851  10.306  0.7179 -0.6382 -1.2659
 9613TIP3    H250255   3.828   2.866  10.244  1.8313 -0.1835  1.2031
 9614TIP3   OH250256   5.601   3.117  15.069 -0.2604 -0.1203  0.0638
 9614TIP3    H150257   5.665   3.093  15.136  0.2198 -1.6363 -0.8771
 9614TIP3    H250258   5.538   3.173  15.114  0.9393  0.2335  1.3647
 9615TIP3   OH250259   6.137   4.289  16.634 -0.4152 -0.4217  0.1113
 9615TIP3    H150260   6.132   4.204  16.678 -0.4492 -0.2797  0.3819
 9615TIP3    H250261   6.045   4.315  16.620 -0.4184 -0.0199  0.8244
 9616TIP3   OH250262   6.705   4.120   0.379 -0.5525  0.8175 -0.0361
 9616TIP3    H150263   6.774   4.177   0.345 -0.9748  1.2700 -0.1423
 9616TIP3    H250264   6.682   4.063   0.306 -0.6114  0.9746 -0.1402
 9617TIP3   OH250265   6.141   1.096   3.643  0.0023 -0.3655 -0.6447
 9617TIP3    H150266   6.121   1.136   3.727  0.8399  0.6815 -0.9192
 9617TIP3    H250267   6.103   1.008   3.648  0.1298 -0.3524  0.8577
 9618TIP3   OH250268   1.589   5.902  11.759 -0.5613 -0.0501  0.2175
 9618TIP3    H150269   1.633   5.821  11.785 -1.1225 -0.0234  1.3228
 9618TIP3    H250270   1.525   5.875  11.693 -1.9358 -0.8288  1.7870
 9619TIP3   OH250271   3.707   0.861  10.991 -0.1213 -0.1950 -0.1380
 9619TIP3    H150272   3.622   0.844  10.949 -0.2936 -0.8247  0.4538
 9619TIP3    H250273   3.700   0.819  11.076  0.0234  1.5474  0.7729
 9620TIP3   OH250274   6.257   0.549  11.603 -0.5281 -0.4025 -0.8561
 9620TIP3    H150275   6.283   0.464  11.639 -1.4464 -0.0410  0.7433
 9620TIP3    H250276   6.266   0.538  11.509  0.2883 -1.9695 -0.6375
 9621TIP3   OH250277   3.405   5.297   0.578  0.0253 -1.0192 -0.5796
 9621TIP3    H150278   3.472   5.314   0.512  1.9326  2.2762  1.8618
 9621TIP3    H250279   3.417   5.205   0.602  2.7720 -0.9099 -1.2442
 9622TIP3   OH250280   4.897   0.042   4.452  0.6454  0.1240 -0.2539
 9622TIP3    H150281   4.954   0.082   4.518 -0.3066 -0.2858  0.8391
 9622TIP3    H250282   4.809   0.070   4.475  0.2335 -0.4904 -1.0206
 9623TIP3   OH250283   5.072   4.858   4.073  0.0267  0.7926 -0.4754
 9623TIP3    H150284   5.168   4.853   4.080  0.0279  0.0531 -0.9059
 9623TIP3    H250285   5.044   4.768   4.061 -0.9600  0.6540  2.1647
 9624TIP3   OH250286   5.292   1.987  13.128 -0.0063 -0.1610  0.0712
 9624TIP3    H150287   5.387   1.982  13.117  0.5135  2.8615  2.0555
 9624TIP3    H250288   5.266   2.060  13.072 -1.1175 -0.6643 -0.0972
 9625TIP3   OH250289   1.436   3.053  17.098  0.3548  0.0135 -0.1489
 9625TIP3    H150290   1.486   2.978  17.064 -2.4757 -0.9760 -2.6129
 9625TIP3    H250291   1.376   3.015  17.162  1.3460  0.8766  1.3650
 9626TIP3   OH250292   3.455   0.312   1.381 -0.2477 -1.0809 -0.1000
 9626TIP3    H150293   3.475   0.221   1.402 -0.0099 -1.6908 -2.7365
 9626TIP3    H250294   3.507   0.363   1.444  0.0567 -2.7301  1.0376
 9627TIP3   OH250295   0.666   1.659  15.367 -0.2524 -0.3342 -0.0975
 9627TIP3    H150296   0.594   1.677  15.306  0.9467  2.4249 -0.8554
 9627TIP3    H250297   0.739   1.633  15.310  0.2667  0.1599  0.3273
 9628TIP3   OH250298   0.541   1.402  13.162  0.0174 -0.4168 -0.0160
 9628TIP3    H150299   0.539   1.455  13.242 -1.0725 -0.5839  0.0719
 9628TIP3    H250300   0.555   1.466  13.092  0.4694 -0.2156  0.2507
 9629TIP3   OH250301   2.955   6.630   1.381 -0.0341 -0.5369  0.1758
 9629TIP3    H150302   2.977   6.549   1.336  1.5310  0.3165 -0.7024
 9629TIP3    H250303   3.017   6.636   1.454 -0.8048 -0.6092  0.8494
 9630TIP3   OH250304   1.921   4.093  16.919 -0.2048 -0.1231 -0.1764
 9630TIP3    H150305   1.925   4.189  16.915 -0.3517 -0.1537 -1.5448
 9630TIP3    H250306   1.892   4.074  17.008  1.2142  1.0500  0.5873
 9631TIP3   OH250307   4.494   4.337  13.355  0.4883  0.1850  0.1741
 9631TIP3    H150308   4.495   4.244  13.332  1.0203  0.3708 -0.5725
 9631TIP3    H250309   4.449   4.340  13.440  2.3166 -0.9791  1.2436
 9632TIP3   OH250310   0.251   0.508   1.045 -0.6994 -0.0296  0.2643
 9632TIP3    H150311   0.279   0.443   0.980  0.8129  1.5510 -0.7411
 9632TIP3    H250312   0.302   0.586   1.026 -0.3955  0.6285  3.2081
 9633TIP3   OH250313   5.059   3.637  10.629 -0.3220 -0.4658  0.2648
 9633TIP3    H150314   4.995   3.582  10.673 -1.3612  0.3453 -0.1767
 9633TIP3    H250315   5.144   3.601  10.654 -0.9271 -1.0951  1.4837
 9634TIP3   OH250316   2.501   2.508  13.740  0.5073 -0.0127 -0.0038
 9634TIP3    H150317   2.446   2.549  13.673  1.7144 -0.0905 -1.0680
 9634TIP3    H250318   2.442   2.447  13.784 -0.2279 -0.2434 -1.2434
 9635TIP3   OH250319   4.898   3.260  16.932 -0.1794  0.3679  0.9309
 9635TIP3    H150320   4.880   3.354  16.930  2.4236  0.9388 -0.0788
 9635TIP3    H250321   4.932   3.241  16.845 -0.0879 -1.4036  1.3240
 9636TIP3   OH250322   1.940   4.249  15.978 -0.1579 -0.3255 -0.0301
 9636TIP3    H150323   2.004   4.188  15.942 -1.4506 -1.7089 -0.1210
 9636TIP3    H250324   1.863   4.239  15.921 -0.6998  0.7389  0.4872
 9637TIP3   OH250325   5.805   4.640  13.255  0.1988 -0.1256 -0.3163
 9637TIP3    H150326   5.837   4.629  13.344  0.9824 -1.1282 -0.7039
 9637TIP3    H250327   5.754   4.561  13.238  0.6715 -0.2862 -1.0081
 9638TIP3   OH250328   0.919   4.129   1.982 -0.6019 -0.7437 -0.0001
 9638TIP3    H150329   0.962   4.117   1.898  1.0420 -0.2100  0.7254
 9638TIP3    H250330   0.983   4.102   2.047 -0.8581  1.2268  1.1793
 9639TIP3   OH250331   0.593   0.082   4.824 -0.7188  0.2448  0.4473
 9639TIP3    H150332   0.518   0.022   4.835 -1.6081  0.6096 -2.6988
 9639TIP3    H250333   0.562   0.149   4.763  1.4315  1.8476  0.9907
 9640TIP3   OH250334   2.867   1.083  12.322  0.0802  0.1815 -0.3838
 9640TIP3    H150335   2.777   1.104  12.296  0.2698  0.0008 -1.2355
 9640TIP3    H250336   2.859   1.052  12.412 -0.8547 -0.7565 -0.7595
 9641TIP3   OH250337   2.022   1.364   3.587 -0.2805  0.2974  0.0420
 9641TIP3    H150338   2.108   1.377   3.627 -0.2825  1.7105 -0.3717
 9641TIP3    H250339   2.026   1.275   3.552  1.3060  0.5801 -0.6246
 9642TIP3   OH250340   1.853   5.130   1.949  0.2527  0.4971 -0.3993
 9642TIP3    H150341   1.820   5.217   1.928  0.0662  0.4544 -0.2896
 9642TIP3    H250342   1.848   5.125   2.044 -0.6148  0.0302 -0.4590
 9643TIP3   OH250343   2.733   6.704  15.984 -0.4994  0.8132 -0.2026
 9643TIP3    H150344   2.791   6.689  15.910 -0.0888  2.4272 -0.2411
 9643TIP3    H250345   2.649   6.727  15.944 -0.5392  0.7478 -0.1571
 9644TIP3   OH250346   6.276   6.339  13.390 -0.1054 -0.4899  0.1395
 9644TIP3    H150347   6.207   6.283  13.353  0.7811 -1.0555 -0.7257
 9644TIP3    H250348   6.343   6.277  13.419  0.5671  0.0879 -0.1483
 9645TIP3   OH250349   0.900   2.732  15.440  0.1028  0.2221 -0.1760
 9645TIP3    H150350   0.986   2.694  15.458 -0.4087 -0.4999  0.8108
 9645TIP3    H250351   0.905   2.821  15.474  0.2493 -0.0379  0.4842
 9646TIP3   OH250352   4.338   0.760   2.075  0.4164 -0.2829  0.0439
 9646TIP3    H150353   4.421   0.780   2.118  0.0893 -0.9963  1.0330
 9646TIP3    H250354   4.278   0.828   2.105  0.2450 -0.6572  0.5636
 9647TIP3   OH250355   5.101   5.741   6.543 -0.3405 -0.1979  0.0814
 9647TIP3    H150356   5.160   5.794   6.597  1.0949 -1.1492 -0.4899
 9647TIP3    H250357   5.063   5.678   6.604 -0.9871  0.5871  0.5036
 9648TIP3   OH250358   1.160   5.404  13.750 -0.4073 -0.7884  0.0221
 9648TIP3    H150359   1.201   5.337  13.805 -0.5482 -0.6287  0.3209
 9648TIP3    H250360   1.230   5.433  13.691 -0.4807 -1.5643 -0.4583
 9649TIP3   OH250361   3.657   4.000  13.285 -0.2281  0.8209 -0.8700
 9649TIP3    H150362   3.640   3.970  13.195 -1.7844 -0.7297 -0.1232
 9649TIP3    H250363   3.572   3.994  13.328  0.4435  1.7792  0.6629
 9650TIP3   OH250364   5.730   4.816  15.994 -0.4239 -0.4435  0.0342
 9650TIP3    H150365   5.668   4.759  16.039  0.5037 -1.8340 -0.4021
 9650TIP3    H250366   5.751   4.884  16.059 -1.8932 -0.3023  0.3968
 9651TIP3   OH250367   4.042   2.207  13.247  0.2067  0.3493 -0.3581
 9651TIP3    H150368   4.122   2.171  13.285  0.2792 -0.6109 -1.3683
 9651TIP3    H250369   4.072   2.272  13.184  0.1442  0.7930  0.0651
 9652TIP3   OH250370   1.609   3.829   5.480 -0.1335  0.3035  0.0398
 9652TIP3    H150371   1.646   3.852   5.565 -2.1097  0.0263  1.0301
 9652TIP3    H250372   1.515   3.824   5.495 -0.4586 -0.7147 -1.9551
 9653TIP3   OH250373   2.578   5.936   5.006 -0.4810  0.3093  0.6787
 9653TIP3    H150374   2.585   5.875   5.080  1.0604  0.1849  0.4706
 9653TIP3    H250375   2.588   5.880   4.928 -2.9707  0.3125  0.2928
 9654TIP3   OH250376   3.000   3.089   6.082 -0.1425 -0.0148 -0.0090
 9654TIP3    H150377   3.016   3.172   6.127  0.9383 -1.1368  1.8332
 9654TIP3    H250378   3.086   3.065   6.046 -0.8226  0.4718 -2.1046
 9655TIP3   OH250379   4.659   0.451   1.440  0.8520 -1.0230 -0.0153
 9655TIP3    H150380   4.731   0.514   1.448 -0.8183  1.0218 -0.1236
 9655TIP3    H250381   4.655   0.430   1.347 -0.6009  1.3892 -0.5944
 9656TIP3   OH250382   0.172   0.268   2.733 -0.6561 -0.3769 -0.3370
 9656TIP3    H150383   0.137   0.357   2.721  1.0982  0.1232 -2.2411
 9656TIP3    H250384   0.157   0.225   2.649 -0.3200 -1.4947  0.1531
 9657TIP3   OH250385   5.605   1.525   5.540 -0.0291 -0.0080 -0.0238
 9657TIP3    H150386   5.639   1.506   5.627 -0.1454  0.1821  0.0651
 9657TIP3    H250387   5.624   1.447   5.489 -1.0672 -0.6357  0.4988
 9658TIP3   OH250388   4.676   3.997   2.543  0.1476 -0.1864 -0.2660
 9658TIP3    H150389   4.586   3.994   2.575  0.1868 -0.1944 -0.1529
 9658TIP3    H250390   4.709   4.081   2.575  0.7846 -1.0005  1.3653
 9659TIP3   OH250391   5.633   6.777  13.451 -0.0021 -0.5165  0.0207
 9659TIP3    H150392   5.566   6.768  13.383 -0.0449 -0.2163  0.0213
 9659TIP3    H250393   5.692   6.844  13.417 -0.3451  0.0576  0.5321
 9660TIP3   OH250394   6.050   4.340   1.529 -0.5237 -0.1037 -0.2721
 9660TIP3    H150395   6.069   4.319   1.438  1.2944  0.9674 -0.1880
 9660TIP3    H250396   5.957   4.319   1.540 -1.2724  1.4844 -2.8655
 9661TIP3   OH250397   4.610   1.222  17.140 -0.4540 -0.5161  0.4509
 9661TIP3    H150398   4.615   1.203  17.233  0.4673 -1.0160  0.3164
 9661TIP3    H250399   4.523   1.260  17.127 -1.0674 -1.5538  1.3191
 9662TIP3   OH250400   3.957   5.520   1.897 -0.2681 -0.0918 -0.1780
 9662TIP3    H150401   3.930   5.434   1.865  1.8855 -0.8094 -0.2554
 9662TIP3    H250402   3.966   5.508   1.992  2.0826 -0.6627 -0.3955
 9663TIP3   OH250403   4.311   5.698  12.027 -0.6259  0.2798  0.1671
 9663TIP3    H150404   4.318   5.775  11.970 -0.5049 -1.2224 -1.9534
 9663TIP3    H250405   4.361   5.630  11.982 -0.7401 -1.0683  1.9684
 9664TIP3   OH250406   6.587   0.107  15.135  0.4116  0.1217 -0.1359
 9664TIP3    H150407   6.648   0.172  15.170  0.9798 -1.8002  2.7692
 9664TIP3    H250408   6.528   0.088  15.208 -1.1180 -1.0573 -1.6102
 9665TIP3   OH250409   6.064   5.353   5.700 -0.1487 -0.6033 -0.7993
 9665TIP3    H150410   6.136   5.370   5.640 -0.9379  0.0966 -1.5757
 9665TIP3    H250411   6.104   5.354   5.787  0.6202  0.7352 -1.1398
 9666TIP3   OH250412   1.600   4.341   5.348 -0.3508 -0.2505 -0.0719
 9666TIP3    H150413   1.662   4.273   5.375 -0.7775 -0.4643  0.3668
 9666TIP3    H250414   1.649   4.423   5.356 -0.8714 -0.1332  2.7222
 9667TIP3   OH250415   4.323   0.966  15.814  0.2376 -0.6736 -0.0262
 9667TIP3    H150416   4.390   1.013  15.863  1.4870 -2.9077  0.5206
 9667TIP3    H250417   4.362   0.949  15.729 -0.2654 -0.5395 -0.2847
 9668TIP3   OH250418   3.295   2.139  14.590  0.1208  0.2530  0.2884
 9668TIP3    H150419   3.205   2.158  14.617  0.2945 -2.1178  3.0154
 9668TIP3    H250420   3.343   2.218  14.611 -0.9480  0.7687  0.8936
 9669TIP3   OH250421   1.729   5.953   4.350  0.2154  0.6628 -0.2162
 9669TIP3    H150422   1.821   5.970   4.368  0.7762  0.4566 -2.5873
 9669TIP3    H250423   1.706   6.015   4.281 -0.5244 -1.2835 -1.8366
 9670TIP3   OH250424   0.027   2.828   4.984 -0.4924  0.3231 -0.1043
 9670TIP3    H150425   0.032   2.915   4.944  2.6596  0.2815 -0.0133
 9670TIP3    H250426   0.116   2.795   4.981 -1.3152 -2.2866  1.3148
 9671TIP3   OH250427   1.075   2.313  17.132  0.1082 -0.5456 -0.8031
 9671TIP3    H150428   1.053   2.222  17.149  2.4764 -1.1600 -0.6524
 9671TIP3    H250429   1.096   2.316  17.038 -3.3186  0.6924 -1.6891
 9672TIP3   OH250430   3.066   4.614  16.088  0.4195 -0.3554  0.1962
 9672TIP3    H150431   3.084   4.565  16.169  2.1995 -0.2185 -0.0718
 9672TIP3    H250432   3.151   4.650  16.062 -0.8421  3.3350  0.6195
 9673TIP3   OH250433   1.696   4.104  15.290 -0.6122  0.4718 -0.0095
 9673TIP3    H150434   1.696   4.147  15.205  1.0008  0.3746 -0.0849
 9673TIP3    H250435   1.787   4.080  15.305 -1.2746 -1.9517  0.5273
 9674TIP3   OH250436   5.694   0.983   3.361 -0.0262 -0.0082 -0.1569
 9674TIP3    H150437   5.688   0.955   3.452  1.4056  0.8592  0.2272
 9674TIP3    H250438   5.638   1.061   3.356 -0.3201 -0.2125 -0.0991
 9675TIP3   OH250439   2.281   5.981   2.548 -1.0469  0.1242  0.3290
 9675TIP3    H150440   2.242   6.026   2.623 -2.7129  1.2823 -1.1561
 9675TIP3    H250441   2.329   5.908   2.587 -0.5922  1.5278  2.6226
 9676TIP3   OH250442   2.993   4.811  15.862  0.5550 -0.3336  0.3636
 9676TIP3    H150443   2.918   4.766  15.823 -0.7100  0.6633  1.5186
 9676TIP3    H250444   2.996   4.778  15.953  2.2249 -1.1672  0.0535
 9677TIP3   OH250445   6.540   6.604   1.259  0.1774 -0.2548 -0.2110
 9677TIP3    H150446   6.556   6.548   1.183 -0.0245 -1.5539  0.6719
 9677TIP3    H250447   6.534   6.693   1.223 -0.3461 -0.8884 -1.7508
 9678TIP3   OH250448   1.212   5.292  11.384  0.2738 -0.1367 -0.2315
 9678TIP3    H150449   1.125   5.298  11.422  0.9992 -0.2817  1.5443
 9678TIP3    H250450   1.265   5.356  11.432  1.7205 -1.7844  0.4887
 9679TIP3   OH250451   2.269   2.055  12.420 -0.4782  0.0251 -0.2281
 9679TIP3    H150452   2.278   2.004  12.501 -0.8844 -0.4465 -0.4727
 9679TIP3    H250453   2.217   1.999  12.362  1.0489 -0.2996 -1.3604
 9680TIP3   OH250454   6.694   0.804  14.143 -0.0037  0.5609 -0.8689
 9680TIP3    H150455   6.787   0.784  14.153  0.1571  0.9568 -1.4797
 9680TIP3    H250456   6.677   0.792  14.049 -1.0291 -1.3880 -0.4861
 9681TIP3   OH250457   1.725   2.783  11.926 -0.2601 -0.3788 -0.0015
 9681TIP3    H150458   1.709   2.860  11.979  0.6091  0.0624 -0.3588
 9681TIP3    H250459   1.820   2.770  11.930 -0.0093  0.2962 -2.2701
 9682TIP3   OH250460   4.422   1.156  16.669  0.1949  0.3850  0.0837
 9682TIP3    H150461   4.345   1.209  16.647 -0.9346 -1.5960 -1.0727
 9682TIP3    H250462   4.428   1.162  16.765 -1.4616  0.5211  0.2169
 9683TIP3   OH250463   3.423   0.317  12.028 -0.3036 -0.0005 -0.1699
 9683TIP3    H150464   3.487   0.324  11.957  0.3318 -1.1176  0.2732
 9683TIP3    H250465   3.373   0.238  12.007 -1.5976  0.8715 -0.5315
 9684TIP3   OH250466   3.840   1.415  16.580 -0.0450 -0.4539  0.0416
 9684TIP3    H150467   3.752   1.400  16.545 -0.5948 -1.2704  1.6430
 9684TIP3    H250468   3.834   1.499  16.626 -0.0946 -0.6472  0.3983
 9685TIP3   OH250469   2.475   2.893  11.199  0.1892 -0.5341 -0.1585
 9685TIP3    H150470   2.385   2.869  11.220  0.3399  0.0744  1.3050
 9685TIP3    H250471   2.513   2.814  11.161 -0.8575 -0.8992 -0.4874
 9686TIP3   OH250472   1.165   2.194   4.158  0.1623  0.0029 -0.5696
 9686TIP3    H150473   1.112   2.228   4.230 -1.0746  0.6469 -1.7221
 9686TIP3    H250474   1.227   2.134   4.199  0.7128  1.7208  1.2460
 9687TIP3   OH250475   4.584   3.848  11.232 -0.1121 -0.7805 -0.2885
 9687TIP3    H150476   4.598   3.780  11.167 -0.2128  0.2188 -1.3919
 9687TIP3    H250477   4.657   3.909  11.220 -0.2587 -0.4612  0.3740
 9688TIP3   OH250478   6.676   1.013  15.391 -0.0120  0.2424 -0.2292
 9688TIP3    H150479   6.600   0.960  15.368 -0.8764  1.0248  0.7540
 9688TIP3    H250480   6.680   1.081  15.323  1.5773 -1.4698 -1.9626
 9689TIP3   OH250481   4.732   2.121   4.125 -0.4660  0.3672  0.4238
 9689TIP3    H150482   4.781   2.092   4.048 -1.1534 -0.6203  0.3353
 9689TIP3    H250483   4.649   2.073   4.120 -0.2301 -0.3140  2.1684
 9690TIP3   OH250484   1.846   6.296   3.509  0.4008 -0.0854 -0.1387
 9690TIP3    H150485   1.860   6.386   3.536  1.1298 -1.1068  3.4478
 9690TIP3    H250486   1.753   6.290   3.489 -0.1197  1.0231  1.7461
 9691TIP3   OH250487   6.725   2.115  16.058  0.3854  0.3639 -0.2712
 9691TIP3    H150488   6.751   2.194  16.104  3.0582 -0.2041 -0.6242
 9691TIP3    H250489   6.775   2.045  16.101 -0.0175 -0.7462 -1.5451
 9692TIP3   OH250490   6.372   5.604   3.456  0.3089  0.0401 -0.1250
 9692TIP3    H150491   6.374   5.663   3.531 -0.6951  0.8972 -0.7424
 9692TIP3    H250492   6.462   5.602   3.424  0.5234  0.5255  0.4308
 9693TIP3   OH250493   5.963   3.871   5.028 -0.1316  0.1673 -0.2928
 9693TIP3    H150494   5.885   3.919   5.001 -1.0489 -1.7752 -1.3444
 9693TIP3    H250495   6.018   3.868   4.950  0.5442  0.6392  0.1530
 9694TIP3   OH250496   2.480   0.287  11.506  0.8898  0.0427  0.1201
 9694TIP3    H150497   2.387   0.296  11.486  0.9943  0.0991 -0.3488
 9694TIP3    H250498   2.494   0.193  11.513  0.6286  0.0605  1.0280
 9695TIP3   OH250499   4.721   2.321   0.690  0.5438  0.4382  0.1800
 9695TIP3    H150500   4.632   2.353   0.676 -1.0400 -2.8325  1.5930
 9695TIP3    H250501   4.767   2.339   0.608 -2.0889  0.2847 -1.4407
 9696TIP3   OH250502   0.646   3.568  13.312 -0.2684 -0.8981 -0.0830
 9696TIP3    H150503   0.589   3.626  13.363  0.4679 -1.3789  1.3213
 9696TIP3    H250504   0.697   3.521  13.377 -0.1444 -2.4206 -1.2352
 9697TIP3   OH250505   5.306   3.412   2.744  0.8185  0.0412 -0.2315
 9697TIP3    H150506   5.369   3.365   2.798 -1.1972 -2.1180  0.4256
 9697TIP3    H250507   5.230   3.425   2.800  0.3492  1.8780 -1.2060
 9698TIP3   OH250508   1.508   4.253   2.014 -0.9131  0.1853 -0.6288
 9698TIP3    H150509   1.594   4.217   2.037 -1.1422 -0.3982 -0.6704
 9698TIP3    H250510   1.524   4.346   1.999 -0.3341  0.1266 -0.3890
 9699TIP3   OH250511   2.631   1.049   0.821 -0.4166  0.3323  0.1780
 9699TIP3    H150512   2.676   0.998   0.753 -1.0013  1.0000 -0.7376
 9699TIP3    H250513   2.625   0.989   0.895 -0.1153 -0.5593 -0.4919
 9700TIP3   OH250514   2.617   1.151  17.117  0.0443  0.1101 -0.1405
 9700TIP3    H150515   2.613   1.068  17.166 -0.2963  0.9756  1.3635
 9700TIP3    H250516   2.679   1.205  17.165 -1.6741  1.6617  0.4854
 9701TIP3   OH250517   3.189   4.227   0.100 -0.1754 -0.3124 -0.3673
 9701TIP3    H150518   3.173   4.315   0.135 -1.4462 -0.1244 -1.3708
 9701TIP3    H250519   3.200   4.173   0.178 -1.1790  0.4195  0.3052
 9702TIP3   OH250520   3.807   1.136  13.853  0.0608  0.0872  0.4072
 9702TIP3    H150521   3.804   1.091  13.769 -2.1371 -1.5161  1.2675
 9702TIP3    H250522   3.897   1.123  13.884  0.5458 -0.3473 -1.1163
 9703TIP3   OH250523   3.665   5.008  11.965  0.3373 -0.1642 -0.0290
 9703TIP3    H150524   3.645   5.027  12.057 -0.3763  1.2631 -0.4388
 9703TIP3    H250525   3.586   4.967  11.932  0.9257 -1.5139  0.1999
 9704TIP3   OH250526   1.975   2.392  10.254  0.1792 -0.3007  0.1895
 9704TIP3    H150527   2.061   2.414  10.218  0.3262 -0.3186  0.5252
 9704TIP3    H250528   1.952   2.309  10.212 -1.0247  1.1295 -2.1942
 9705TIP3   OH250529   0.611   2.729  16.332 -0.0183 -0.6131 -1.4286
 9705TIP3    H150530   0.671   2.666  16.291  1.5003 -0.6745  0.6723
 9705TIP3    H250531   0.656   2.813  16.323  1.1683 -0.8422  1.2996
 9706TIP3   OH250532   1.439   3.030   2.317  0.1628 -0.5956  0.3778
 9706TIP3    H150533   1.468   3.031   2.226  1.2869 -0.9456  0.7183
 9706TIP3    H250534   1.517   3.004   2.367 -0.7490 -1.5980  1.3302
 9707TIP3   OH250535   0.526   1.301  12.541 -0.1016 -0.0899  0.2751
 9707TIP3    H150536   0.616   1.276  12.520 -0.2020 -0.2662  0.0529
 9707TIP3    H250537   0.497   1.354  12.467  0.3775  1.3791  1.1006
 9708TIP3   OH250538   2.884   5.146   2.576  0.2639  0.4377 -0.9676
 9708TIP3    H150539   2.820   5.177   2.640  0.3258 -0.0877 -0.6434
 9708TIP3    H250540   2.913   5.225   2.530 -1.1660  0.5968 -1.6405
 9709TIP3   OH250541   0.760   3.830   0.588  0.2080  0.4240 -0.1175
 9709TIP3    H150542   0.798   3.747   0.558 -0.6209  0.0274 -0.0888
 9709TIP3    H250543   0.767   3.889   0.513  0.3504  0.1826 -0.2952
 9710TIP3   OH250544   5.358   3.815  16.577  0.1606 -0.5480 -0.1510
 9710TIP3    H150545   5.413   3.808  16.655  2.4600  2.9931 -1.2003
 9710TIP3    H250546   5.419   3.833  16.506 -2.0974 -0.1385 -2.1170
 9711TIP3   OH250547   4.579   2.140   5.726  0.6380  0.0115  0.0621
 9711TIP3    H150548   4.570   2.141   5.822 -2.2346  0.5401 -0.1073
 9711TIP3    H250549   4.649   2.201   5.708 -0.0624  1.4229  1.7890
 9712TIP3   OH250550   3.634   6.547  12.970 -0.1310 -0.4461 -0.4507
 9712TIP3    H150551   3.604   6.467  13.014 -2.1674  0.0436 -0.8332
 9712TIP3    H250552   3.600   6.539  12.880  1.8146 -0.2847 -1.2420
 9713TIP3   OH250553   5.139   1.898  14.229 -0.5184  0.1678 -0.3404
 9713TIP3    H150554   5.191   1.957  14.175 -2.4919  0.8582 -1.5836
 9713TIP3    H250555   5.163   1.811  14.199  0.8759  0.3876  0.0539
 9714TIP3   OH250556   5.920   1.022  12.107 -0.2097 -0.1477 -0.0633
 9714TIP3    H150557   5.824   1.030  12.101 -0.1550 -0.0894 -1.1874
 9714TIP3    H250558   5.939   0.935  12.070  0.1805 -0.1309  0.0941
 9715TIP3   OH250559   1.211   3.273   3.478 -0.2000 -0.2354  0.0234
 9715TIP3    H150560   1.142   3.323   3.522 -0.4425 -1.2134  0.7919
 9715TIP3    H250561   1.174   3.186   3.467  0.4946 -0.4603 -0.6082
 9716TIP3   OH250562   0.603   2.295  15.701  0.1213  0.0334 -0.1936
 9716TIP3    H150563   0.657   2.347  15.642  0.1453 -0.5009 -0.6539
 9716TIP3    H250564   0.661   2.275  15.775  1.2198 -2.1333 -1.5401
 9717TIP3   OH250565   5.328   5.867  11.095  0.3467 -0.0775  0.5555
 9717TIP3    H150566   5.371   5.918  11.164 -0.1414  0.6922  0.3088
 9717TIP3    H250567   5.324   5.927  11.020  0.8033 -0.8812 -0.1221
 9718TIP3   OH250568   4.878   2.749   3.790  0.2342  0.1076  0.1812
 9718TIP3    H150569   4.890   2.806   3.714  2.4483  1.4699  1.4253
 9718TIP3    H250570   4.947   2.776   3.851 -0.6853 -1.7516  2.1844
 9719TIP3   OH250571   2.201   5.210  15.137  0.7011  0.5615 -0.1697
 9719TIP3    H150572   2.144   5.279  15.105  0.4408  1.0144  1.2039
 9719TIP3    H250573   2.288   5.233  15.102  0.2847  0.5354 -1.2549
 9720TIP3   OH250574   4.447   5.542  12.406 -0.5645  0.3024 -0.0662
 9720TIP3    H150575   4.482   5.591  12.481 -0.4893  0.5914 -0.2909
 9720TIP3    H250576   4.409   5.463  12.445  0.0302  0.1472  0.2114
 9721TIP3   OH250577   5.814   2.635   5.866  0.3080 -0.0792 -0.2513
 9721TIP3    H150578   5.756   2.593   5.930  1.4546 -2.0908 -0.4453
 9721TIP3    H250579   5.770   2.718   5.845  0.3586  1.1982  3.8204
 9722TIP3   OH250580   0.017   0.694   5.406 -0.1574 -0.0349  0.1710
 9722TIP3    H150581  -0.074   0.693   5.436 -0.1225  1.1032  0.3725
 9722TIP3    H250582   0.048   0.605   5.420 -1.3959 -0.5814 -0.4134
 9723TIP3   OH250583   5.264   6.664   2.031  0.0150  0.0563  0.6142
 9723TIP3    H150584   5.233   6.610   2.103 -2.7216 -0.0303 -0.4934
 9723TIP3    H250585   5.342   6.708   2.065 -1.2004  0.0952  3.6594
 9724TIP3   OH250586   0.782   2.395   0.219 -0.4674  0.7755 -0.1774
 9724TIP3    H150587   0.710   2.388   0.282  0.2490  0.0017  0.5657
 9724TIP3    H250588   0.861   2.387   0.271  0.1910  1.8097 -0.9689
 9725TIP3   OH250589   1.964   1.271   4.165  0.4272 -0.1721  0.2040
 9725TIP3    H150590   1.896   1.209   4.193 -1.0069  0.4013 -1.8220
 9725TIP3    H250591   1.915   1.344   4.128  2.1492  0.1512 -1.5576
 9726TIP3   OH250592   2.647   1.028  13.394  0.1552  0.6720  0.3954
 9726TIP3    H150593   2.682   0.952  13.347 -0.4246  1.9597 -2.3074
 9726TIP3    H250594   2.561   1.000  13.424  0.4213 -0.0945  0.4821
 9727TIP3   OH250595   2.955   5.026  12.751  0.0962  0.0133 -0.3497
 9727TIP3    H150596   3.047   5.003  12.750  0.3545  1.0092 -0.2996
 9727TIP3    H250597   2.948   5.098  12.814 -0.8427 -0.5473  0.2309
 9728TIP3   OH250598   4.424   5.156   2.979 -0.1975  0.6314  0.1453
 9728TIP3    H150599   4.397   5.167   3.071 -1.7873  0.6967 -0.2964
 9728TIP3    H250600   4.433   5.245   2.946 -0.6844  0.6214 -0.0323
 9729TIP3   OH250601   0.800   0.927   3.110  0.3783  0.5250  0.7096
 9729TIP3    H150602   0.728   0.903   3.052  0.1460  0.3385  1.0682
 9729TIP3    H250603   0.843   1.001   3.066  0.3243  0.2652  0.2130
 9730TIP3   OH250604   5.977   5.191  13.485  0.3803  0.3469 -0.4583
 9730TIP3    H150605   6.054   5.165  13.536 -0.1781 -1.3340 -0.4203
 9730TIP3    H250606   6.014   5.233  13.407  1.3928 -0.9442 -0.7267
 9731TIP3   OH250607   2.530   3.719   2.407  0.0617 -0.5182 -0.5515
 9731TIP3    H150608   2.591   3.651   2.379 -0.5773 -0.7090 -1.5497
 9731TIP3    H250609   2.541   3.723   2.502  3.1108  0.9040 -0.8443
 9732TIP3   OH250610   4.283   0.408  15.297 -0.1432  0.1891  0.5258
 9732TIP3    H150611   4.297   0.327  15.347 -0.6090 -0.2156  0.0187
 9732TIP3    H250612   4.274   0.378  15.206 -3.8157  0.3597  0.6601
 9733TIP3   OH250613   3.996   3.812   4.916 -0.0443  0.1542 -0.0856
 9733TIP3    H150614   4.002   3.860   4.834 -0.4489 -2.7973 -1.9910
 9733TIP3    H250615   3.906   3.825   4.946 -0.0287  0.8668 -0.3392
 9734TIP3   OH250616   4.053   5.302   5.067  0.4491 -0.1518 -0.0344
 9734TIP3    H150617   4.058   5.225   5.124 -0.3434 -1.9627 -2.2160
 9734TIP3    H250618   4.144   5.318   5.041  0.7842  0.5442  1.5019
 9735TIP3   OH250619   4.950   3.068  11.862 -0.3165  0.5093  0.0558
 9735TIP3    H150620   4.914   2.980  11.852  0.3736  0.2619 -0.3515
 9735TIP3    H250621   4.896   3.124  11.806 -2.7859  0.9736  2.6806
 9736TIP3   OH250622   3.276   1.084  15.370  0.1350 -0.0933 -0.3140
 9736TIP3    H150623   3.280   1.058  15.278  0.5858  1.0870 -0.6445
 9736TIP3    H250624   3.332   1.021  15.415 -0.1739 -0.7471 -0.8255
 9737TIP3   OH250625   2.439   3.935   3.078  0.1104  0.5033 -0.0291
 9737TIP3    H150626   2.496   3.859   3.092 -1.3078 -0.2955  1.8804
 9737TIP3    H250627   2.423   3.970   3.166 -1.2933  1.4602 -0.6182
 9738TIP3   OH250628   3.932   5.091   2.857 -0.2655  0.4333  0.4912
 9738TIP3    H150629   3.838   5.074   2.861 -0.3924  0.5411 -1.3533
 9738TIP3    H250630   3.971   5.003   2.856 -0.6132  0.1960 -2.8391
 9739TIP3   OH250631   0.160   6.168   3.530  0.0075 -0.8145 -0.0980
 9739TIP3    H150632   0.072   6.178   3.494  0.7233  3.8058 -1.1392
 9739TIP3    H250633   0.152   6.193   3.622  0.2557 -0.0427 -0.2795
 9740TIP3   OH250634   2.171   2.830   3.690  0.5723 -0.7153 -0.1047
 9740TIP3    H150635   2.241   2.786   3.739  3.6008  0.9313 -2.5671
 9740TIP3    H250636   2.170   2.919   3.725 -0.1404 -0.6678 -0.2439
 9741TIP3   OH250637   5.162   0.710   3.215 -0.2995  0.5612  0.6336
 9741TIP3    H150638   5.243   0.751   3.244  0.8716 -1.2519  0.1191
 9741TIP3    H250639   5.161   0.721   3.120  1.2945 -2.5140  0.1357
 9742TIP3   OH250640   5.281   5.516  10.693 -0.7464 -0.0909 -0.2975
 9742TIP3    H150641   5.254   5.426  10.713  0.5441 -0.2225  1.0814
 9742TIP3    H250642   5.356   5.507  10.634  0.5331 -0.0463  1.2482
 9743TIP3   OH250643   0.499   1.370   1.795  0.1184  0.4604 -0.0384
 9743TIP3    H150644   0.567   1.366   1.862  0.8675  0.5585 -0.7895
 9743TIP3    H250645   0.440   1.439   1.826  0.6719  0.7793  0.3238
 9744TIP3   OH250646   2.891   4.231  16.611 -0.1270 -0.3356 -0.1390
 9744TIP3    H150647   2.909   4.279  16.692 -0.3278 -2.1038  0.9986
 9744TIP3    H250648   2.828   4.164  16.636 -1.0006 -0.2578 -2.0128
 9745TIP3   OH250649   5.776   1.233   3.532 -0.5383 -0.0631  0.2197
 9745TIP3    H150650   5.805   1.320   3.562 -0.6579  0.1875 -0.3810
 9745TIP3    H250651   5.813   1.225   3.444 -1.2880 -0.2402 -0.0868
 9746TIP3   OH250652   5.688   4.632   0.699 -0.2365 -0.0681 -0.5859
 9746TIP3    H150653   5.764   4.684   0.726 -0.0859 -1.4893  2.0213
 9746TIP3    H250654   5.638   4.691   0.642  2.6790  0.9648 -2.3001
 9747TIP3   OH250655   3.613   4.331  16.581  0.3139  0.0659 -0.3705
 9747TIP3    H150656   3.646   4.410  16.623 -0.4022 -0.4814  1.2743
 9747TIP3    H250657   3.587   4.360  16.493 -1.0870  1.9477  0.6028
 9748TIP3   OH250658   3.628   2.353   0.453 -0.0712 -0.2655  0.0221
 9748TIP3    H150659   3.547   2.400   0.468  0.0521  0.0192 -0.1983
 9748TIP3    H250660   3.622   2.276   0.509  0.1667  0.5300  1.1756
 9749TIP3   OH250661   6.375   4.880   5.277 -0.9299  0.1237  0.2854
 9749TIP3    H150662   6.359   4.788   5.296  0.8257 -0.3577 -0.3271
 9749TIP3    H250663   6.470   4.889   5.285 -0.7669  1.2671 -2.1442
 9750TIP3   OH250664   1.130   3.754   3.606 -0.4549 -0.2483  0.5224
 9750TIP3    H150665   1.102   3.669   3.571 -1.7949 -0.1715  1.3216
 9750TIP3    H250666   1.196   3.731   3.672 -1.4931 -0.7638  1.4107
 9751TIP3   OH250667   6.621   2.508  16.393  0.0814  0.2066  0.0495
 9751TIP3    H150668   6.558   2.440  16.416 -0.5655 -0.3657 -2.9534
 9751TIP3    H250669   6.694   2.460  16.354  0.4842  1.1153 -0.3370
 9752TIP3   OH250670   0.649   0.519   2.248  0.3782  0.0692 -0.0969
 9752TIP3    H150671   0.737   0.552   2.265  1.1603 -2.8037  2.4481
 9752TIP3    H250672   0.660   0.460   2.174  0.2123  0.8919 -0.7960
 9753TIP3   OH250673   5.544   3.166   3.126  0.4614  0.2270  0.3745
 9753TIP3    H150674   5.498   3.110   3.189 -0.7021  0.0556 -0.5794
 9753TIP3    H250675   5.550   3.112   3.047  1.9853  0.4045  0.3405
 9754TIP3   OH250676   2.841   3.160   2.840  0.0258 -0.5054  0.2394
 9754TIP3    H150677   2.876   3.074   2.863  1.0032  0.3996  2.5228
 9754TIP3    H250678   2.893   3.188   2.765 -0.0052 -1.6877 -0.2537
 9755TIP3   OH250679   4.380   2.750   0.074  0.1163 -0.3705 -0.4829
 9755TIP3    H150680   4.386   2.836   0.115 -0.5554  0.3423 -1.8077
 9755TIP3    H250681   4.327   2.698   0.134  0.6529  0.0765  0.4020
 9756TIP3   OH250682   1.314   1.644   2.126 -0.1163 -0.2715 -0.5788
 9756TIP3    H150683   1.302   1.549   2.125 -2.4450 -0.0271 -0.3404
 9756TIP3    H250684   1.296   1.671   2.036 -1.5466  0.1270 -0.1951
 9757TIP3   OH250685   4.618   2.342  15.582  0.4821  0.1853  0.4043
 9757TIP3    H150686   4.553   2.412  15.582 -1.1463 -1.2111 -1.5993
 9757TIP3    H250687   4.674   2.360  15.507  1.3423  0.3993  1.0741
 9758TIP3   OH250688   0.709   3.708   0.820 -0.0912 -0.0596 -0.2969
 9758TIP3    H150689   0.754   3.759   0.753 -0.3878 -2.8790 -2.8582
 9758TIP3    H250690   0.619   3.741   0.818 -0.2750 -0.5488 -1.8972
 9759TIP3   OH250691   4.774   5.995   4.679 -0.2071  0.1208 -0.1990
 9759TIP3    H150692   4.821   6.028   4.602  1.7582 -0.7743  0.5345
 9759TIP3    H250693   4.718   5.925   4.645  0.9449 -0.5478 -0.8158
 9760TIP3   OH250694   5.800   3.083   4.171  0.1836 -0.4294  0.0927
 9760TIP3    H150695   5.747   3.140   4.226  0.8416  0.0452  0.2487
 9760TIP3    H250696   5.738   3.020   4.134 -0.2771 -0.7490  1.3558
 9761TIP3   OH250697   0.644   6.420  15.470 -0.0140  0.5726 -0.4665
 9761TIP3    H150698   0.556   6.394  15.444 -0.2709  0.4245  0.5131
 9761TIP3    H250699   0.630   6.482  15.542  0.6975 -1.6590  1.7093
 9762TIP3   OH250700   1.584   1.059  12.885 -0.2038 -0.1716  0.4209
 9762TIP3    H150701   1.544   1.017  12.809 -0.8358  0.9371  0.1232
 9762TIP3    H250702   1.671   1.086  12.854 -1.0644  1.7362 -0.4468
 9763TIP3   OH250703   5.538   6.223   4.676  0.2495  0.4950  0.0596
 9763TIP3    H150704   5.447   6.233   4.706  0.4111 -0.0154  0.7439
 9763TIP3    H250705   5.535   6.147   4.618  0.0817  1.0181 -0.6348
 9764TIP3   OH250706   2.442   0.295   4.333 -0.7029 -1.1071 -0.3286
 9764TIP3    H150707   2.347   0.285   4.330 -1.0617  1.4670 -0.0180
 9764TIP3    H250708   2.461   0.367   4.273  0.6540  0.4243  1.7836
 9765TIP3   OH250709   3.916   4.765  10.457 -0.6425 -0.1208 -0.0335
 9765TIP3    H150710   3.857   4.689  10.458 -0.7540 -0.0607 -1.0769
 9765TIP3    H250711   3.899   4.809  10.540 -1.5881 -0.4833 -0.0186
 9766TIP3   OH250712   0.153   5.027   4.292  0.1568 -0.1222  0.2252
 9766TIP3    H150713   0.195   5.022   4.206  1.1788 -1.2581  0.7652
 9766TIP3    H250714   0.178   5.114   4.325 -0.0140  0.2127 -0.4967
 9767TIP3   OH250715   2.354   6.376  12.377  0.0719  0.4286  0.1826
 9767TIP3    H150716   2.375   6.310  12.443 -0.0961 -1.1914 -1.2928
 9767TIP3    H250717   2.432   6.379  12.320 -0.6202  0.1406 -0.8110
 9768TIP3   OH250718   0.160   5.817   1.542  0.0746  0.4609  0.5552
 9768TIP3    H150719   0.228   5.751   1.559  0.3506  0.5748 -0.1049
 9768TIP3    H250720   0.163   5.832   1.448 -1.6580 -0.3964  0.3014
 9769TIP3   OH250721   1.608   0.012  11.626  0.3767  0.2878  0.3598
 9769TIP3    H150722   1.646  -0.037  11.553 -1.2529 -2.6139  1.3139
 9769TIP3    H250723   1.581  -0.055  11.688 -0.3154  2.5536  2.6583
 9770TIP3   OH250724   4.903   0.157  13.217 -0.2096  0.3574  0.2329
 9770TIP3    H150725   4.910   0.061  13.215  1.5088  0.4657 -0.4931
 9770TIP3    H250726   4.953   0.187  13.141  0.6789  1.8850  1.3583
 9771TIP3   OH250727   1.846   1.693   3.182  0.1395  0.2018 -0.5659
 9771TIP3    H150728   1.770   1.713   3.128 -0.5092  0.0538  0.2618
 9771TIP3    H250729   1.822   1.723   3.270  0.1981 -1.7231  0.1685
 9772TIP3   OH250730   4.206   5.955  15.898  0.7306  0.5968  0.0386
 9772TIP3    H150731   4.222   5.884  15.959  2.9225  0.1740 -0.9435
 9772TIP3    H250732   4.265   5.938  15.825 -2.8727  0.1672 -3.0470
 9773TIP3   OH250733   6.223   1.902   0.192  0.0702 -0.2254 -0.5126
 9773TIP3    H150734   6.311   1.875   0.166 -0.0032  0.2214 -1.2420
 9773TIP3    H250735   6.217   1.993   0.164 -0.2755  0.0614  0.4318
 9774TIP3   OH250736   2.919   0.383   3.494 -0.0926  0.0295 -0.5794
 9774TIP3    H150737   2.991   0.340   3.540  0.2680  0.1102 -1.0672
 9774TIP3    H250738   2.840   0.342   3.530  0.0021  1.8697  2.0390
 9775TIP3   OH250739   3.074   4.215  12.947 -0.2759  0.6134 -0.0805
 9775TIP3    H150740   3.054   4.280  12.881 -1.1576 -0.6720 -1.1479
 9775TIP3    H250741   3.022   4.241  13.023 -2.5274 -0.1136 -1.2880
 9776TIP3   OH250742   2.148   2.159   1.210 -0.4429  0.2366 -0.4166
 9776TIP3    H150743   2.095   2.228   1.251 -1.2421  0.2658 -1.4421
 9776TIP3    H250744   2.188   2.202   1.134 -0.1597 -0.1838 -0.5061
 9777TIP3   OH250745   4.615   6.091  11.767 -0.3624  0.2544 -0.6744
 9777TIP3    H150746   4.606   6.116  11.675  1.6675  0.1128 -0.9624
 9777TIP3    H250747   4.538   6.128  11.810 -0.1121  2.4589 -1.9905
 9778TIP3   OH250748   4.354   3.396  11.977  0.3762 -0.2509  1.0356
 9778TIP3    H150749   4.368   3.331  11.908 -0.3955  0.8871 -0.2671
 9778TIP3    H250750   4.442   3.418  12.007  0.9260  0.6019 -0.9839
 9779TIP3   OH250751   0.734   4.860   1.899 -1.0041  0.3131 -0.6413
 9779TIP3    H150752   0.659   4.808   1.869 -2.4185  1.3753  0.8882
 9779TIP3    H250753   0.725   4.863   1.994 -0.1856  2.1406 -0.5755
 9780TIP3   OH250754   0.539   4.605  14.284  1.0848  0.5142 -0.6122
 9780TIP3    H150755   0.456   4.614  14.332  1.3279  0.5545 -0.1903
 9780TIP3    H250756   0.527   4.659  14.206  0.5819  0.2302 -0.7368
 9781TIP3   OH250757   3.696   3.133  13.753 -0.6217 -0.7006  0.0665
 9781TIP3    H150758   3.626   3.093  13.805  0.3081 -0.3104  1.6646
 9781TIP3    H250759   3.678   3.227  13.756 -0.9108 -0.7205 -0.8584
 9782TIP3   OH250760   5.527   0.096   4.537  0.3176  0.5393  0.2136
 9782TIP3    H150761   5.496   0.038   4.468 -0.4226  0.4591  0.5967
 9782TIP3    H250762   5.606   0.053   4.571 -1.0414 -1.1061  1.5264
 9783TIP3   OH250763   3.396   2.834  12.623  0.1266  0.0487  0.1214
 9783TIP3    H150764   3.326   2.899  12.618 -0.2682 -0.1066  2.4159
 9783TIP3    H250765   3.350   2.751  12.638  0.7516 -0.3211  0.0216
 9784TIP3   OH250766   5.124   1.822   5.385  0.0069 -0.3495 -0.0069
 9784TIP3    H150767   5.061   1.750   5.380  0.6347 -0.8860 -0.3821
 9784TIP3    H250768   5.201   1.783   5.427  0.6902 -0.1374 -1.0366
 9785TIP3   OH250769   4.707   0.890   3.571 -0.1210 -0.4678 -0.1396
 9785TIP3    H150770   4.714   0.915   3.663 -0.4424 -2.1671  0.3851
 9785TIP3    H250771   4.728   0.970   3.523 -0.3905  0.5822  1.3969
 9786TIP3   OH250772   0.044   5.104   4.770  0.0116  0.4099 -0.5291
 9786TIP3    H150773  -0.029   5.133   4.825  1.1572  0.9446  0.7766
 9786TIP3    H250774   0.100   5.181   4.760  1.2123 -0.3752 -0.1281
 9787TIP3   OH250775   4.690   2.091  14.322 -0.0884 -0.4917 -0.5618
 9787TIP3    H150776   4.693   2.149  14.246  0.2106 -1.1575 -1.0742
 9787TIP3    H250777   4.684   2.149  14.397  3.2994  0.3670 -0.8095
 9788TIP3   OH250778   4.622   5.070   1.249  0.1312 -0.2219  0.4062
 9788TIP3    H150779   4.579   5.143   1.293 -0.1973 -0.8994  1.2451
 9788TIP3    H250780   4.621   4.999   1.313 -2.8233 -2.1368 -1.4976
 9789TIP3   OH250781   6.624   4.899   5.168  0.8105  0.0005 -0.4254
 9789TIP3    H150782   6.704   4.935   5.205 -0.7972  1.7523  1.5962
 9789TIP3    H250783   6.591   4.968   5.110  1.0330 -0.9394 -1.7034
 9790TIP3   OH250784   2.031   1.798  12.565  0.2304  0.1298  0.2915
 9790TIP3    H150785   2.101   1.840  12.616 -0.3088 -1.2466  2.2960
 9790TIP3    H250786   2.040   1.705  12.584  0.6274 -0.6208 -3.0540
 9791TIP3   OH250787   1.252   5.755   4.881 -0.0849  0.1347  0.3593
 9791TIP3    H150788   1.336   5.779   4.920 -0.2568  2.7760 -0.6742
 9791TIP3    H250789   1.211   5.698   4.945  1.8598 -0.0125  1.5539
 9792TIP3   OH250790   0.105   4.004  15.260  0.0720  0.0445 -0.2301
 9792TIP3    H150791   0.197   3.976  15.264  1.3139  3.5720 -0.3510
 9792TIP3    H250792   0.076   4.004  15.351 -0.0214 -1.5801 -0.2373
 9793TIP3   OH250793   2.020   0.951   2.780  0.2299 -0.4276 -0.1472
 9793TIP3    H150794   2.062   0.875   2.740 -0.6021 -0.9842 -0.0010
 9793TIP3    H250795   1.927   0.927   2.784 -0.3060  1.1975 -1.4968
 9794TIP3   OH250796   5.331   0.878   6.323 -0.4087 -0.7909  0.4634
 9794TIP3    H150797   5.254   0.914   6.367  0.7250  2.2599  0.1858
 9794TIP3    H250798   5.298   0.801   6.277 -2.7087 -1.0938  2.3992
 9795TIP3   OH250799   2.567   2.141  12.468  0.2290  0.4120 -0.7198
 9795TIP3    H150800   2.520   2.169  12.547 -0.7039  0.4836 -1.2767
 9795TIP3    H250801   2.525   2.191  12.397  0.6346 -0.1094 -1.3375
 9796TIP3   OH250802   4.471   2.896   3.603  0.2212 -0.3989  0.6257
 9796TIP3    H150803   4.382   2.926   3.618 -0.2885 -1.2462 -0.5183
 9796TIP3    H250804   4.509   2.963   3.545  0.3912  0.0413  1.2360
 9797TIP3   OH250805   4.118   4.144  11.207 -0.0962 -0.1782  0.2642
 9797TIP3    H150806   4.204   4.115  11.239 -0.1253  1.6792  2.2626
 9797TIP3    H250807   4.136   4.225  11.159 -0.7778  0.9703  1.8308
 9798TIP3   OH250808   6.210   2.388  11.015 -0.6023  0.1243 -0.1617
 9798TIP3    H150809   6.263   2.467  11.006  1.4942 -1.1147  0.5112
 9798TIP3    H250810   6.126   2.419  11.049  0.6830  1.9208  1.6158
 9799TIP3   OH250811   2.065   2.324  10.863  0.2495 -0.0950 -0.0375
 9799TIP3    H150812   2.020   2.391  10.914 -0.6672  0.4024 -1.4420
 9799TIP3    H250813   2.128   2.285  10.924 -1.0345  0.2258  1.5466
 9800TIP3   OH250814   1.709   4.694  15.603  0.0206  0.1055  0.4434
 9800TIP3    H150815   1.707   4.664  15.693  1.1629 -1.0884  0.0996
 9800TIP3    H250816   1.752   4.624  15.555 -0.4602  0.7646 -1.0180
 9801TIP3   OH250817   6.157   4.653  15.420 -0.0918 -0.1968  0.4394
 9801TIP3    H150818   6.204   4.712  15.361  1.2036 -2.0678 -0.4998
 9801TIP3    H250819   6.211   4.575  15.424 -1.1630 -0.9108  2.5628
 9802TIP3   OH250820   3.245   2.311  15.598 -0.4763 -0.3598 -0.2688
 9802TIP3    H150821   3.158   2.291  15.565 -0.1696 -1.3547 -0.5115
 9802TIP3    H250822   3.254   2.406  15.586 -1.9950 -0.0147  0.9596
 9803TIP3   OH250823   6.687   1.325   1.679  0.2568 -0.1662  0.3882
 9803TIP3    H150824   6.669   1.415   1.650 -0.3079 -0.2525  0.4593
 9803TIP3    H250825   6.691   1.331   1.774 -2.5050 -0.6540  0.6139
 9804TIP3   OH250826   6.762   5.961  14.413  0.2070  0.5156 -0.0356
 9804TIP3    H150827   6.747   5.989  14.323 -0.3681  1.7788  0.4285
 9804TIP3    H250828   6.794   6.039  14.458  2.3629 -0.5741  0.4434
 9805TIP3   OH250829   0.435   2.517   0.028 -0.3952  0.1104 -0.2641
 9805TIP3    H150830   0.357   2.533  -0.024 -0.6561 -0.0664  0.0690
 9805TIP3    H250831   0.405   2.520   0.119 -0.0521 -0.1587 -0.1374
 9806TIP3   OH250832   3.231   6.044   0.331  0.7593 -0.8602 -0.2053
 9806TIP3    H150833   3.270   6.092   0.258  1.0999  0.8493  1.0390
 9806TIP3    H250834   3.297   6.046   0.400 -0.6173  0.1639  1.1676
 9807TIP3   OH250835   1.887   4.704   2.398 -0.8991  0.4351 -0.1248
 9807TIP3    H150836   1.802   4.681   2.360 -1.1662  0.1858  0.6065
 9807TIP3    H250837   1.949   4.697   2.326 -1.5269  0.7988 -0.7102
 9808TIP3   OH250838   2.804   6.764   3.973  0.2487  0.0223  0.5490
 9808TIP3    H150839   2.811   6.677   4.012  0.9223  0.3080  1.0742
 9808TIP3    H250840   2.710   6.783   3.974  0.2584  0.1080  2.2270
 9809TIP3   OH250841   1.118   0.206   0.563  0.0711 -0.3429  0.5867
 9809TIP3    H150842   1.157   0.292   0.547 -0.0715 -0.5291 -0.9304
 9809TIP3    H250843   1.178   0.144   0.523 -0.8524 -0.7730 -0.1813
 9810TIP3   OH250844   3.314   2.631  12.377  0.7322  0.5831  0.0024
 9810TIP3    H150845   3.358   2.708  12.414 -0.4110  0.0247  2.8503
 9810TIP3    H250846   3.268   2.592  12.452 -1.1792 -1.1935 -1.9577
 9811TIP3   OH250847   3.383   5.075  11.059 -0.1083 -0.3451 -0.4484
 9811TIP3    H150848   3.308   5.126  11.026 -0.3762 -0.9073 -0.7328
 9811TIP3    H250849   3.460   5.126  11.033 -0.2988 -0.8944 -2.2189
 9812TIP3   OH250850   4.056   3.276  11.861 -0.3131 -0.0360  0.2630
 9812TIP3    H150851   3.979   3.276  11.917 -1.4421  1.4932 -1.1708
 9812TIP3    H250852   4.023   3.253  11.774  1.0936 -0.7254 -0.1168
 9813TIP3   OH250853   1.514   5.730   5.224  0.4172 -0.1783 -0.1412
 9813TIP3    H150854   1.565   5.649   5.233  1.1503  0.2783 -0.0963
 9813TIP3    H250855   1.499   5.739   5.130 -0.4360 -0.8202 -0.0814
 9814TIP3   OH250856   2.171   5.311   0.615 -0.0057 -0.3140  0.9805
 9814TIP3    H150857   2.252   5.297   0.665 -0.0289  0.4671  1.2529
 9814TIP3    H250858   2.111   5.353   0.677 -0.7505 -1.2044  0.8831
 9815TIP3   OH250859   3.947   2.050   3.509  0.1359  0.4056 -0.3030
 9815TIP3    H150860   4.028   2.077   3.464  1.2179 -1.9086  0.1113
 9815TIP3    H250861   3.976   1.987   3.575 -2.1072 -1.4198 -0.9241
 9816TIP3   OH250862   6.653   2.343  10.970  0.5659 -0.5472  0.1983
 9816TIP3    H150863   6.602   2.342  10.889 -0.7539  1.8866  0.9050
 9816TIP3    H250864   6.743   2.332  10.942  0.2717  1.4815 -1.7783
 9817TIP3   OH250865   2.441   0.872   0.402  0.2955  0.1681 -0.2463
 9817TIP3    H150866   2.441   0.849   0.495 -1.0179 -1.4758 -0.6021
 9817TIP3    H250867   2.506   0.814   0.363  0.8730  0.8828 -0.3699
 9818TIP3   OH250868   1.741   2.155  12.724  0.7570  0.2310  0.8115
 9818TIP3    H150869   1.677   2.084  12.732  1.3051 -0.3831  0.0109
 9818TIP3    H250870   1.695   2.223  12.675  0.6346 -0.1089  0.4504
 9819TIP3   OH250871   6.209   5.078  11.001  0.0695 -1.0514  0.5030
 9819TIP3    H150872   6.204   5.096  10.907  0.1097 -0.4950  0.6044
 9819TIP3    H250873   6.285   5.128  11.031 -0.8193 -0.0027  1.0964
 9820TIP3   OH250874   1.468   4.383  15.848 -0.4226  0.4608 -0.0653
 9820TIP3    H150875   1.419   4.317  15.799 -0.3009 -0.9091  1.5707
 9820TIP3    H250876   1.558   4.373  15.819 -0.3746 -0.2354  0.3160
 9821TIP3   OH250877   3.189   4.454   5.942 -0.4138 -0.1192  0.0718
 9821TIP3    H150878   3.167   4.506   5.864  2.9224 -1.1764 -1.7751
 9821TIP3    H250879   3.237   4.515   5.998  1.4462 -0.4921 -1.0258
 9822TIP3   OH250880   0.924   4.206   5.484 -0.1590  0.5661 -0.1298
 9822TIP3    H150881   0.849   4.161   5.443  0.2679 -0.0296 -0.2766
 9822TIP3    H250882   0.893   4.229   5.571 -0.2033 -0.5865  0.1825
 9823TIP3   OH250883   4.819   6.681  12.559  0.1881  0.8163  0.5482
 9823TIP3    H150884   4.816   6.603  12.504  0.2748  0.9650  0.3319
 9823TIP3    H250885   4.903   6.674  12.605  0.3058  0.9021  0.3497
 9824TIP3   OH250886   6.611   3.868  12.393  0.0878  0.0025  0.2011
 9824TIP3    H150887   6.598   3.862  12.298  0.2209  0.8967  0.1105
 9824TIP3    H250888   6.706   3.871  12.404  0.0756 -0.3222  0.3746
 9825TIP3   OH250889   5.379   2.758   5.190  0.5808 -0.8636 -0.2212
 9825TIP3    H150890   5.340   2.702   5.257 -1.8323 -0.2466 -1.0108
 9825TIP3    H250891   5.340   2.727   5.108  0.1442  1.1351 -0.8219
 9826TIP3   OH250892   4.963   6.209   3.600 -0.3681 -0.3868  0.6676
 9826TIP3    H150893   4.871   6.233   3.611 -0.7429 -0.0416 -2.2707
 9826TIP3    H250894   4.999   6.279   3.544  1.8114 -0.3174  2.0566
 9827TIP3   OH250895   1.710   1.063  14.633 -0.1519  0.1507 -0.2730
 9827TIP3    H150896   1.724   1.158  14.639 -1.7967  0.4306 -0.3133
 9827TIP3    H250897   1.647   1.045  14.703 -0.4452 -0.7772 -0.7674
 9828TIP3   OH250898   3.410   0.523  12.938  0.3004  0.1610 -0.1204
 9828TIP3    H150899   3.498   0.554  12.962  1.4605 -0.4464 -3.1384
 9828TIP3    H250900   3.408   0.432  12.968  0.3079  0.4494  0.7896
 9829TIP3   OH250901   1.264   2.571  15.882  0.2661  0.1855 -0.3244
 9829TIP3    H150902   1.170   2.554  15.884  0.0235  1.4858 -0.1345
 9829TIP3    H250903   1.297   2.515  15.812 -0.6854 -0.0794 -0.5715
 9830TIP3   OH250904   6.444   4.120  11.477  0.6941  0.4179  0.2908
 9830TIP3    H150905   6.408   4.133  11.565  0.2406  0.9503  0.0317
 9830TIP3    H250906   6.368   4.109  11.421  0.9286  1.2903 -0.2261
 9831TIP3   OH250907   6.453   6.445   3.368  0.1822 -0.1043 -0.2520
 9831TIP3    H150908   6.439   6.479   3.457 -1.0158  0.1706 -0.5264
 9831TIP3    H250909   6.365   6.434   3.333  0.6494  0.8714 -1.8170
 9832TIP3   OH250910   5.939   3.135  12.407  0.4784  0.1379  0.2251
 9832TIP3    H150911   5.887   3.141  12.327 -0.8822  2.7869  1.1823
 9832TIP3    H250912   6.008   3.201  12.396 -0.1573  1.0483  1.4836
 9833TIP3   OH250913   5.576   6.348  13.952 -0.5275  0.8934 -0.0361
 9833TIP3    H150914   5.641   6.408  13.917  0.1314 -0.4650 -1.2695
 9833TIP3    H250915   5.496   6.400  13.959  0.2693  2.1638 -0.0367
 9834TIP3   OH250916   6.683   0.507  14.264 -0.5681 -0.3182  0.3757
 9834TIP3    H150917   6.728   0.477  14.343  0.0906  0.9909  0.5345
 9834TIP3    H250918   6.636   0.586  14.292 -1.4043 -0.5827 -0.2446
 9835TIP3   OH250919   3.089   2.483   0.351  0.1728 -0.3429  0.7563
 9835TIP3    H150920   3.084   2.511   0.442 -0.6402 -0.9869  0.9249
 9835TIP3    H250921   2.997   2.477   0.323  0.3536 -1.8993  0.4437
 9836TIP3   OH250922   6.121   4.201  16.280 -0.2969  0.2397  0.3992
 9836TIP3    H150923   6.141   4.124  16.333  1.8501  0.1028 -0.5026
 9836TIP3    H250924   6.204   4.248  16.274 -0.8979  1.1618 -1.3690
 9837TIP3   OH250925   1.531   4.140  13.890  0.5605  0.1731 -0.0079
 9837TIP3    H150926   1.448   4.170  13.852 -0.6945 -1.1240  1.5490
 9837TIP3    H250927   1.559   4.069  13.832  0.8541  0.9116 -0.7982
 9838TIP3   OH250928   3.504   3.855  10.321 -0.1551 -0.3866 -0.3585
 9838TIP3    H150929   3.507   3.941  10.364 -0.8763 -1.3348  1.7089
 9838TIP3    H250930   3.594   3.824  10.323  0.0349  0.1290 -0.7197
 9839TIP3   OH250931   6.207   5.721  14.954  0.3993  0.1690  0.1115
 9839TIP3    H150932   6.123   5.682  14.980  0.1799  1.1610  0.9996
 9839TIP3    H250933   6.183   5.808  14.921  1.2283  1.5740  2.8517
 9840TIP3   OH250934   2.862   2.151  14.918  0.0034  0.1967 -0.4570
 9840TIP3    H150935   2.896   2.078  14.867 -0.2318 -0.6360  0.5497
 9840TIP3    H250936   2.934   2.215  14.919  0.1435  0.0738 -1.4872
 9841TIP3   OH250937   1.562   3.490  11.641 -0.1111 -0.2786 -0.2167
 9841TIP3    H150938   1.509   3.560  11.602 -0.6919 -0.4663  0.2164
 9841TIP3    H250939   1.617   3.535  11.705  0.1560 -0.1024 -0.5623
 9842TIP3   OH250940   3.879   2.046   0.870  0.4664 -0.0026  0.2198
 9842TIP3    H150941   3.940   2.077   0.938  0.3592 -1.8610  1.2305
 9842TIP3    H250942   3.934   2.035   0.792  1.0996 -0.1213  0.6684
 9843TIP3   OH250943   4.258   6.600  16.152 -0.3005 -0.6332  0.0535
 9843TIP3    H150944   4.329   6.618  16.091 -0.6940  2.5637  0.4001
 9843TIP3    H250945   4.301   6.569  16.232  0.5000 -0.9444 -0.4902
 9844TIP3   OH250946   3.415   1.924   3.417 -0.1593  0.7623  0.1081
 9844TIP3    H150947   3.507   1.942   3.434 -0.2899  1.4736  0.1071
 9844TIP3    H250948   3.395   1.848   3.471  0.4563  0.5274  0.0137
 9845TIP3   OH250949   2.478   6.217  13.930  0.2294 -0.2659 -0.1432
 9845TIP3    H150950   2.558   6.171  13.954  0.4747  0.3396  0.2157
 9845TIP3    H250951   2.489   6.241  13.839  0.0687 -0.9793 -0.3543
 9846TIP3   OH250952   3.650   6.608  10.541  0.1246  0.9230  0.6911
 9846TIP3    H150953   3.732   6.557  10.540 -0.7402 -0.5274  1.4350
 9846TIP3    H250954   3.675   6.693  10.504  1.1810 -0.6811 -2.6913
 9847TIP3   OH250955   0.198   3.449   2.222 -0.0986  0.3491 -0.2697
 9847TIP3    H150956   0.249   3.472   2.144  0.3950  2.0964  0.5103
 9847TIP3    H250957   0.263   3.428   2.289 -0.5318 -1.7781 -0.4675
 9848TIP3   OH250958   5.361   0.897   3.647 -0.3253  1.0052 -0.1673
 9848TIP3    H150959   5.387   0.989   3.653  1.1439  0.6726 -0.9378
 9848TIP3    H250960   5.427   0.850   3.699 -1.8411  0.4840  1.3692
 9849TIP3   OH250961   5.011   4.998   2.981  0.0060  0.3091 -0.1412
 9849TIP3    H150962   5.027   5.074   3.037 -1.2651  0.9008 -0.5464
 9849TIP3    H250963   4.952   4.943   3.032 -1.1422  0.8397 -0.8727
 9850TIP3   OH250964   1.456   3.462   1.001 -0.3789 -0.3238  0.4542
 9850TIP3    H150965   1.531   3.510   0.965 -1.0770  1.6005  1.3949
 9850TIP3    H250966   1.475   3.370   0.982  2.5407  0.0058  1.2339
 9851TIP3   OH250967   1.965   3.830  11.275 -0.0220  0.5132  0.3065
 9851TIP3    H150968   2.000   3.745  11.301 -0.2521 -0.0647 -1.1670
 9851TIP3    H250969   1.871   3.823  11.294 -0.2712 -0.0824 -1.0202
 9852TIP3   OH250970   1.188   0.658   5.737  0.2917  0.5037  0.0335
 9852TIP3    H150971   1.123   0.599   5.698  0.3800  1.2694 -1.3476
 9852TIP3    H250972   1.168   0.656   5.830  0.5807 -2.0347  0.1274
 9853TIP3   OH250973   6.297   2.348  15.128  0.0652  0.3868 -0.4661
 9853TIP3    H150974   6.246   2.324  15.051  0.7250 -0.6219 -0.6107
 9853TIP3    H250975   6.384   2.369  15.093  0.4978 -0.5052  0.0273
 9854TIP3   OH250976   4.878   5.329   3.916  0.0460  0.2334 -0.3042
 9854TIP3    H150977   4.967   5.315   3.948 -0.2543 -3.7261 -0.7410
 9854TIP3    H250978   4.887   5.328   3.820 -0.4792 -0.4039 -0.3496
 9855TIP3   OH250979   1.651   4.420   2.852  0.4581 -0.1899 -0.4736
 9855TIP3    H150980   1.680   4.511   2.854 -0.2900  0.0973 -1.6939
 9855TIP3    H250981   1.724   4.373   2.811  0.3813  0.0592 -0.9054
 9856TIP3   OH250982   4.969   4.005  11.491  0.6009  0.4933 -0.1776
 9856TIP3    H150983   5.000   4.015  11.581  0.8794 -0.9709 -0.0823
 9856TIP3    H250984   5.048   3.999  11.438  0.4428  0.5296 -0.4211
 9857TIP3   OH250985   1.342   4.255  12.418 -0.2052  0.1997 -0.0608
 9857TIP3    H150986   1.256   4.298  12.425 -0.7930 -0.8846 -0.3819
 9857TIP3    H250987   1.403   4.327  12.404 -0.7362  1.2163  2.3381
 9858TIP3   OH250988   3.465   6.104   4.434 -0.0602 -0.0812 -1.1410
 9858TIP3    H150989   3.551   6.066   4.452  0.3069  0.3711 -1.8628
 9858TIP3    H250990   3.416   6.033   4.392  0.1427 -0.1872 -1.2017
 9859TIP3   OH250991   6.684   6.250   1.589  0.5189  0.3867 -0.3415
 9859TIP3    H150992   6.709   6.341   1.575  0.8990  0.8228  2.4883
 9859TIP3    H250993   6.604   6.255   1.642  1.6143 -0.8121  1.5725
 9860TIP3   OH250994   4.296   1.867  15.932  0.4729 -0.4867 -0.3267
 9860TIP3    H150995   4.389   1.866  15.912  0.4841 -1.4037 -0.2809
 9860TIP3    H250996   4.267   1.777  15.916 -0.6178  0.0071 -1.3006
 9861TIP3   OH250997   1.311   1.335  11.283  0.1736  0.5640 -0.1162
 9861TIP3    H150998   1.221   1.366  11.281  0.7202  2.2684  0.5237
 9861TIP3    H250999   1.313   1.272  11.356 -0.3394  1.0573  0.3330
 9862TIP3   OH251000   1.329   2.809   0.483 -0.1548 -0.3811 -0.3454
 9862TIP3    H151001   1.241   2.791   0.514 -0.0672  0.4966  0.4835
 9862TIP3    H251002   1.318   2.873   0.413 -0.3783 -2.6032 -2.4962
 9863TIP3   OH251003   2.628   5.794  12.117 -0.1511  0.0756  0.6673
 9863TIP3    H151004   2.543   5.837  12.107 -0.3301 -0.4429 -0.1344
 9863TIP3    H251005   2.612   5.703  12.094  0.3214 -0.3463  1.9115
 9864TIP3   OH251006   2.435   0.850  14.685  0.1419  0.0857 -0.1759
 9864TIP3    H151007   2.459   0.941  14.703 -0.4152  0.1172  0.4241
 9864TIP3    H251008   2.434   0.808  14.771 -0.4777 -0.2769 -0.3583
 9865TIP3   OH251009   0.157   3.455  13.226 -0.3347 -0.0174  0.2225
 9865TIP3    H151010   0.101   3.466  13.303 -0.4640 -1.1574  0.3149
 9865TIP3    H251011   0.145   3.363  13.201  0.2059  0.1691 -0.7700
 9866TIP3   OH251012   6.743   2.995   0.120  0.3162  0.3995  0.0886
 9866TIP3    H151013   6.766   2.928   0.056  0.4997 -0.8856  1.4279
 9866TIP3    H251014   6.658   3.028   0.092  0.4751 -0.0073 -0.8958
 9867TIP3   OH251015   5.520   2.601  13.774  0.0477  0.5030 -0.6524
 9867TIP3    H151016   5.612   2.601  13.800 -0.3634  1.5422  0.9388
 9867TIP3    H251017   5.516   2.539  13.701  1.7789 -0.5197  0.0548
 9868TIP3   OH251018   0.612   0.985   2.024 -0.3306  0.5779  0.0374
 9868TIP3    H151019   0.590   0.901   2.063  1.2021  0.4157  0.6614
 9868TIP3    H251020   0.661   0.963   1.945  1.4564  0.7902  1.0116
 9869TIP3   OH251021   0.569   3.830  12.220  0.4369 -0.6032 -0.4622
 9869TIP3    H151022   0.640   3.774  12.251  0.7504 -0.6291 -1.2090
 9869TIP3    H251023   0.494   3.771  12.211 -0.0318 -0.3628  1.4471
 9870TIP3   OH251024   4.613   0.712   2.784  0.0206 -0.1564  0.3519
 9870TIP3    H151025   4.613   0.620   2.810  4.1806 -0.6967 -0.8823
 9870TIP3    H251026   4.650   0.759   2.859  3.2421 -0.4468 -0.8768
 9871TIP3   OH251027   1.202   4.209   5.767 -0.3056  0.2695  0.4407
 9871TIP3    H151028   1.196   4.114   5.763  0.5188  0.1729  1.2140
 9871TIP3    H251029   1.294   4.228   5.749 -0.7256  1.0217 -1.0961
 9872TIP3   OH251030   4.214   5.640  12.987  0.2953  0.1717  0.1541
 9872TIP3    H151031   4.188   5.720  13.033  0.4623 -0.2387  0.9771
 9872TIP3    H251032   4.136   5.584  12.989 -0.6950  1.2654 -2.6787
 9873TIP3   OH251033   3.716   5.881  15.307  0.3278  0.4878 -0.2105
 9873TIP3    H151034   3.779   5.947  15.277  2.1635 -0.6228  0.9920
 9873TIP3    H251035   3.766   5.825  15.366 -1.0471 -2.1750 -1.3680
 9874TIP3   OH251036   6.716   6.433  16.841  0.0644  0.2730 -0.1008
 9874TIP3    H151037   6.665   6.367  16.794  0.6482 -0.7390  0.6435
 9874TIP3    H251038   6.654   6.471  16.904  0.4091 -1.6336  1.4699
 9875TIP3   OH251039   3.173   0.254  12.418  0.2612  0.3528 -1.1687
 9875TIP3    H151040   3.236   0.279  12.485  0.4452 -0.2379 -1.1221
 9875TIP3    H251041   3.177   0.159  12.415  0.1697  0.3688 -1.9400
 9876TIP3   OH251042   4.782   6.508  12.824  0.1244  0.1566 -0.4242
 9876TIP3    H151043   4.707   6.475  12.872 -0.9594  1.1935 -1.3467
 9876TIP3    H251044   4.784   6.458  12.743  1.9709 -1.6143  0.6129
 9877TIP3   OH251045   5.817   5.284  16.820  0.1737 -0.0152  0.2975
 9877TIP3    H151046   5.749   5.220  16.842  0.2326 -1.2846 -2.7526
 9877TIP3    H251047   5.899   5.236  16.829  0.4266  0.4338  0.4400
 9878TIP3   OH251048   4.932   1.212   4.210  0.0565  0.4691 -0.3552
 9878TIP3    H151049   4.858   1.264   4.241 -1.5122 -0.9668 -1.5121
 9878TIP3    H251050   4.908   1.186   4.121  0.9195 -1.8776  0.0213
 9879TIP3   OH251051   5.753   0.180   4.830 -0.1744 -0.3429  0.1892
 9879TIP3    H151052   5.675   0.171   4.884 -0.9797 -1.1554 -1.0487
 9879TIP3    H251053   5.751   0.103   4.772  1.5630 -0.4001  0.1579
 9880TIP3   OH251054   2.926   4.398  12.768 -0.1411 -0.0547  0.3571
 9880TIP3    H151055   2.987   4.401  12.694 -1.2120  0.1222 -0.5309
 9880TIP3    H251056   2.891   4.486  12.774 -2.3282 -0.7622 -0.8947
 9881TIP3   OH251057   2.351   2.283   0.216 -0.1875 -0.5291 -0.1498
 9881TIP3    H151058   2.355   2.346   0.143 -2.8739  1.2650  1.0835
 9881TIP3    H251059   2.332   2.199   0.174 -2.7880  0.6502 -1.5778
 9882TIP3   OH251060   5.724   6.490  14.711 -0.4197  0.1522  0.0942
 9882TIP3    H151061   5.797   6.499  14.773  0.6371 -0.8693 -0.9397
 9882TIP3    H251062   5.693   6.579  14.697  0.2592  0.5467  0.9966
 9883TIP3   OH251063   6.011   5.371  12.648 -0.1637  0.0930 -0.2281
 9883TIP3    H151064   6.006   5.276  12.655 -1.6922  0.2771  4.5524
 9883TIP3    H251065   6.099   5.393  12.677 -0.2098  0.1787 -0.1521
 9884TIP3   OH251066   4.099   0.587   0.539  0.3509 -0.9481  0.1447
 9884TIP3    H151067   4.112   0.513   0.599 -0.1711 -0.4148  0.9336
 9884TIP3    H251068   4.118   0.664   0.592 -0.0257 -0.4695 -0.4130
 9885TIP3   OH251069   2.995   0.751  16.258  0.3604  0.3109  0.2197
 9885TIP3    H151070   3.036   0.679  16.306  0.3239  0.0769 -0.0944
 9885TIP3    H251071   3.052   0.826  16.274  2.3031 -0.5271 -2.1010
 9886TIP3   OH251072   0.476   5.118  10.806 -0.2760  0.1132 -0.5178
 9886TIP3    H151073   0.508   5.208  10.812  0.6546 -0.1840 -0.8727
 9886TIP3    H251074   0.538   5.067  10.859 -0.1861 -0.4612 -1.1559
 9887TIP3   OH251075   3.224   2.120  16.244 -0.4341  0.3611 -0.2572
 9887TIP3    H151076   3.178   2.183  16.189  0.8859  0.4404 -1.3186
 9887TIP3    H251077   3.201   2.145  16.334 -0.7987  1.6599 -0.6886
 9888TIP3   OH251078   5.727   4.977   5.607 -0.1959 -0.2433 -0.0777
 9888TIP3    H151079   5.700   5.053   5.659  2.6830 -0.3697  1.8509
 9888TIP3    H251080   5.739   4.907   5.671  1.0832 -1.1464 -1.2575
 9889TIP3   OH251081   2.391   2.213   3.068  0.5499 -0.2201  0.1820
 9889TIP3    H151082   2.373   2.217   3.162 -0.5989 -1.9366  0.0794
 9889TIP3    H251083   2.384   2.304   3.039  0.4037  0.2709  1.6562
 9890TIP3   OH251084   4.858   1.224   1.825 -0.2361 -0.0811 -0.1047
 9890TIP3    H151085   4.861   1.261   1.737 -2.0419 -0.6947 -0.4871
 9890TIP3    H251086   4.945   1.188   1.840 -0.1656 -0.8425 -2.0704
 9891TIP3   OH251087   6.110   4.525  13.194  0.0146  0.1885  0.2816
 9891TIP3    H151088   6.190   4.560  13.154  1.3594  1.1194  3.3933
 9891TIP3    H251089   6.142   4.456  13.253 -1.7866 -1.0507 -0.1120
 9892TIP3   OH251090   4.476   1.462  13.018 -0.4703 -0.0465 -0.6083
 9892TIP3    H151091   4.407   1.475  12.954 -0.0497 -0.2112 -1.1056
 9892TIP3    H251092   4.439   1.492  13.101 -0.3928  1.9397 -1.2476
 9893TIP3   OH251093   6.001   6.736   3.628 -0.0313 -0.2759 -0.1940
 9893TIP3    H151094   6.007   6.654   3.579 -1.2824  0.0975 -1.0199
 9893TIP3    H251095   5.961   6.711   3.711  0.4576 -0.6406 -0.0654
 9894TIP3   OH251096   0.491   4.064  13.653 -0.2597  0.7924  0.2297
 9894TIP3    H151097   0.550   3.993  13.627 -1.8581 -0.1948 -0.8395
 9894TIP3    H251098   0.503   4.131  13.586 -1.3006  0.0287 -0.7407
 9895TIP3   OH251099   6.565   6.275   2.079 -0.1565  0.1445 -0.1742
 9895TIP3    H151100   6.518   6.255   2.160  0.1678 -1.5240 -0.3686
 9895TIP3    H251101   6.524   6.218   2.013  0.6811  0.2625 -0.8163
 9896TIP3   OH251102   0.991   4.203   5.973 -0.1852 -0.2211  0.2701
 9896TIP3    H151103   1.065   4.230   5.917 -0.2088  0.9604  0.7657
 9896TIP3    H251104   1.032   4.171   6.053 -0.1925 -0.4907  0.1679
 9897TIP3   OH251105   5.876   1.309  10.944  0.3454 -0.6236 -0.1160
 9897TIP3    H151106   5.781   1.309  10.950  0.4063  0.3352  1.3376
 9897TIP3    H251107   5.898   1.391  10.900  0.5283  0.0304  1.1280
 9898TIP3   OH251108   3.547   3.026  15.732 -0.1205  0.4195 -0.4433
 9898TIP3    H151109   3.637   3.012  15.703 -0.2040  0.6215 -0.8208
 9898TIP3    H251110   3.540   3.122  15.739 -0.1335  0.3779  0.1584
 9899TIP3   OH251111   2.714   5.828   0.031  0.4575 -0.1271 -0.1276
 9899TIP3    H151112   2.799   5.785   0.021 -0.1610 -1.2044 -0.8810
 9899TIP3    H251113   2.689   5.854  -0.057  1.0562  2.3439  0.3521
 9900TIP3   OH251114   3.623   5.799   4.435  0.3517  0.1156  0.1242
 9900TIP3    H151115   3.714   5.829   4.444  1.2903 -2.2052 -0.8398
 9900TIP3    H251116   3.599   5.770   4.522  1.2270 -0.9493  0.0383
 9901TIP3   OH251117   6.398   3.885  15.281  0.4032  0.0900 -0.5342
 9901TIP3    H151118   6.443   3.896  15.365  2.0383 -1.0935 -1.2175
 9901TIP3    H251119   6.437   3.951  15.224  0.0012  0.2261 -0.6577
 9902TIP3   OH251120   3.702   2.973   6.036 -0.4788  0.1427 -0.2861
 9902TIP3    H151121   3.687   2.886   5.998 -2.2117  0.4615 -0.4059
 9902TIP3    H251122   3.723   2.956   6.128  1.3069 -0.4948 -0.7798
 9903TIP3   OH251123   1.871   0.917   5.454  0.3485 -0.1737 -0.2550
 9903TIP3    H151124   1.823   0.945   5.533 -1.3624 -2.1585 -0.4937
 9903TIP3    H251125   1.958   0.895   5.486  0.2604  0.8080  0.7325
 9904TIP3   OH251126   0.507   6.280   0.008 -0.4385 -0.3095 -0.3829
 9904TIP3    H151127   0.574   6.238  -0.045  1.2936  3.0524 -1.1592
 9904TIP3    H251128   0.434   6.295  -0.053  0.5756  1.3411 -1.2640
 9905TIP3   OH251129   1.053   5.504  12.268  0.2218  0.0831 -0.1541
 9905TIP3    H151130   1.009   5.539  12.190  0.6947  1.6718  0.2590
 9905TIP3    H251131   0.999   5.532  12.341  0.9975  0.5832  0.2402
 9906TIP3   OH251132   6.044   2.145  15.006  0.0160 -0.3018  0.3272
 9906TIP3    H151133   5.991   2.221  15.027  1.6358  0.8679  0.4002
 9906TIP3    H251134   6.111   2.179  14.946 -1.6326 -2.5201 -3.0696
 9907TIP3   OH251135   5.021   6.426  12.169 -0.0569  0.2760  1.0260
 9907TIP3    H151136   5.028   6.363  12.241 -1.4325  0.4130  1.3139
 9907TIP3    H251137   5.035   6.511  12.210 -1.3090  0.3956  1.2596
 9908TIP3   OH251138   1.209   1.534   1.689  0.0430 -0.3120 -0.2121
 9908TIP3    H151139   1.284   1.593   1.702 -0.3118  0.3274 -0.9953
 9908TIP3    H251140   1.230   1.458   1.742  0.6387  0.4093  0.6312
 9909TIP3   OH251141   6.436   2.372  12.360  0.8064  0.0854 -0.2122
 9909TIP3    H151142   6.400   2.307  12.420  0.1654 -0.0223 -0.6967
 9909TIP3    H251143   6.526   2.384  12.388  0.9667 -1.1031 -0.1750
 9910TIP3   OH251144   2.535   2.067   0.620 -0.2990  0.2106  0.0063
 9910TIP3    H151145   2.496   1.982   0.600  1.8305 -0.8605  0.1145
 9910TIP3    H251146   2.553   2.106   0.534 -0.0128 -0.0818 -0.0689
 9911TIP3   OH251147   2.602   0.504   4.183 -0.5043  0.3171  0.3504
 9911TIP3    H151148   2.622   0.455   4.103 -1.4490 -0.4782  0.5850
 9911TIP3    H251149   2.687   0.539   4.211  0.8375 -3.4730  1.6864
 9912TIP3   OH251150   5.080   6.482  15.836  0.3418 -0.0503 -0.1602
 9912TIP3    H151151   5.025   6.403  15.841  1.3058 -0.6666  1.1733
 9912TIP3    H251152   5.119   6.489  15.923  1.0079  1.3790 -0.5590
 9913TIP3   OH251153   0.920   0.025  15.217 -0.6582  0.5478 -0.4080
 9913TIP3    H151154   0.843   0.081  15.203 -0.3839  1.6641  2.0623
 9913TIP3    H251155   0.887  -0.048  15.270 -0.3762  0.0014 -0.9695
 9914TIP3   OH251156   2.239   4.447  13.551 -0.4841 -0.2689  0.7485
 9914TIP3    H151157   2.181   4.517  13.582  0.7589  1.2297 -0.1185
 9914TIP3    H251158   2.212   4.432  13.461  0.7489  0.8200  0.1612
 9915TIP3   OH251159   4.062   0.899  12.353 -0.3827 -0.1780 -0.5844
 9915TIP3    H151160   4.025   0.956  12.285  0.6490 -0.7824 -1.6940
 9915TIP3    H251161   4.004   0.824  12.356  0.0364 -0.5485 -1.4349
 9916TIP3   OH251162   3.515   5.449  16.922  0.1182 -0.0950 -0.2228
 9916TIP3    H151163   3.453   5.458  16.994  0.8988  0.3810  0.3893
 9916TIP3    H251164   3.558   5.534  16.915  1.1340 -0.5880 -0.2401
 9917TIP3   OH251165   5.506   2.437   3.448 -0.3389  0.1470 -0.2084
 9917TIP3    H151166   5.573   2.370   3.433  0.2541  0.8806 -0.9608
 9917TIP3    H251167   5.494   2.478   3.362 -1.2339  0.5160  0.0816
 9918TIP3   OH251168   2.458   3.213   2.498  0.4247 -0.0223 -0.1217
 9918TIP3    H151169   2.434   3.302   2.526  1.6436  0.4444 -0.4537
 9918TIP3    H251170   2.502   3.176   2.575 -0.1134 -0.3534  0.0269
 9919TIP3   OH251171   5.325   4.189  12.670  0.5889  0.0072 -0.0631
 9919TIP3    H151172   5.330   4.123  12.740 -1.4192 -1.1838 -0.9368
 9919TIP3    H251173   5.315   4.137  12.590  1.3584  1.3637 -1.0664
 9920TIP3   OH251174   1.550   5.075  13.788 -0.1049  0.4569  0.5163
 9920TIP3    H151175   1.500   4.996  13.768  3.1999 -1.4380 -1.1946
 9920TIP3    H251176   1.591   5.055  13.873  1.6327 -0.2903 -0.4406
 9921TIP3   OH251177   0.235   5.983   5.920  0.4342 -0.5592 -0.3664
 9921TIP3    H151178   0.207   6.061   5.968 -0.7756 -1.6272  0.7778
 9921TIP3    H251179   0.264   5.923   5.988  0.4974 -1.4287 -1.1457
 9922TIP3   OH251180   3.124   5.080  15.786 -0.2800 -0.1489  0.4476
 9922TIP3    H151181   3.052   5.020  15.808 -0.3218 -0.0720  0.5226
 9922TIP3    H251182   3.082   5.165  15.775 -0.2973 -0.2378 -0.2174
 9923TIP3   OH251183   6.742   6.693   0.988  0.0583 -0.5109  0.1454
 9923TIP3    H151184   6.811   6.731   1.041 -0.3768  0.5788 -0.0373
 9923TIP3    H251185   6.663   6.743   1.011  0.0202  0.6613 -2.1557
 9924TIP3   OH251186   3.219   3.667   5.460 -0.3345  0.9305 -0.8307
 9924TIP3    H151187   3.299   3.693   5.413 -0.7274  1.5923 -1.1495
 9924TIP3    H251188   3.242   3.585   5.503 -0.2945 -0.3000 -3.0596
 9925TIP3   OH251189   5.036   4.250  12.855  0.4886  0.6310  0.2193
 9925TIP3    H151190   5.070   4.161  12.843 -2.0856 -0.3461 -0.5695
 9925TIP3    H251191   5.093   4.305  12.802  0.9503 -0.8500 -0.8973
 9926TIP3   OH251192   0.173   2.317   5.709 -0.5800  0.1484  0.4721
 9926TIP3    H151193   0.101   2.350   5.762 -1.8228 -2.2095  0.3957
 9926TIP3    H251194   0.132   2.256   5.648  1.1497  0.8211 -1.4957
 9927TIP3   OH251195   4.668   5.020  14.584  0.7406 -0.4441  0.5435
 9927TIP3    H151196   4.711   4.948  14.537  1.4195 -0.2086  0.7866
 9927TIP3    H251197   4.628   5.073  14.516  0.4192 -0.9375  0.3456
 9928TIP3   OH251198   4.560   0.374  13.802 -0.0422 -0.0305  0.3367
 9928TIP3    H151199   4.465   0.360  13.810  0.1652 -1.1350  1.0931
 9928TIP3    H251200   4.587   0.320  13.728  0.4539 -2.3406  2.0748
 9929TIP3   OH251201   5.948   2.396   0.420  0.7072  0.2006  0.2266
 9929TIP3    H151202   5.969   2.313   0.462  1.0791 -0.1249 -0.5819
 9929TIP3    H251203   6.029   2.447   0.426  0.6152  0.3361  0.3259
 9930TIP3   OH251204   1.786   4.397  17.046  0.4738  0.0406  0.1015
 9930TIP3    H151205   1.831   4.479  17.064 -0.3129  0.1327  1.8904
 9930TIP3    H251206   1.774   4.357  17.132  2.0331 -2.6271 -0.8181
 9931TIP3   OH251207   3.641   0.220  11.829  0.0360  0.2693  0.1156
 9931TIP3    H151208   3.557   0.194  11.792  0.9928 -0.3884 -1.6870
 9931TIP3    H251209   3.646   0.314  11.812 -0.7672  0.5299  1.1915
 9932TIP3   OH251210   6.381   5.804  16.100 -0.1371  0.1773 -0.4726
 9932TIP3    H151211   6.326   5.845  16.166 -1.1479 -1.1707 -0.4427
 9932TIP3    H251212   6.421   5.730  16.144  0.0794 -0.0602 -1.0542
 9933TIP3   OH251213   5.458   0.906  12.146  0.1162 -0.1747 -0.2103
 9933TIP3    H151214   5.521   0.905  12.074  0.3066 -1.1245 -0.0392
 9933TIP3    H251215   5.510   0.927  12.224 -0.3500  2.6777 -0.5398
 9934TIP3   OH251216   3.752   5.854  16.514  0.5041  0.1704 -0.4265
 9934TIP3    H151217   3.734   5.786  16.449  3.1048  0.7934 -1.9204
 9934TIP3    H251218   3.714   5.934  16.477 -0.0823  0.0920 -0.0128
 9935TIP3   OH251219   3.460   0.949   4.792  0.6940  0.4723 -0.3313
 9935TIP3    H151220   3.479   1.023   4.850  0.2569  1.8463 -1.8726
 9935TIP3    H251221   3.508   0.969   4.712 -3.0224  1.5007 -2.5097
 9936TIP3   OH251222   3.407   4.797  10.970  0.5489  0.1666 -0.1561
 9936TIP3    H151223   3.372   4.816  10.883 -0.2836  0.4279  0.2226
 9936TIP3    H251224   3.386   4.875  11.021  0.2486 -0.3385  0.5071
 9937TIP3   OH251225   0.202   2.665  11.702 -0.3909  0.0573 -0.0619
 9937TIP3    H151226   0.158   2.737  11.658  0.3021 -0.5060 -1.7723
 9937TIP3    H251227   0.293   2.693  11.710 -0.3204 -0.2214  0.1324
 9938TIP3   OH251228   6.683   4.949  10.881  0.5272  0.7214  0.1598
 9938TIP3    H151229   6.614   5.006  10.915 -0.6763 -1.0921  0.9033
 9938TIP3    H251230   6.662   4.940  10.788 -0.2467  0.2304  0.3676
 9939TIP3   OH251231   0.951   4.911  16.685 -0.0496  0.2159  0.3204
 9939TIP3    H151232   0.949   4.900  16.590  0.2362 -0.8106  0.4156
 9939TIP3    H251233   0.914   4.997  16.700 -1.6852 -0.2760 -0.6166
 9940TIP3   OH251234   6.659   3.735  16.486  0.0458  0.1359  0.2212
 9940TIP3    H151235   6.594   3.732  16.416  0.4293 -1.2397 -0.1223
 9940TIP3    H251236   6.688   3.644  16.494  0.8079  0.4677  1.4204
 9941TIP3   OH251237   2.050   0.566  17.177 -0.1530  0.0540  0.3355
 9941TIP3    H151238   2.139   0.550  17.145  0.6709  0.3120  2.3559
 9941TIP3    H251239   2.043   0.661  17.181 -1.0308  0.0750 -1.0586
 9942TIP3   OH251240   3.094   2.391  11.085 -0.3297  0.7624 -0.1548
 9942TIP3    H151241   3.187   2.369  11.077 -0.1096  1.2309  0.9041
 9942TIP3    H251242   3.092   2.464  11.148 -1.3259  1.4667 -0.9599
 9943TIP3   OH251243   3.914   4.029  13.212  0.6060 -0.1776 -0.2776
 9943TIP3    H151244   3.829   4.001  13.247  0.8051  0.9686  1.2503
 9943TIP3    H251245   3.938   4.104  13.266  3.3166 -1.4047  0.3778
 9944TIP3   OH251246   4.772   0.407   3.132 -0.2963  0.0586  0.5448
 9944TIP3    H151247   4.841   0.346   3.158  1.0769 -0.1256 -2.9505
 9944TIP3    H251248   4.820   0.484   3.100 -1.8375  1.0659  0.5862
 9945TIP3   OH251249   3.158   3.540  15.611  0.1686  0.0579  0.1681
 9945TIP3    H151250   3.097   3.612  15.589 -0.4433 -0.2848  0.7188
 9945TIP3    H251251   3.162   3.488  15.531  0.6002  0.6796 -0.2324
 9946TIP3   OH251252   0.714   3.138  14.693  0.1810 -0.4190 -0.2396
 9946TIP3    H151253   0.669   3.220  14.672  0.6899 -0.1899 -0.4647
 9946TIP3    H251254   0.661   3.098  14.762 -0.6650 -0.4318 -0.8893
 9947TIP3   OH251255   6.162   3.651  12.077  0.0327 -0.6769 -0.2792
 9947TIP3    H151256   6.163   3.666  12.171 -0.0610 -0.2295 -0.3497
 9947TIP3    H251257   6.115   3.726  12.040 -0.6579 -1.2463 -0.6064
 9948TIP3   OH251258   0.636   4.905  16.452  0.2414 -0.4052  0.6085
 9948TIP3    H151259   0.728   4.879  16.456 -0.0578 -1.3768  1.9378
 9948TIP3    H251260   0.590   4.827  16.421 -0.2305 -0.2144  0.8132
 9949TIP3   OH251261   3.651   1.702  11.602  0.3976  0.2038  0.3407
 9949TIP3    H151262   3.562   1.737  11.607 -0.3615 -1.6745  0.6821
 9949TIP3    H251263   3.662   1.681  11.509  0.3232  0.0602  0.3634
 9950TIP3   OH251264   4.131   1.400   5.528 -0.2181  0.2761 -0.2563
 9950TIP3    H151265   4.078   1.321   5.525 -1.2799  0.7683  2.2271
 9950TIP3    H251266   4.197   1.383   5.595  0.2064  1.1069 -0.4398
 9951TIP3   OH251267   0.615   2.528  12.641  0.0573 -0.0768  0.4394
 9951TIP3    H151268   0.626   2.563  12.729  2.3473 -0.5964  0.4256
 9951TIP3    H251269   0.520   2.528  12.626 -0.2730  1.7568  2.1606
 9952TIP3   OH251270   6.570   4.265  13.569  0.6215  0.3907  0.6212
 9952TIP3    H151271   6.545   4.227  13.484  2.8694  0.3343 -0.1059
 9952TIP3    H251272   6.568   4.359  13.555 -2.7056  0.6162  1.7370
 9953TIP3   OH251273   6.371   0.687   2.981  0.2625  0.0719  0.1514
 9953TIP3    H151274   6.436   0.619   2.996 -0.7989 -1.3478 -1.3817
 9953TIP3    H251275   6.422   0.768   2.970  1.7051 -0.8725 -0.3163
 9954TIP3   OH251276   1.128   4.432  15.533  0.1870 -0.2216 -0.0293
 9954TIP3    H151277   1.177   4.355  15.504 -0.0865 -0.4616  0.1469
 9954TIP3    H251278   1.196   4.494  15.562  0.3879 -0.5769  0.2714
 9955TIP3   OH251279   1.630   2.418   3.115  0.4917  1.2179 -0.0355
 9955TIP3    H151280   1.631   2.361   3.038  1.9187  3.1879 -1.5917
 9955TIP3    H251281   1.621   2.507   3.079  1.1947  2.2123  2.0693
 9956TIP3   OH251282   6.065   2.890  15.415  0.0997  0.2780  0.3040
 9956TIP3    H151283   6.151   2.853  15.433 -0.3840 -0.6927  0.7176
 9956TIP3    H251284   6.004   2.828  15.454 -0.8653  0.0420 -1.4782
 9957TIP3   OH251285   5.361   4.217   5.779 -0.2588  0.0934 -0.2211
 9957TIP3    H151286   5.331   4.189   5.693 -0.3273  1.2254 -0.5835
 9957TIP3    H251287   5.311   4.297   5.797  0.9315  0.7892  0.1247
 9958TIP3   OH251288   2.807   0.611   3.357  0.6311 -0.0605 -0.2864
 9958TIP3    H151289   2.861   0.534   3.374 -0.1185 -0.6655 -0.5808
 9958TIP3    H251290   2.836   0.676   3.422  0.2778 -1.0881  0.9412
 9959TIP3   OH251291   3.398   0.287   4.467  0.6242 -0.5703  0.0026
 9959TIP3    H151292   3.475   0.342   4.458  0.9100 -1.0542 -0.5291
 9959TIP3    H251293   3.390   0.273   4.562 -0.4570  1.7695  0.3290
 9960TIP3   OH251294   0.259   3.715   0.200 -0.1026 -0.1801 -0.0359
 9960TIP3    H151295   0.250   3.717   0.105 -2.2323 -2.0894  0.0377
 9960TIP3    H251296   0.184   3.764   0.233  1.1361  1.2898  0.7008
 9961TIP3   OH251297   0.148   0.975   1.996  0.3761  0.5873  0.4979
 9961TIP3    H151298   0.167   0.924   1.917 -0.1107  1.7816 -0.4072
 9961TIP3    H251299   0.175   1.064   1.975 -0.2572  1.0300  1.4862
 9962TIP3   OH251300   3.231   1.830  12.635 -0.7322  0.1140  0.5496
 9962TIP3    H151301   3.249   1.772  12.710  1.8703 -0.5310 -0.4735
 9962TIP3    H251302   3.225   1.917  12.674  1.0183 -0.1467  1.5442
 9963TIP3   OH251303   6.677   1.840   4.120 -0.7772  0.2233  0.2037
 9963TIP3    H151304   6.644   1.809   4.036  1.0180 -0.7561 -0.2124
 9963TIP3    H251305   6.610   1.899   4.154 -1.9850 -0.1729 -1.4375
 9964TIP3   OH251306   2.566   0.158   1.592  0.0614 -0.7432 -0.4927
 9964TIP3    H151307   2.602   0.127   1.509  0.3454  0.5374 -0.8687
 9964TIP3    H251308   2.643   0.178   1.645 -0.1008 -0.3059 -0.4141
 9965TIP3   OH251309   4.106   0.445   4.896 -0.2663 -0.2277  0.5915
 9965TIP3    H151310   4.105   0.377   4.829  0.4917  0.6373 -0.3271
 9965TIP3    H251311   4.033   0.422   4.954 -0.8656 -1.0673 -0.4478
 9966TIP3   OH251312   2.679   0.741  12.816 -0.0567 -0.4425 -0.5205
 9966TIP3    H151313   2.619   0.697  12.876 -0.8833  0.6827 -0.4927
 9966TIP3    H251314   2.745   0.780  12.874 -1.3479  1.4039 -0.2118
 9967TIP3   OH251315   4.617   2.674  16.142  0.3360 -0.4560 -0.3488
 9967TIP3    H151316   4.631   2.661  16.236  0.0717  0.2369 -0.2025
 9967TIP3    H251317   4.564   2.754  16.137 -1.4737 -1.6311 -0.9820
 9968TIP3   OH251318   1.979   0.956   3.135 -0.2753  0.1497  0.5962
 9968TIP3    H151319   1.920   0.881   3.130  0.7678 -0.6553  0.0074
 9968TIP3    H251320   1.961   1.006   3.055 -2.0356  1.3767  1.7041
 9969TIP3   OH251321   0.995   3.892  10.972 -0.3266  0.0783  0.5535
 9969TIP3    H151322   1.005   3.922  10.882  0.6495  0.6424  0.8313
 9969TIP3    H251323   0.975   3.972  11.021  2.2069  0.3557  1.2894
 9970TIP3   OH251324   2.443   6.137  13.436 -0.6326  0.0272  0.3532
 9970TIP3    H151325   2.388   6.200  13.483 -0.2528 -0.5535  1.6112
 9970TIP3    H251326   2.528   6.181  13.429 -0.5329 -0.1110  0.7032
 9971TIP3   OH251327   5.257   3.004  15.606  0.8751 -0.3133 -0.3931
 9971TIP3    H151328   5.237   2.914  15.579  1.2876  0.1046 -2.2325
 9971TIP3    H251329   5.274   3.050  15.524  2.3540  1.0445  0.6113
 9972TIP3   OH251330   2.096   3.348  11.995  0.2663  0.6872  0.1411
 9972TIP3    H151331   2.063   3.258  11.993  0.6636  0.5218  0.7660
 9972TIP3    H251332   2.186   3.340  12.024 -0.3843  1.4629  2.6434
 9973TIP3   OH251333   4.247   1.453  12.383  0.1372 -0.1226  0.0335
 9973TIP3    H151334   4.271   1.420  12.297 -0.9864 -1.0811  0.0621
 9973TIP3    H251335   4.247   1.548  12.373 -0.0498 -0.2305 -1.0508
 9974TIP3   OH251336   4.253   5.449  11.451 -0.0118 -0.1363 -0.2703
 9974TIP3    H151337   4.275   5.540  11.470  2.7817 -0.7038 -0.3055
 9974TIP3    H251338   4.304   5.428  11.373 -0.8912 -1.6396 -0.4886
 9975TIP3   OH251339   3.562   0.847  11.989 -0.0833  0.0859 -0.6077
 9975TIP3    H151340   3.476   0.811  11.966  0.1617 -1.5846  0.8203
 9975TIP3    H251341   3.608   0.856  11.906 -1.3959  0.4004 -1.3306
 9976TIP3   OH251342   4.495   3.565  15.122  0.1100  0.3650  0.4165
 9976TIP3    H151343   4.407   3.599  15.136 -0.1291  0.3155 -0.8548
 9976TIP3    H251344   4.552   3.627  15.168 -0.5657  0.5080  1.0823
 9977TIP3   OH251345   3.476   0.197   2.265 -0.4410 -0.1562  0.2875
 9977TIP3    H151346   3.520   0.114   2.285 -0.4655 -0.8649 -2.2245
 9977TIP3    H251347   3.385   0.183   2.292 -0.7897 -1.5626 -1.4214
 9978TIP3   OH251348   5.001   0.364   1.660 -0.4182 -0.2612  0.3424
 9978TIP3    H151349   5.027   0.400   1.575  0.3153 -1.4777  0.0122
 9978TIP3    H251350   5.083   0.330   1.697 -1.1913 -2.6571  0.0671
 9979TIP3   OH251351   1.934   6.349  15.159 -0.1904  0.2441  0.2504
 9979TIP3    H151352   1.894   6.284  15.217 -0.4187  1.3965  1.4065
 9979TIP3    H251353   2.003   6.390  15.211  1.8963 -0.9822 -1.3803
 9980TIP3   OH251354   1.678   1.412   6.043  0.2271 -0.1511 -0.1290
 9980TIP3    H151355   1.593   1.433   6.004  0.6829  1.4167 -0.3490
 9980TIP3    H251356   1.668   1.436   6.136  0.2940 -0.3901 -0.0589
 9981TIP3   OH251357   5.803   6.219   3.775  0.3362 -0.3795 -0.0211
 9981TIP3    H151358   5.717   6.218   3.818  0.5906  0.2513  0.5084
 9981TIP3    H251359   5.864   6.194   3.844  0.6176 -0.5325 -0.3238
 9982TIP3   OH251360   0.130   5.209  14.892 -0.5114 -0.1760 -1.0470
 9982TIP3    H151361   0.144   5.297  14.859 -3.1509 -0.1292 -2.2607
 9982TIP3    H251362   0.213   5.164  14.876  2.1793  2.7852  2.5962
 9983TIP3   OH251363   2.717   6.193  10.483  0.3402 -0.7617  0.2776
 9983TIP3    H151364   2.811   6.174  10.479  0.6119  0.6766 -1.0656
 9983TIP3    H251365   2.676   6.125  10.429  0.6240 -1.2315  0.6465
 9984TIP3   OH251366   1.642   2.084   0.254 -0.3627  0.3879  0.3959
 9984TIP3    H151367   1.666   1.997   0.285  0.2057 -0.1404 -1.4027
 9984TIP3    H251368   1.548   2.079   0.237  0.0226 -0.5790 -1.7077
 9985TIP3   OH251369   4.071   1.598  16.948 -0.5761  0.1659  0.0123
 9985TIP3    H151370   4.063   1.512  16.907 -0.6846  0.3069 -0.2634
 9985TIP3    H251371   4.091   1.657  16.875  1.3142  0.1059  0.4099
 9986TIP3   OH251372   5.203   6.780  13.073 -0.1635 -0.2400 -0.1260
 9986TIP3    H151373   5.129   6.722  13.093  2.5573 -3.6996  0.9266
 9986TIP3    H251374   5.207   6.839  13.148 -3.3168  1.9890 -1.4574
 9987TIP3   OH251375   4.583   0.412   5.107  0.1897 -0.3651  0.0217
 9987TIP3    H151376   4.527   0.346   5.066  1.6333 -1.4381 -0.3074
 9987TIP3    H251377   4.560   0.494   5.063 -2.1708 -0.4474  0.9613
 9988TIP3   OH251378   3.194   6.144  16.399 -0.2591 -0.2680  0.3956
 9988TIP3    H151379   3.266   6.129  16.460  0.7913  0.4868 -0.6179
 9988TIP3    H251380   3.139   6.209  16.443 -0.6892 -1.3005  1.4376
 9989TIP3   OH251381   0.648   4.006   1.748  0.2798  0.2894 -0.3631
 9989TIP3    H151382   0.701   3.996   1.668  1.7378 -0.7620  0.6880
 9989TIP3    H251383   0.687   4.080   1.794 -0.5603  0.8936 -0.6048
 9990TIP3   OH251384   1.769   0.941   3.695  0.3090  0.3355  0.2325
 9990TIP3    H151385   1.732   1.026   3.675 -2.6424 -1.0393 -0.6195
 9990TIP3    H251386   1.765   0.892   3.613  2.9729 -0.3632  0.4169
 9991TIP3   OH251387   5.273   0.925   2.572  0.0614 -0.3340 -0.0816
 9991TIP3    H151388   5.339   0.873   2.619  0.3953  1.0108  1.0215
 9991TIP3    H251389   5.320   0.960   2.496 -0.2157 -1.7590 -0.9278
 9992TIP3   OH251390   0.142   4.531   4.033 -0.5336 -0.1634  0.2585
 9992TIP3    H151391   0.232   4.555   4.053 -0.4721 -0.5816  0.4996
 9992TIP3    H251392   0.142   4.511   3.940 -0.6114  0.8670  0.0287
 9993TIP3   OH251393   6.683   4.888  16.113  0.5828 -0.0843  0.2142
 9993TIP3    H151394   6.770   4.856  16.136  0.2149 -0.7349  0.7301
 9993TIP3    H251395   6.628   4.810  16.111 -0.1602  0.4060  0.6810
 9994TIP3   OH251396   5.235   4.215  14.065 -0.0449 -0.0502  0.2904
 9994TIP3    H151397   5.208   4.302  14.039  0.4447  0.1923  0.5752
 9994TIP3    H251398   5.323   4.205  14.029  0.2704 -0.0605  1.0400
 9995TIP3   OH251399   0.986   0.779   5.536  0.0587  0.0119  0.5737
 9995TIP3    H151400   1.008   0.690   5.564 -0.5308 -0.2022  0.3819
 9995TIP3    H251401   1.038   0.792   5.456 -1.0723 -0.7856 -0.3228
 9996TIP3   OH251402   4.575   4.843   2.564  0.1736  0.3385  0.3719
 9996TIP3    H151403   4.606   4.889   2.486  0.2901 -1.9381 -1.0203
 9996TIP3    H251404   4.506   4.899   2.600 -0.8361  0.8278 -2.1618
 9997TIP3   OH251405   3.805   6.174   3.889  0.5239 -0.0154 -0.3304
 9997TIP3    H151406   3.834   6.263   3.910 -0.4547  0.3292 -0.3880
 9997TIP3    H251407   3.835   6.160   3.799  1.2757 -0.0123 -0.0909
 9998TIP3   OH251408   2.247   6.228  11.762  0.3566  0.0044  0.1773
 9998TIP3    H151409   2.257   6.137  11.733  1.4618  0.2818 -0.3401
 9998TIP3    H251410   2.170   6.259  11.715  0.5377 -0.3753 -0.3800
 9999TIP3   OH251411   6.470   2.650  11.888  0.8697  0.2097 -0.1138
 9999TIP3    H151412   6.397   2.604  11.929  2.6363 -2.0002  0.7530
 9999TIP3    H251413   6.496   2.716  11.952  0.1577  0.4875 -0.0993
10000TIP3   OH251414   0.696   2.037  12.435  0.2451  0.1598  0.3895
10000TIP3    H151415   0.760   1.967  12.436 -0.8190 -0.8388  1.0195
10000TIP3    H251416   0.626   2.005  12.377 -0.0557  0.8872  0.3301
10001TIP3   OH251417   1.326   1.013  15.056 -0.1505  0.2912  0.5978
10001TIP3    H151418   1.411   1.047  15.085 -1.0727  2.1526  1.2664
10001TIP3    H251419   1.285   1.086  15.010 -1.3290 -0.6409  0.1122
10002TIP3   OH251420   3.687   1.117   3.605 -0.0702  0.0959 -0.1722
10002TIP3    H151421   3.716   1.045   3.548  0.0173 -0.1862  0.2262
10002TIP3    H251422   3.764   1.137   3.659 -0.2962  0.0554  0.1638
10003TIP3   OH251423   1.637   0.016  14.392  0.5198 -0.2125  0.6017
10003TIP3    H151424   1.635  -0.079  14.387  1.2939 -0.2712  1.2977
10003TIP3    H251425   1.581   0.045  14.319 -0.5190 -1.1995  0.9788
10004TIP3   OH251426   2.475   3.102  15.891  0.0077 -0.2709 -0.1332
10004TIP3    H151427   2.557   3.054  15.875 -0.2145 -0.6738 -0.0696
10004TIP3    H251428   2.500   3.194  15.885  0.3345 -0.3980 -0.7549
10005TIP3   OH251429   4.594   5.456   5.851 -0.0670 -0.1115  0.4170
10005TIP3    H151430   4.584   5.443   5.945 -1.1382  0.4795  0.3994
10005TIP3    H251431   4.504   5.454   5.817 -0.0175  3.0413 -0.1435
10006TIP3   OH251432   2.061   1.227  10.960 -0.0727  0.1331  0.1759
10006TIP3    H151433   2.105   1.169  10.898 -0.6263 -0.0715 -0.0352
10006TIP3    H251434   1.985   1.177  10.990  0.2256  0.2036  1.0787
10007TIP3   OH251435   0.461   6.508  15.888 -0.3910  0.4313 -0.2823
10007TIP3    H151436   0.508   6.590  15.902 -1.0174  0.9609 -1.2161
10007TIP3    H251437   0.370   6.533  15.876 -0.3909 -0.2201 -2.0488
10008TIP3   OH251438   6.296   2.733  15.471 -0.4810 -0.5433 -0.2477
10008TIP3    H151439   6.342   2.725  15.555  1.1880  0.5741 -0.9979
10008TIP3    H251440   6.300   2.645  15.433 -2.1408 -1.3254  1.2172
10009TIP3   OH251441   4.883   1.711  15.804  0.1029  0.6098 -0.2071
10009TIP3    H151442   4.814   1.646  15.790  1.1625 -0.9189  1.3314
10009TIP3    H251443   4.918   1.729  15.717 -0.4096 -0.6637 -0.6964
10010TIP3   OH251444   0.102   1.348   2.307 -0.3601  0.9179  0.6720
10010TIP3    H151445   0.150   1.383   2.233  0.5339 -0.2364  0.6924
10010TIP3    H251446   0.122   1.408   2.379  0.7684  0.6561  0.5894
10011TIP3   OH251447   5.666   4.871   3.720 -0.0180  0.0308 -0.4486
10011TIP3    H151448   5.606   4.798   3.707 -0.3197  0.0249  0.8609
10011TIP3    H251449   5.749   4.841   3.685  0.0532 -1.2320  0.7418
10012TIP3   OH251450   1.811   2.728  12.793 -0.4214  0.1428  0.3064
10012TIP3    H151451   1.899   2.689  12.792 -0.2305  0.4117  2.1626
10012TIP3    H251452   1.772   2.702  12.709  1.2742 -0.3171 -0.3819
10013TIP3   OH251453   1.508   0.979   0.932 -0.4829  0.5483  0.3300
10013TIP3    H151454   1.571   0.928   0.982  1.1037  1.2454 -0.8641
10013TIP3    H251455   1.531   0.963   0.841 -1.3803  1.6362 -0.1170
10014TIP3   OH251456   4.569   3.070   4.426 -0.1763  0.5815 -0.3301
10014TIP3    H151457   4.652   3.022   4.428 -0.3682  0.2363  1.6063
10014TIP3    H251458   4.508   3.013   4.473 -1.6522  0.6376 -2.0901
10015TIP3   OH251459   0.902   3.841  15.746  0.7854  0.0046  0.1272
10015TIP3    H151460   0.848   3.762  15.752 -0.0325  0.3737 -1.6146
10015TIP3    H251461   0.841   3.910  15.721  1.8150  0.7585 -0.3947
10016TIP3   OH251462   4.354   3.317   1.936 -0.9607 -0.1373 -0.2325
10016TIP3    H151463   4.351   3.261   1.858 -0.7346 -0.1363 -0.2441
10016TIP3    H251464   4.263   3.330   1.960 -1.0771  0.6339 -1.0445
10017TIP3   OH251465   0.837   6.158  12.336 -0.3070  0.2501  0.0048
10017TIP3    H151466   0.764   6.175  12.276  0.5316  1.7776 -0.6470
10017TIP3    H251467   0.872   6.245  12.357  0.7650 -0.3906  1.0173
10018TIP3   OH251468   5.754   1.151   5.770 -0.0543  0.1574  0.2867
10018TIP3    H151469   5.664   1.133   5.745  0.0684 -0.4525  0.2790
10018TIP3    H251470   5.807   1.115   5.699  0.1817  1.0528 -0.0144
10019TIP3   OH251471   2.734   4.844  15.109 -0.4879  0.1219 -0.2335
10019TIP3    H151472   2.650   4.828  15.151 -0.0296 -0.5430  0.4619
10019TIP3    H251473   2.786   4.765  15.127  1.6844  2.0039  2.8240
10020TIP3   OH251474   1.432   4.893  16.737 -0.3257 -0.8970  0.2531
10020TIP3    H151475   1.429   4.821  16.800  1.6447 -1.5830 -0.3511
10020TIP3    H251476   1.462   4.968  16.789  1.0085 -1.3907  0.2511
10021TIP3   OH251477   4.874   3.999  14.205 -0.0730 -0.5743  0.5441
10021TIP3    H151478   4.835   4.082  14.179 -2.3329 -0.8863  2.4979
10021TIP3    H251479   4.950   3.988  14.148  0.3006  2.7798  0.2071
10022TIP3   OH251480   0.406   2.880   1.128 -0.2633 -0.2222 -0.2536
10022TIP3    H151481   0.448   2.883   1.214 -0.3769  0.3783 -0.2187
10022TIP3    H251482   0.345   2.806   1.134 -0.6872  0.1768  0.3761
10023TIP3   OH251483   2.949   0.356  13.730 -0.2846 -0.0252 -0.4169
10023TIP3    H151484   2.899   0.356  13.812  0.2195 -0.3797 -0.0998
10023TIP3    H251485   3.041   0.349  13.758 -0.1624 -1.1623 -1.0419
10024TIP3   OH251486   1.170   5.792  12.194 -0.5305 -0.5891 -0.4746
10024TIP3    H151487   1.160   5.698  12.213  0.6487 -0.4998  0.7980
10024TIP3    H251488   1.090   5.816  12.149 -1.2259 -2.0405 -0.0816
10025TIP3   OH251489   2.594   2.690  11.071  0.1507 -0.4546 -0.6683
10025TIP3    H151490   2.550   2.627  11.015  2.6067 -1.8540 -1.1780
10025TIP3    H251491   2.663   2.639  11.115  0.0435  1.1718  1.5699
10026TIP3   OH251492   2.786   0.887   5.971  0.7562  0.8879  0.2722
10026TIP3    H151493   2.807   0.878   6.064 -1.3012  1.8274  0.9065
10026TIP3    H251494   2.694   0.861   5.965  0.3032  2.6402 -1.1463
10027TIP3   OH251495   2.268   0.828  11.361  0.2748  0.0863 -0.1391
10027TIP3    H151496   2.194   0.885  11.379 -0.8375 -0.6488 -2.1687
10027TIP3    H251497   2.337   0.860  11.421 -0.8437  2.3803  0.0448
10028TIP3   OH251498   1.748   5.246   1.313  0.3178  0.0821  0.1805
10028TIP3    H151499   1.825   5.274   1.264  0.4853  0.4960  0.6772
10028TIP3    H251500   1.727   5.160   1.277 -0.4915  0.9985 -1.7398
10029TIP3   OH251501   1.865   5.987  10.379  0.0681  0.2302  0.1826
10029TIP3    H151502   1.806   5.914  10.359 -0.0937 -0.1448  1.8963
10029TIP3    H251503   1.951   5.946  10.389  0.3060  0.5318 -0.5527
10030TIP3   OH251504   0.587   6.725   3.965  0.4266 -0.1617  0.5013
10030TIP3    H151505   0.506   6.732   3.913  0.4919  1.3013  0.5378
10030TIP3    H251506   0.564   6.667   4.037 -0.0902 -1.0904 -0.3889
10031TIP3   OH251507   0.795   5.129  11.365 -0.0440  0.3609 -0.0894
10031TIP3    H151508   0.712   5.096  11.330  0.5680 -0.6148 -0.6559
10031TIP3    H251509   0.832   5.181  11.294 -0.5706  1.5459  0.4772
10032TIP3   OH251510   1.050   6.761   2.722 -0.4180 -0.0119 -0.0288
10032TIP3    H151511   1.119   6.811   2.765 -0.1522 -0.2815 -0.1406
10032TIP3    H251512   1.038   6.684   2.777 -0.7661  0.1264  0.0948
10033TIP3   OH251513   1.735   5.939   1.114  0.6593 -0.1126  0.7914
10033TIP3    H151514   1.666   5.882   1.081  1.3323 -2.0190  2.4528
10033TIP3    H251515   1.816   5.889   1.100  1.5594  1.4490  0.2180
10034TIP3   OH251516   2.691   2.789  10.071  0.1031  0.2212 -0.8418
10034TIP3    H151517   2.773   2.824  10.107  0.4278 -0.8151 -0.5568
10034TIP3    H251518   2.653   2.738  10.142  0.4688 -1.3831 -1.7426
10035TIP3   OH251519   0.624   1.748  11.356  0.0545  0.0536  0.2867
10035TIP3    H151520   0.707   1.772  11.396  1.1996 -1.5560 -0.9945
10035TIP3    H251521   0.648   1.702  11.276 -1.9342 -3.2104  1.3854
10036TIP3   OH251522   1.934   5.283   2.295  0.3749 -0.9583 -0.0906
10036TIP3    H151523   1.913   5.288   2.389  1.0519 -2.3337  0.1567
10036TIP3    H251524   2.016   5.332   2.286 -0.0515 -0.2407 -0.0891
10037TIP3   OH251525   2.482   5.938   1.431  0.2219 -0.0053 -0.0829
10037TIP3    H151526   2.468   5.971   1.520 -0.6252 -0.1970 -0.1388
10037TIP3    H251527   2.542   6.002   1.391  0.7747 -0.0287  0.6833
10038TIP3   OH251528   6.755   5.799  13.273 -0.2608 -0.1303  0.4246
10038TIP3    H151529   6.667   5.792  13.311 -0.4732 -0.1239 -0.0512
10038TIP3    H251530   6.798   5.717  13.297 -0.7970 -0.6434 -0.3176
10039TIP3   OH251531   4.112   3.208  16.220  0.1379 -0.0762 -0.1906
10039TIP3    H151532   4.194   3.259  16.221 -0.4098  0.8328 -0.5516
10039TIP3    H251533   4.140   3.118  16.234  1.0786  0.3998  1.2398
10040TIP3   OH251534   2.220   2.997   1.647  0.0128 -0.3991 -0.3448
10040TIP3    H151535   2.278   2.941   1.699  2.4877  0.2989 -2.1879
10040TIP3    H251536   2.226   3.082   1.690  0.6676 -0.2462 -0.7207
10041TIP3   OH251537   0.155   6.550   1.385  0.3078 -0.3061 -0.2825
10041TIP3    H151538   0.100   6.619   1.347 -0.8307 -0.9431  0.1638
10041TIP3    H251539   0.122   6.469   1.348  1.1536 -0.6910 -0.2277
10042TIP3   OH251540   2.802   4.727  14.158  0.3152 -0.0323 -0.1162
10042TIP3    H151541   2.828   4.636  14.174 -1.6336 -0.8136 -1.0758
10042TIP3    H251542   2.851   4.753  14.080  0.2822 -0.5399 -0.3090
10043TIP3   OH251543   1.459   6.596  12.822 -0.3726 -0.2277 -0.6285
10043TIP3    H151544   1.408   6.627  12.896  1.0566  0.0784  0.2695
10043TIP3    H251545   1.459   6.670  12.760  0.3305  0.3895  0.0878
10044TIP3   OH251546   4.143   6.185   2.927  0.2105 -0.2530  0.3347
10044TIP3    H151547   4.212   6.250   2.913 -0.0515 -0.0210  0.1056
10044TIP3    H251548   4.161   6.117   2.862  0.8757 -0.7452  1.0114
10045TIP3   OH251549   4.625   2.300  16.083 -0.4960 -0.1992  0.3746
10045TIP3    H151550   4.563   2.360  16.124  0.2823  1.6080 -0.9489
10045TIP3    H251551   4.576   2.256  16.014 -0.8085 -0.3103  0.6676
10046TIP3   OH251552   3.946   3.154   0.548  0.2124 -0.8435  0.2821
10046TIP3    H151553   3.956   3.074   0.496  0.6957 -0.7811  0.2791
10046TIP3    H251554   3.855   3.180   0.533  0.0652 -1.3651  0.2453
10047TIP3   OH251555   2.171   2.407  16.383 -0.5443  0.0221  0.1916
10047TIP3    H151556   2.222   2.481  16.348  2.6219 -1.5889  1.0552
10047TIP3    H251557   2.107   2.389  16.314 -0.4617  2.5841 -0.6925
10048TIP3   OH251558   6.244   3.414   5.383 -0.4234  1.0038  0.3805
10048TIP3    H151559   6.183   3.346   5.409  0.9596 -0.3277  0.3106
10048TIP3    H251560   6.259   3.398   5.289  1.6223 -0.0829  0.8383
10049TIP3   OH251561   0.167   4.609  15.789 -0.0570  0.2985 -0.2248
10049TIP3    H151562   0.222   4.530  15.783  0.9010  0.8228  1.0631
10049TIP3    H251563   0.105   4.589  15.859  1.3103  1.2849  1.3361
10050TIP3   OH251564   1.628   3.673  16.688 -0.1235 -0.3887  0.4511
10050TIP3    H151565   1.549   3.707  16.730 -0.1500  1.6240 -1.0983
10050TIP3    H251566   1.690   3.746  16.692  0.8519 -1.1436 -0.4530
10051TIP3   OH251567   5.204   6.069   6.437  0.0705 -0.0051  0.0791
10051TIP3    H151568   5.212   6.022   6.354  0.5007 -1.3457  0.8558
10051TIP3    H251569   5.161   6.151   6.413  1.0003  0.0453 -1.6094
10052TIP3   OH251570   3.889   5.741  17.065 -0.3179 -0.1067  0.3614
10052TIP3    H151571   3.932   5.769  17.146 -0.9030  1.7914  0.0605
10052TIP3    H251572   3.863   5.651  17.082  0.9578 -0.2665  1.6962
10053TIP3   OH251573   4.097   0.790  11.485 -0.5607 -0.3892 -0.1882
10053TIP3    H151574   4.014   0.801  11.440 -1.0363 -0.3964  0.6585
10053TIP3    H251575   4.154   0.747  11.422 -0.8997  0.4762 -1.1078
10054TIP3   OH251576   0.404   4.307   4.346 -0.3908 -0.2225  0.7957
10054TIP3    H151577   0.436   4.268   4.264  0.3700 -0.6508  1.2798
10054TIP3    H251578   0.315   4.334   4.326  0.0306  0.3607 -0.4034
10055TIP3   OH251579   0.472   5.692   2.288  0.4028  0.0846  0.0999
10055TIP3    H151580   0.553   5.741   2.304  0.8484 -0.9573  1.1813
10055TIP3    H251581   0.449   5.713   2.197  2.3797 -0.2903 -0.5390
10056TIP3   OH251582   5.247   3.140   2.589 -0.5769 -0.2733  0.7075
10056TIP3    H151583   5.264   3.199   2.515 -0.0525  2.5359  2.8805
10056TIP3    H251584   5.252   3.053   2.551  3.0429  0.8173 -1.9947
10057TIP3   OH251585   2.122   0.032   5.995  0.0845  0.4183  0.2290
10057TIP3    H151586   2.027   0.029   6.002  0.1682  0.1881  1.7934
10057TIP3    H251587   2.140   0.033   5.901 -1.5115  2.5280 -0.1437
10058TIP3   OH251588   3.823   3.291  16.034 -0.5104  0.7566 -0.4822
10058TIP3    H151589   3.843   3.198  16.028 -0.7896  0.5973  0.9468
10058TIP3    H251590   3.905   3.334  16.010  0.0249  0.1320  0.1892
10059TIP3   OH251591   2.578   1.849  16.539  0.1167 -0.2661 -0.3299
10059TIP3    H151592   2.585   1.893  16.455  0.4380 -0.7824 -0.5801
10059TIP3    H251593   2.533   1.912  16.596  1.5553  0.8320 -0.3487
10060TIP3   OH251594   6.697   0.968   1.351 -0.9043 -0.5578 -0.9661
10060TIP3    H151595   6.660   0.902   1.409  2.3612 -0.3048  1.7108
10060TIP3    H251596   6.683   1.051   1.397  0.6650 -0.2019 -1.0689
10061TIP3   OH251597   1.478   2.907  15.635 -0.4380 -0.3686  0.1202
10061TIP3    H151598   1.450   2.874  15.721  1.0243 -0.0015  0.7695
10061TIP3    H251599   1.565   2.870  15.622  0.3468  1.4554 -0.1107
10062TIP3   OH251600   4.147   5.147   0.447  0.1304  0.2169 -0.6017
10062TIP3    H151601   4.112   5.125   0.361  0.1840 -1.3321 -0.2572
10062TIP3    H251602   4.233   5.107   0.449 -0.3113 -0.7265  0.5660
10063TIP3   OH251603   1.121   5.107  12.178 -0.0364  0.6985  0.1178
10063TIP3    H151604   1.050   5.149  12.227 -1.1821  1.1732 -1.8348
10063TIP3    H251605   1.094   5.016  12.169  1.4765 -0.0871  2.5915
10064TIP3   OH251606   3.443   2.826  16.551  0.7150 -0.5593 -0.5640
10064TIP3    H151607   3.504   2.843  16.480  0.2443 -1.2445 -1.1412
10064TIP3    H251608   3.469   2.741  16.587  0.3656 -0.6558 -0.5340
10065TIP3   OH251609   2.510   0.978  15.770 -0.5448 -0.6451  0.8464
10065TIP3    H151610   2.576   0.970  15.839 -0.9312 -3.5479  0.9759
10065TIP3    H251611   2.557   0.959  15.689 -1.0912 -2.2496  0.8889
10066TIP3   OH251612   4.100   4.899  16.265  0.2570  0.6158 -0.2040
10066TIP3    H151613   4.089   4.953  16.343  1.6328  0.6352 -0.0031
10066TIP3    H251614   4.062   4.814  16.288 -0.0899  0.8770  0.1900
10067TIP3   OH251615   3.312   3.343  13.582  0.5505  0.2732 -0.1939
10067TIP3    H151616   3.276   3.398  13.512  0.7898  0.2559 -0.3317
10067TIP3    H251617   3.367   3.280  13.537  0.1533 -0.1828 -0.0452
10068TIP3   OH251618   6.296   6.105   5.415 -0.4469 -0.0820  0.1175
10068TIP3    H151619   6.277   6.111   5.508  1.1202  1.5789  0.3811
10068TIP3    H251620   6.209   6.102   5.373 -1.1970  0.4637  1.5669
10069TIP3   OH251621   2.929   4.184   5.450  0.5690 -0.0560 -0.4145
10069TIP3    H151622   2.873   4.197   5.527  2.2788  1.1568  0.6845
10069TIP3    H251623   2.934   4.089   5.441 -1.6701 -0.2163 -0.5946
10070TIP3   OH251624   3.489   2.667  11.934  0.0898  0.1300  0.0507
10070TIP3    H151625   3.410   2.622  11.905 -0.4009  0.7109  0.4684
10070TIP3    H251626   3.555   2.645  11.867  0.0505 -1.7009  0.5613
10071TIP3   OH251627   2.811   3.606   5.439  0.3361 -0.2206  0.0272
10071TIP3    H151628   2.788   3.664   5.366  0.6631  2.1846  1.7213
10071TIP3    H251629   2.833   3.523   5.397 -0.3327  0.7828 -2.5270
10072TIP3   OH251630   3.761   4.137   5.982 -0.4204  0.0051  0.0881
10072TIP3    H151631   3.673   4.102   5.988 -0.7181  0.5626 -0.7742
10072TIP3    H251632   3.785   4.159   6.072 -0.2104 -2.3676  0.6589
10073TIP3   OH251633   6.545   1.591  11.438  0.2739 -0.2069 -0.6399
10073TIP3    H151634   6.522   1.683  11.454 -2.7765 -0.9833  0.0055
10073TIP3    H251635   6.621   1.575  11.495  0.7479  1.8181 -0.6224
10074TIP3   OH251636   1.795   4.753   6.088 -0.5050 -0.0635 -0.3373
10074TIP3    H151637   1.840   4.741   6.005 -0.7447 -1.6746 -0.2533
10074TIP3    H251638   1.810   4.672   6.137 -1.5093  0.2993  0.6366
10075TIP3   OH251639   5.198   5.186  15.398  0.2796  0.2312 -0.3212
10075TIP3    H151640   5.218   5.173  15.491  1.0788 -1.5264 -0.6848
10075TIP3    H251641   5.109   5.221  15.397 -0.4514 -1.4151  1.0868
10076TIP3   OH251642   5.902   4.403  12.540 -0.3742  0.3956  0.2040
10076TIP3    H151643   5.825   4.429  12.490  0.1811 -0.8130 -1.3536
10076TIP3    H251644   5.884   4.433  12.629 -3.7665 -1.9420  0.4859
10077TIP3   OH251645   3.744   5.599   5.553  0.0788 -0.0606  0.3603
10077TIP3    H151646   3.682   5.526   5.549  0.5063 -0.5170  1.4192
10077TIP3    H251647   3.827   5.560   5.526  0.4822 -0.2077  1.7204
10078TIP3   OH251648   5.556   2.695  10.858  0.4443 -0.5216 -0.1945
10078TIP3    H151649   5.469   2.701  10.818 -0.2782 -0.8392  1.2504
10078TIP3    H251650   5.554   2.614  10.908  1.5789 -0.5288 -0.1347
10079TIP3   OH251651   6.089   3.085  11.610  0.0528 -0.5557 -0.3448
10079TIP3    H151652   6.122   3.000  11.579 -2.4824 -1.1703 -1.6392
10079TIP3    H251653   6.076   3.073  11.704  0.2740 -1.3972 -0.4153
10080TIP3   OH251654   6.088   5.173   1.942  0.3666  0.0687 -0.1673
10080TIP3    H151655   6.116   5.168   1.850  0.3208  0.4109 -0.2023
10080TIP3    H251656   6.168   5.193   1.990  0.5042 -0.7179 -0.0586
10081TIP3   OH251657   4.925   0.763   2.647 -0.3699  0.2191  0.0923
10081TIP3    H151658   4.980   0.700   2.693  2.1179  0.7448 -1.9332
10081TIP3    H251659   4.878   0.810   2.716  1.4769 -0.4990  1.9267
10082TIP3   OH251660   5.248   0.501   3.358 -0.2219 -0.2968 -0.1348
10082TIP3    H151661   5.308   0.561   3.404 -0.5296  0.0778 -0.2099
10082TIP3    H251662   5.228   0.546   3.276  1.3997 -1.5745 -1.2830
10083TIP3   OH251663   0.214   1.128  12.855 -0.0191 -0.2879  0.2480
10083TIP3    H151664   0.299   1.109  12.815  0.3735 -0.4102  1.1177
10083TIP3    H251665   0.150   1.098  12.791  0.5851 -2.1232  0.4475
10084TIP3   OH251666   2.096   2.042   0.622 -0.2041  0.0899 -0.5180
10084TIP3    H151667   2.146   2.123   0.628  1.1840 -0.8143  0.9999
10084TIP3    H251668   2.120   2.005   0.537  0.6970  0.3124 -0.3647
10085TIP3   OH251669   4.185   1.318  15.256  0.4635 -0.0138 -0.3487
10085TIP3    H151670   4.142   1.387  15.307  0.1657 -0.4181 -0.0431
10085TIP3    H251671   4.256   1.288  15.312  2.7189  2.2581 -1.7819
10086TIP3   OH251672   5.830   1.985  14.875  0.0259 -0.3202 -0.1628
10086TIP3    H151673   5.911   1.999  14.924  1.0448  0.7058 -2.0280
10086TIP3    H251674   5.831   2.053  14.807 -2.3105 -0.4065 -0.3590
10087TIP3   OH251675   0.333   3.994  14.628 -0.2435  0.2235  0.1676
10087TIP3    H151676   0.396   3.970  14.559  0.5358  0.3754  0.8114
10087TIP3    H251677   0.385   3.997  14.708 -1.3715 -1.1731  1.0011
10088TIP3   OH251678   1.936   4.624  12.654  0.0050 -0.3065 -0.2360
10088TIP3    H151679   2.015   4.636  12.601 -0.5125 -0.6829 -1.1258
10088TIP3    H251680   1.944   4.536  12.689  0.0984 -0.2550 -0.1287
10089TIP3   OH251681   2.182   0.904   0.792 -0.2743 -0.7279 -0.4366
10089TIP3    H151682   2.265   0.860   0.772  0.0759  0.0463 -0.7178
10089TIP3    H251683   2.142   0.921   0.706 -0.6609 -0.9656 -0.3093
10090TIP3   OH251684   1.379   1.762  13.258 -0.8281 -0.0791 -0.0408
10090TIP3    H151685   1.319   1.825  13.217  0.6164  0.2095 -1.8887
10090TIP3    H251686   1.357   1.678  13.216  0.8832  0.2781 -1.8298
10091TIP3   OH251687   3.355   3.347  11.764  0.4251  0.4610 -0.1643
10091TIP3    H151688   3.400   3.402  11.701 -0.4095 -0.6910 -1.8457
10091TIP3    H251689   3.264   3.377  11.762  0.4352  0.5751  0.6909
10092TIP3   OH251690   5.164   4.934  13.567 -0.0804 -0.3868  0.0277
10092TIP3    H151691   5.214   5.007  13.529  0.7761 -0.8087  0.3298
10092TIP3    H251692   5.074   4.951  13.539  0.5334 -0.8365 -2.4647
10093TIP3   OH251693   2.293   1.389   4.671 -0.5592  0.2351  0.2699
10093TIP3    H151694   2.333   1.312   4.712  0.0662  0.1766 -0.4192
10093TIP3    H251695   2.364   1.454   4.667 -0.9073  0.6181  0.2696
10094TIP3   OH251696   5.585   5.620   3.480  0.5549 -0.0407  0.4482
10094TIP3    H151697   5.648   5.549   3.494 -1.6185 -2.0413  0.7798
10094TIP3    H251698   5.579   5.629   3.385  1.3712  0.2443  0.4147
10095TIP3   OH251699   5.329   1.878  16.795  0.0556  0.4814  0.1921
10095TIP3    H151700   5.298   1.872  16.886 -0.1324  2.6173  0.3013
10095TIP3    H251701   5.423   1.863  16.801 -0.0572 -0.1266  0.6246
10096TIP3   OH251702   1.389   5.334   2.708 -0.3051  0.6441 -0.4815
10096TIP3    H151703   1.313   5.369   2.754 -0.1415 -0.9150  1.0484
10096TIP3    H251704   1.449   5.306   2.777  0.1898 -1.2583 -1.6094
10097TIP3   OH251705   4.002   3.857  16.783  0.4188  0.4716  0.0306
10097TIP3    H151706   3.911   3.884  16.800  0.8163  1.5682  0.4620
10097TIP3    H251707   4.055   3.913  16.839  1.4205  0.4106 -0.8203
10098TIP3   OH251708   5.561   2.988   1.122 -0.3439 -0.1255 -0.4745
10098TIP3    H151709   5.601   3.075   1.116  3.1633 -1.4846  0.8579
10098TIP3    H251710   5.506   2.992   1.200 -0.0423  0.8153 -0.2941
10099TIP3   OH251711   2.848   3.797   3.072 -0.1758  0.0242 -0.2744
10099TIP3    H151712   2.756   3.824   3.069  0.1678  1.1961 -0.6572
10099TIP3    H251713   2.846   3.709   3.110 -1.3963  0.2955  0.3284
10100TIP3   OH251714   5.429   0.753  16.464 -0.5601 -0.4206  0.2707
10100TIP3    H151715   5.369   0.740  16.537 -0.9355  0.3517  0.1112
10100TIP3    H251716   5.384   0.717  16.388 -0.9578  0.3979  0.1017
10101TIP3   OH251717   4.579   1.835  15.940  0.0356 -0.0930  0.3042
10101TIP3    H151718   4.634   1.898  15.986  0.0007 -0.9333  1.5374
10101TIP3    H251719   4.623   1.751  15.953 -1.2441 -0.6961  0.8498
10102TIP3   OH251720   3.801   5.000   1.687 -0.5251 -0.2856  0.5807
10102TIP3    H151721   3.774   5.060   1.617  1.7914 -1.2804 -1.3123
10102TIP3    H251722   3.820   4.918   1.641  0.0248 -1.3128  2.5576
10103TIP3   OH251723   4.956   2.227  10.986 -0.0911 -0.0864  0.4374
10103TIP3    H151724   5.012   2.303  10.974  0.3426 -0.5938 -0.9631
10103TIP3    H251725   4.869   2.257  10.959 -0.4373  0.5495  2.1169
10104TIP3   OH251726   6.466   0.774   1.120  0.0035 -0.1942 -0.1139
10104TIP3    H151727   6.504   0.704   1.174 -0.2605  0.9213  1.5587
10104TIP3    H251728   6.522   0.850   1.135 -2.2355  1.2081  1.6198
10105TIP3   OH251729   4.547   0.341   4.100 -0.0128  0.3604  0.1715
10105TIP3    H151730   4.491   0.365   4.174  2.4427  1.5884  1.7496
10105TIP3    H251731   4.506   0.383   4.024 -1.3713  0.9302  1.1841
10106TIP3   OH251732   2.435   4.152   0.441  0.4528  0.5528 -0.1735
10106TIP3    H151733   2.465   4.234   0.479 -0.1228 -0.0366  1.6132
10106TIP3    H251734   2.499   4.134   0.372 -0.2833  3.2642 -1.7233
10107TIP3   OH251735   3.373   0.206  12.843  0.0445  0.2770  0.4219
10107TIP3    H151736   3.345   0.149  12.915  1.0320 -1.3071 -0.3857
10107TIP3    H251737   3.292   0.245  12.810 -0.7006 -0.8418  0.8608
10108TIP3   OH251738   4.140   1.335   5.141  0.2836 -0.4171 -0.5352
10108TIP3    H151739   4.119   1.381   5.223  1.7035 -1.0973  0.2474
10108TIP3    H251740   4.074   1.266   5.136  0.4073 -0.6100  0.2542
10109TIP3   OH251741   6.678   0.848   1.951 -0.4675  0.0713 -0.3484
10109TIP3    H151742   6.744   0.874   2.016 -0.3094 -1.0764 -0.0330
10109TIP3    H251743   6.719   0.868   1.867  0.7558 -1.5877 -0.2052
10110TIP3   OH251744   6.331   5.431  16.471  0.6395  0.2189 -0.4736
10110TIP3    H151745   6.309   5.389  16.554 -1.6327  2.3643  0.1419
10110TIP3    H251746   6.249   5.431  16.421  1.3321  1.1642 -1.6835
10111TIP3   OH251747   3.877   1.827  11.680  0.4104  0.6413 -0.5901
10111TIP3    H151748   3.934   1.777  11.739  0.0224  0.2100 -0.5750
10111TIP3    H251749   3.809   1.765  11.654 -1.5040  1.8075  1.3344
10112TIP3   OH251750   6.494   3.364   5.075 -0.3044 -0.6846 -0.0288
10112TIP3    H151751   6.536   3.446   5.051 -0.8868 -0.8066 -1.6102
10112TIP3    H251752   6.529   3.300   5.013  0.8975 -1.8934  1.7932
10113TIP3   OH251753   2.973   2.761   1.197  0.1423  0.6005  0.7403
10113TIP3    H151754   2.891   2.713   1.194  0.1517  0.5230  1.5552
10113TIP3    H251755   2.964   2.827   1.128 -1.1310  1.3997  1.5998
10114TIP3   OH251756   4.323   0.566   5.716  0.5092  0.4016 -0.1599
10114TIP3    H151757   4.398   0.591   5.769 -0.8254 -0.0057  2.0250
10114TIP3    H251758   4.290   0.649   5.681  1.6250  0.6283 -0.7333
10115TIP3   OH251759   1.494   6.485   0.769  0.3409 -0.8616 -0.0474
10115TIP3    H151760   1.568   6.546   0.765 -0.0961 -0.3550 -0.3909
10115TIP3    H251761   1.433   6.524   0.831  0.3939 -1.3345  0.3176
10116TIP3   OH251762   2.335   3.043  10.158 -0.3203  0.1199 -0.1344
10116TIP3    H151763   2.360   2.975  10.221  1.0514  1.0389  0.3426
10116TIP3    H251764   2.243   3.062  10.179 -0.2374 -0.4431  0.7925
10117TIP3   OH251765   4.019   0.575   6.458 -0.0460  0.4157 -0.1434
10117TIP3    H151766   4.091   0.539   6.510  0.0014  1.4148  0.5078
10117TIP3    H251767   4.049   0.663   6.434 -0.1464  0.0463 -1.7252
10118TIP3   OH251768   2.832   2.223  11.884  0.3877  0.1874 -0.0598
10118TIP3    H151769   2.830   2.305  11.836  2.4097  0.5594  0.3843
10118TIP3    H251770   2.740   2.204  11.904 -0.2460  1.4864 -1.5566
10119TIP3   OH251771   3.976   2.006  15.924  0.1981  0.0299 -0.2066
10119TIP3    H151772   3.887   2.038  15.910  0.6373  2.3421  1.6022
10119TIP3    H251773   4.015   2.004  15.837 -1.7397 -1.6192 -1.1145
10120TIP3   OH251774   5.984   6.705   0.901 -1.0942 -0.0902  0.2934
10120TIP3    H151775   5.946   6.625   0.864 -0.4906 -0.4640  0.4490
10120TIP3    H251776   5.974   6.771   0.833 -1.0210 -0.4745 -0.0915
10121TIP3   OH251777   2.755   4.228   1.845 -0.0699 -0.1791 -0.3113
10121TIP3    H151778   2.698   4.151   1.847  0.2653 -0.4304 -0.1487
10121TIP3    H251779   2.817   4.209   1.775  0.3081 -0.2753  0.0434
10122TIP3   OH251780   3.335   6.356   4.522  0.3754 -0.1491  0.3900
10122TIP3    H151781   3.359   6.270   4.486 -0.0076  0.5715 -1.7629
10122TIP3    H251782   3.409   6.381   4.577  1.4069 -1.0099 -0.5557
10123TIP3   OH251783   0.684   1.861  16.277 -0.0115 -0.4202 -0.0847
10123TIP3    H151784   0.623   1.929  16.307 -0.6809 -0.6977 -0.7563
10123TIP3    H251785   0.715   1.818  16.357 -1.8574 -1.2497  0.2382
10124TIP3   OH251786   5.085   4.800  12.137 -0.0827 -0.2993  0.0907
10124TIP3    H151787   5.115   4.840  12.219  0.4385  2.8794 -1.5062
10124TIP3    H251788   5.149   4.828  12.072 -1.7678 -0.7015 -1.8376
10125TIP3   OH251789   0.552   2.690   0.958 -0.1272 -0.4459  0.2729
10125TIP3    H151790   0.457   2.680   0.950 -0.3004  0.2117  1.3497
10125TIP3    H251791   0.585   2.679   0.869 -1.3436  0.6006 -0.3362
10126TIP3   OH251792   6.743   3.610  12.151  0.1428  0.2766 -0.6021
10126TIP3    H151793   6.703   3.591  12.236 -1.2833 -0.8119 -1.4739
10126TIP3    H251794   6.732   3.704  12.140 -0.1595  0.3378  0.1711
10127TIP3   OH251795   6.480   3.896   1.086 -0.2540 -0.0987 -0.7357
10127TIP3    H151796   6.432   3.817   1.060  1.0729 -0.5194 -2.0332
10127TIP3    H251797   6.571   3.866   1.097 -0.2261  0.6871  1.6206
10128TIP3   OH251798   2.212   1.318   0.398 -0.3315 -0.0326 -0.0842
10128TIP3    H151799   2.137   1.279   0.352 -0.3737  0.0504 -0.0853
10128TIP3    H251800   2.179   1.401   0.431  0.3874  1.0768 -2.0089
10129TIP3   OH251801   0.806   1.161  12.441  0.9707  0.1436 -0.8008
10129TIP3    H151802   0.878   1.113  12.400  1.7701  1.4084 -0.9199
10129TIP3    H251803   0.789   1.234  12.382 -0.0743  0.1529 -0.5087
10130TIP3   OH251804   3.241   1.858   4.817  0.0386  0.5383  0.2987
10130TIP3    H151805   3.211   1.825   4.732 -0.4357  0.1696  0.6094
10130TIP3    H251806   3.192   1.939   4.829 -1.4006 -0.4238  1.1347
10131TIP3   OH251807   1.860   6.033   3.518  0.0300 -0.2972 -0.3511
10131TIP3    H151808   1.851   6.037   3.423  0.6225 -0.7123 -0.4353
10131TIP3    H251809   1.847   6.123   3.548 -1.0450 -0.3157 -0.7335
10132TIP3   OH251810   2.714   0.580  11.233 -0.3349  0.5355  0.2346
10132TIP3    H151811   2.624   0.564  11.202  0.3573 -1.4836 -0.9005
10132TIP3    H251812   2.746   0.494  11.260  2.5434  0.3904 -3.0207
10133TIP3   OH251813   3.513   6.424  12.358 -0.1449  0.4134  0.2473
10133TIP3    H151814   3.437   6.368  12.341  0.8003 -0.8290 -0.0659
10133TIP3    H251815   3.481   6.489  12.420 -1.2826 -0.5227  0.6951
10134TIP3   OH251816   2.329   6.539  16.175 -0.3174  0.0232 -0.0552
10134TIP3    H151817   2.295   6.549  16.085 -2.2281 -0.4106  0.5584
10134TIP3    H251818   2.355   6.627  16.201  3.7205 -0.2934 -2.2007
10135TIP3   OH251819   5.452   4.764   0.851  1.2280  0.1407 -0.9118
10135TIP3    H151820   5.377   4.823   0.855  0.0731 -1.3179  0.3552
10135TIP3    H251821   5.516   4.802   0.911  0.4516  0.0782 -0.0203
10136TIP3   OH251822   6.080   5.713   5.684  0.3739  0.1240 -0.2637
10136TIP3    H151823   6.151   5.653   5.706  0.3019 -0.3799 -1.3163
10136TIP3    H251824   6.113   5.800   5.708  0.7817 -0.2481  0.5627
10137TIP3   OH251825   5.513   5.753  16.926 -0.0294  1.0238 -0.0126
10137TIP3    H151826   5.470   5.754  16.840 -1.0222 -0.8944  0.4039
10137TIP3    H251827   5.590   5.697  16.913  0.6627  1.9414  0.0104
10138TIP3   OH251828   2.742   1.004  12.561 -0.4921 -0.5706 -0.0603
10138TIP3    H151829   2.658   1.015  12.606  0.6266 -0.1524  2.0001
10138TIP3    H251830   2.805   0.985  12.630  1.4716  0.8809 -1.3379
10139TIP3   OH251831   3.692   5.627  12.192  0.7680  0.2229 -0.3761
10139TIP3    H151832   3.733   5.714  12.189  0.8182  0.2402  0.7357
10139TIP3    H251833   3.676   5.611  12.284 -0.8874 -0.1958 -0.7090
10140TIP3   OH251834   2.153   1.546   5.832  0.4156 -0.2269  0.2219
10140TIP3    H151835   2.172   1.458   5.799 -2.9330 -0.7929 -0.5578
10140TIP3    H251836   2.113   1.532   5.917 -0.2175  0.5276  0.0605
10141TIP3   OH251837   4.910   4.054  12.681  0.1029  0.1200 -0.7863
10141TIP3    H151838   4.984   4.033  12.738 -0.6191 -0.6251 -0.1005
10141TIP3    H251839   4.917   4.148  12.666 -0.2859  0.5676  1.4510
10142TIP3   OH251840   2.321   2.743   3.895  0.2280 -0.3381  0.0505
10142TIP3    H151841   2.311   2.757   3.989  1.4554  1.3444 -0.0204
10142TIP3    H251842   2.412   2.764   3.877 -0.1659  0.0655 -1.6265
10143TIP3   OH251843   3.808   5.067  14.408  0.5787  0.0761  0.3163
10143TIP3    H151844   3.775   4.998  14.350 -0.6713  0.5795  0.3905
10143TIP3    H251845   3.862   5.121  14.351  1.4792 -0.8741  0.2300
10144TIP3   OH251846   6.684   6.785   5.038  0.7863 -0.3429 -0.2506
10144TIP3    H151847   6.625   6.858   5.057  1.1842  0.2539 -1.2104
10144TIP3    H251848   6.675   6.726   5.113  0.6530  0.8130  0.6695
10145TIP3   OH251849   1.476   6.401  16.691  0.0790  0.4076  0.0548
10145TIP3    H151850   1.448   6.484  16.653 -1.1703 -0.1868 -0.3686
10145TIP3    H251851   1.568   6.415  16.713  1.2183  0.4785 -4.0349
10146TIP3   OH251852   5.870   3.688   0.832 -0.4660  0.0979 -0.1371
10146TIP3    H151853   5.816   3.764   0.852 -0.8244 -0.0704 -0.4424
10146TIP3    H251854   5.842   3.621   0.894  0.8154  0.6266  1.0679
10147TIP3   OH251855   4.992   1.268  16.994  0.6654  0.8632 -0.5062
10147TIP3    H151856   5.040   1.187  16.976  0.7558  1.4728 -3.5726
10147TIP3    H251857   5.060   1.336  16.996  0.3276  1.2255 -0.9592
10148TIP3   OH251858   6.000   0.154  13.838  0.6358 -0.2086 -0.5883
10148TIP3    H151859   6.067   0.205  13.792  0.7882 -0.1999 -0.3637
10148TIP3    H251860   5.976   0.084  13.777  0.6867 -0.0795 -0.7571
10149TIP3   OH251861   0.805   2.859   0.053 -0.0130 -0.5311  0.5992
10149TIP3    H151862   0.757   2.889  -0.025  1.6329  0.6262 -0.0109
10149TIP3    H251863   0.750   2.789   0.088 -1.3922 -0.2913 -0.9233
10150TIP3   OH251864   0.941   6.343  11.921 -0.2950  0.4524 -0.3671
10150TIP3    H151865   1.013   6.301  11.967  1.8492  2.0842 -2.0026
10150TIP3    H251866   0.882   6.272  11.897 -0.1113 -0.7276  2.4262
10151TIP3   OH251867   2.155   4.488  10.613 -0.5455  0.2330  0.0618
10151TIP3    H151868   2.203   4.420  10.566 -0.0901  1.0522 -0.6856
10151TIP3    H251869   2.135   4.553  10.546 -0.4779  1.1031  0.8772
10152TIP3   OH251870   4.152   5.847   0.687 -0.0499  0.7118  0.3105
10152TIP3    H151871   4.186   5.912   0.748 -0.7243 -1.2321  2.9434
10152TIP3    H251872   4.058   5.845   0.705 -0.0961 -0.6958  0.0401
10153TIP3   OH251873   0.434   5.322  16.390 -0.2683 -0.5961  0.3203
10153TIP3    H151874   0.364   5.274  16.434 -1.0777  0.4741  0.2366
10153TIP3    H251875   0.389   5.385  16.334  0.7537 -1.0405 -1.0637
10154TIP3   OH251876   4.845   4.076   1.051 -0.4023  0.3065  0.6003
10154TIP3    H151877   4.854   4.160   1.094 -2.0386  0.2342  1.1731
10154TIP3    H251878   4.780   4.091   0.982  0.9530  0.0279 -0.7832
10155TIP3   OH251879   2.788   2.887   2.468  0.3803  0.3663 -0.5530
10155TIP3    H151880   2.725   2.932   2.413  0.7501  1.0133 -0.4538
10155TIP3    H251881   2.740   2.870   2.550  0.1731  0.3873 -0.6690
10156TIP3   OH251882   5.387   1.258   3.059  0.4987  0.0549 -0.0349
10156TIP3    H151883   5.467   1.307   3.044  0.4254  0.5494  1.0364
10156TIP3    H251884   5.415   1.167   3.068  0.5451 -0.2694 -2.8441
10157TIP3   OH251885   6.111   4.297  14.709  0.0737 -0.2618  0.1628
10157TIP3    H151886   6.048   4.259  14.769 -1.2243  0.8503 -0.4482
10157TIP3    H251887   6.144   4.375  14.753  0.7410 -0.6175  0.3117
10158TIP3   OH251888   4.146   2.089   4.097 -0.6547  0.2089  0.2421
10158TIP3    H151889   4.159   2.012   4.041 -0.7684  1.0562 -0.9909
10158TIP3    H251890   4.074   2.064   4.155 -0.2508 -0.8449  0.3223
10159TIP3   OH251891   1.603   3.765   1.576  0.0591 -0.5900 -0.4922
10159TIP3    H151892   1.578   3.683   1.533  0.2242 -0.3929 -0.9764
10159TIP3    H251893   1.684   3.743   1.622 -0.4820 -0.9801  0.2882
10160TIP3   OH251894   5.558   1.692   5.318 -0.4834 -0.0726  0.7306
10160TIP3    H151895   5.566   1.784   5.344 -1.4341 -0.1146  1.2516
10160TIP3    H251896   5.570   1.644   5.400  0.7550 -0.4692  0.3348
10161TIP3   OH251897   3.901   3.998  15.803  0.7895 -0.0320 -0.2164
10161TIP3    H151898   3.910   4.089  15.773  1.0308  0.9017  2.4289
10161TIP3    H251899   3.809   3.990  15.830  0.5462 -0.8828 -1.2145
10162TIP3   OH251900   0.586   6.166   1.556 -0.6863  0.2766  0.1487
10162TIP3    H151901   0.541   6.205   1.481  0.2331  0.7374 -0.1741
10162TIP3    H251902   0.567   6.072   1.548 -1.4827  0.4431 -0.0431
10163TIP3   OH251903   5.448   4.795   4.985  0.4024  0.3351 -0.1090
10163TIP3    H151904   5.516   4.840   5.036  1.2832 -3.0184  1.9377
10163TIP3    H251905   5.490   4.777   4.901  1.2889  0.2179  0.3479
10164TIP3   OH251906   2.007   3.683   3.843  0.2927  0.2130 -0.2641
10164TIP3    H151907   2.098   3.663   3.867 -0.3334 -0.6512  1.5411
10164TIP3    H251908   1.973   3.733   3.918 -0.8079  0.3135 -0.8100
10165TIP3   OH251909   1.401   6.618  16.456  0.2765 -0.1245  0.2046
10165TIP3    H151910   1.443   6.670  16.525  0.8774  0.4767 -0.5967
10165TIP3    H251911   1.342   6.680  16.412  0.3621 -0.3393 -0.2171
10166TIP3   OH251912   2.052   1.365  11.307  0.0952 -0.3486 -0.7220
10166TIP3    H151913   2.001   1.445  11.313  1.4677  0.4624  0.7190
10166TIP3    H251914   1.987   1.295  11.306 -1.0871  0.7163 -0.9886
10167TIP3   OH251915   5.210   6.318  10.803  0.0887  1.0722 -0.3418
10167TIP3    H151916   5.120   6.298  10.828  1.1070 -1.0194  2.2706
10167TIP3    H251917   5.228   6.261  10.728 -0.1475 -0.2033  0.5400
10168TIP3   OH251918   4.152   0.585  14.572 -0.2582  0.2853  0.8043
10168TIP3    H151919   4.213   0.512  14.560  0.5842  0.8527  1.4507
10168TIP3    H251920   4.066   0.545  14.575 -0.0671 -0.4318 -1.3818
10169TIP3   OH251921   4.297   5.505   5.024 -0.6297  0.0270 -0.2450
10169TIP3    H151922   4.320   5.547   4.941 -1.2175  2.0548  0.5421
10169TIP3    H251923   4.347   5.424   5.025  0.8043  0.8355 -1.7611
10170TIP3   OH251924   3.378   6.410  10.147  0.1257 -0.2604 -0.3781
10170TIP3    H151925   3.448   6.406  10.212  2.4617  3.0044 -2.3305
10170TIP3    H251926   3.408   6.353  10.076  0.2021  0.0993 -0.6441
10171TIP3   OH251927   2.989   1.110  16.301 -0.2278 -0.5280  0.0392
10171TIP3    H151928   3.034   1.075  16.224 -0.8549 -1.1657 -0.0487
10171TIP3    H251929   3.038   1.189  16.323 -1.7213  1.3818 -2.7953
10172TIP3   OH251930   3.442   2.372  14.611  0.0424 -0.7757 -0.0066
10172TIP3    H151931   3.535   2.349  14.617  0.0303 -0.7354  0.4100
10172TIP3    H251932   3.426   2.425  14.690 -1.0527 -3.3316  1.6263
10173TIP3   OH251933   5.861   3.537   4.389 -0.0405  0.6731  0.0932
10173TIP3    H151934   5.849   3.622   4.431 -1.5826  0.6614 -0.2479
10173TIP3    H251935   5.772   3.501   4.384  0.5140 -0.6809 -0.3407
10174TIP3   OH251936   4.192   4.577  12.408 -0.0121  0.0412 -0.1206
10174TIP3    H151937   4.178   4.483  12.398 -0.9343  0.1021  0.4437
10174TIP3    H251938   4.201   4.610  12.318 -1.4677 -0.3432 -0.4358
10175TIP3   OH251939   6.695   4.247   2.051 -0.1463  0.7648 -0.9344
10175TIP3    H151940   6.740   4.172   2.013  1.0106  1.6167 -1.3120
10175TIP3    H251941   6.650   4.288   1.977 -2.4846 -0.6601 -0.3930
10176TIP3   OH251942   2.857   1.271  10.925 -0.6888 -0.2409  0.1585
10176TIP3    H151943   2.841   1.225  10.842 -1.2295  0.6713 -0.2551
10176TIP3    H251944   2.831   1.207  10.992 -0.2679 -0.9810 -0.3660
10177TIP3   OH251945   5.720   6.031   2.754 -1.0014 -0.1721 -0.6643
10177TIP3    H151946   5.744   5.941   2.774 -1.3896  0.0055  0.6860
10177TIP3    H251947   5.626   6.036   2.774 -1.1120  0.3918 -1.2689
10178TIP3   OH251948   3.946   6.402   5.580  0.3640 -0.0022 -0.1515
10178TIP3    H151949   3.863   6.391   5.534  0.7802 -0.6769 -0.7618
10178TIP3    H251950   4.010   6.421   5.510  0.6389  1.0425  0.3558
10179TIP3   OH251951   6.595   3.311   2.929 -0.4463  0.6196  0.0815
10179TIP3    H151952   6.638   3.245   2.983 -0.2030 -1.2612 -2.2304
10179TIP3    H251953   6.572   3.381   2.990  0.5818 -0.9419  2.4103
10180TIP3   OH251954   0.157   5.459   0.085  0.4833  0.0276  0.2285
10180TIP3    H151955   0.242   5.474   0.124  1.7367 -1.9907 -1.5009
10180TIP3    H251956   0.124   5.381   0.129 -0.1241  0.3303  0.3225
10181TIP3   OH251957   5.759   0.331   5.118  0.4040 -0.0282  0.2213
10181TIP3    H151958   5.734   0.413   5.160 -0.1844  0.3817 -0.8951
10181TIP3    H251959   5.776   0.271   5.191 -2.8330 -0.0314  1.1471
10182TIP3   OH251960   3.795   0.413   3.847 -0.3321  0.4553  0.3097
10182TIP3    H151961   3.867   0.353   3.863 -0.5855  0.0125 -0.1602
10182TIP3    H251962   3.783   0.411   3.752  1.3453  3.2514 -0.0701
10183TIP3   OH251963   3.522   4.147   2.819  0.7138 -0.1164  0.0864
10183TIP3    H151964   3.518   4.146   2.915  0.3849  1.6973  0.1345
10183TIP3    H251965   3.463   4.077   2.792  0.1586 -0.1126  1.2149
10184TIP3   OH251966   1.925   5.272  16.267  0.2836 -0.1073  0.4697
10184TIP3    H151967   1.879   5.245  16.187  2.4432 -2.3459 -0.1423
10184TIP3    H251968   2.010   5.303  16.236  0.7507  0.0038  1.8393
10185TIP3   OH251969   6.071   1.732  11.110  0.3594  0.2253 -0.4770
10185TIP3    H151970   6.074   1.700  11.019  0.8188  0.6887 -0.6300
10185TIP3    H251971   6.162   1.739  11.136  0.2188 -0.5350  0.2606
10186TIP3   OH251972   5.256   0.451   3.710 -0.0052 -0.3384 -0.2395
10186TIP3    H151973   5.260   0.378   3.772 -0.8274 -0.1947 -0.0120
10186TIP3    H251974   5.163   0.464   3.694  0.0509  1.4359  0.6435
10187TIP3   OH251975   3.585   5.001  10.832 -0.2065 -0.6078  0.0101
10187TIP3    H151976   3.600   4.918  10.786 -0.5752 -1.3921  1.2455
10187TIP3    H251977   3.499   4.991  10.872  0.0809  0.0632  0.8227
10188TIP3   OH251978   4.801   2.406  12.778 -0.3276  0.0228  0.6842
10188TIP3    H151979   4.729   2.420  12.717 -0.2044  1.2830  0.8111
10188TIP3    H251980   4.820   2.312  12.771  0.0690  0.2050 -1.6640
10189TIP3   OH251981   5.687   1.782  12.786 -0.4412  0.2664 -0.0873
10189TIP3    H151982   5.614   1.771  12.726 -1.0614 -0.5754  0.7954
10189TIP3    H251983   5.751   1.717  12.759  0.0561  1.0845 -0.9366
10190TIP3   OH251984   2.902   5.451  16.614 -0.1763 -0.5360 -0.2199
10190TIP3    H151985   2.842   5.491  16.551  2.5820  2.2145 -1.3399
10190TIP3    H251986   2.948   5.383  16.565 -0.8741 -1.2369  0.0690
10191TIP3   OH251987   0.793   4.168  12.370  0.2460  0.3898 -0.5697
10191TIP3    H151988   0.780   4.173  12.465  1.7169  0.3237 -0.3372
10191TIP3    H251989   0.874   4.217  12.355  1.0920 -1.2330 -1.5234
10192TIP3   OH251990   1.349   3.649  13.310  0.6101 -0.3870 -0.2667
10192TIP3    H151991   1.352   3.617  13.400  0.7071 -0.0288 -0.1399
10192TIP3    H251992   1.337   3.571  13.256 -2.4477 -0.3882  0.2351
10193TIP3   OH251993   2.016   4.139  13.456  0.1138 -0.8472  0.2901
10193TIP3    H151994   2.043   4.066  13.400 -0.3298 -1.6647  1.1180
10193TIP3    H251995   2.093   4.157  13.510  0.6767  0.2047 -0.8233
10194TIP3   OH251996   5.595   3.209  13.303  0.6043  0.6144  0.2629
10194TIP3    H151997   5.650   3.286  13.289  2.2811 -0.1363  2.1447
10194TIP3    H251998   5.655   3.144  13.341 -1.3596 -0.6204  1.3876
10195TIP3   OH251999   4.714   3.423   3.463 -0.0368  0.1094  0.5001
10195TIP3    H152000   4.776   3.480   3.509 -0.6332  0.3663  1.0129
10195TIP3    H252001   4.631   3.471   3.467 -0.3783 -0.4555  0.2782
10196TIP3   OH252002   6.198   6.404   1.866  0.1408  0.4834 -0.5663
10196TIP3    H152003   6.151   6.427   1.786  1.4881 -0.7216 -1.7672
10196TIP3    H252004   6.284   6.445   1.857  0.0576  0.9831  0.6485
10197TIP3   OH252005   0.522   1.317  15.756  0.3095 -0.3810 -0.0070
10197TIP3    H152006   0.560   1.282  15.675 -1.2692 -0.5433 -0.7063
10197TIP3    H252007   0.479   1.398  15.731 -1.5240 -1.1902  0.3036
10198TIP3   OH252008   1.785   4.784  11.068  1.1311 -0.0034  0.6649
10198TIP3    H152009   1.847   4.848  11.103 -0.2967  2.2169 -0.6187
10198TIP3    H252010   1.805   4.781  10.974 -1.2071  1.4943  0.0391
10199TIP3   OH252011   5.025   5.433  11.342  0.1020  0.2483  0.6254
10199TIP3    H152012   4.947   5.440  11.286 -0.0079  1.1516  0.8761
10199TIP3    H252013   5.068   5.353  11.313 -0.5307  0.1283 -0.0153
10200TIP3   OH252014   5.965   0.282  16.332 -0.5428 -0.3916 -0.0723
10200TIP3    H152015   6.034   0.326  16.382 -0.8900 -1.3768  1.3715
10200TIP3    H252016   6.003   0.196  16.311 -2.1554 -2.1028  3.1957
10201TIP3   OH252017   2.606   1.341  15.113  0.8317 -0.6108  0.2272
10201TIP3    H152018   2.681   1.345  15.172  0.5209  1.8726  0.5704
10201TIP3    H252019   2.532   1.370  15.166 -0.0843 -1.4906 -0.5321
10202TIP3   OH252020   3.193   3.682   3.814 -0.0377 -0.2184 -0.1592
10202TIP3    H152021   3.274   3.656   3.859  0.2927  1.8013  0.5274
10202TIP3    H252022   3.191   3.630   3.734  0.6027 -2.1714  1.0431
10203TIP3   OH252023   3.381   3.276  15.166 -0.0304  0.3324  0.2753
10203TIP3    H152024   3.346   3.272  15.077 -1.1585 -0.6411  0.7389
10203TIP3    H252025   3.464   3.229  15.161  0.8309  1.8668 -0.6356
10204TIP3   OH252026   0.226   6.224  17.086  0.5092  0.0826 -0.2969
10204TIP3    H152027   0.176   6.295  17.127  1.9233  0.3581  1.0368
10204TIP3    H252028   0.159   6.167  17.049 -0.6775  2.0842 -1.4241
10205TIP3   OH252029   4.969   4.838   0.785 -0.2772  0.0486 -0.2093
10205TIP3    H152030   5.023   4.762   0.808 -0.7926 -0.3167 -0.1887
10205TIP3    H252031   5.025   4.890   0.727  0.0566 -0.3792 -0.2788
10206TIP3   OH252032   5.469   2.302  15.444 -1.0418 -0.6681 -0.0372
10206TIP3    H152033   5.443   2.340  15.360 -0.8175 -0.0730  0.1554
10206TIP3    H252034   5.455   2.373  15.507  1.8341 -0.0082 -0.0385
10207TIP3   OH252035   3.684   4.559  15.475 -0.5530 -0.4395 -0.6436
10207TIP3    H152036   3.726   4.624  15.418 -0.3308 -0.4242 -0.4657
10207TIP3    H252037   3.640   4.611  15.542  0.1452 -0.4764 -0.1377
10208TIP3   OH252038   4.410   4.963  15.445  0.5589 -0.1337  0.2227
10208TIP3    H152039   4.477   4.973  15.512  1.1549 -1.4858 -0.1468
10208TIP3    H252040   4.342   5.026  15.469  2.0717  1.4740  0.4406
10209TIP3   OH252041   5.275   5.954  15.241  1.0645 -0.3966 -0.3953
10209TIP3    H152042   5.247   5.929  15.329  1.3741 -0.1049 -0.2105
10209TIP3    H252043   5.251   6.046  15.234 -0.6617 -0.8798 -1.3088
10210TIP3   OH252044   2.911   0.795   1.010 -0.0098  0.1377  0.5599
10210TIP3    H152045   2.846   0.730   0.985 -1.2557  1.3663  0.5429
10210TIP3    H252046   2.883   0.827   1.096 -0.5292  2.0050 -0.2449
10211TIP3   OH252047   1.380   4.189  15.665 -0.1963  0.1277 -0.1236
10211TIP3    H152048   1.461   4.146  15.637 -1.0183  0.1856 -2.8621
10211TIP3    H252049   1.314   4.120  15.662 -0.8238  0.7489 -0.9985
10212TIP3   OH252050   4.972   6.032  13.699 -0.7098  0.7621  0.5143
10212TIP3    H152051   4.976   5.996  13.610  2.2727 -1.3794  1.3849
10212TIP3    H252052   4.914   5.972  13.746  0.6859 -0.3606  0.8636
10213TIP3   OH252053   3.465   4.455   0.581  0.5433  0.3210 -0.3768
10213TIP3    H152054   3.558   4.472   0.592  0.6909 -0.0182 -1.0147
10213TIP3    H252055   3.423   4.541   0.585  0.8611  0.4580  0.0754
10214TIP3   OH252056   0.644   5.920   2.010 -0.0865  0.1299  0.1176
10214TIP3    H152057   0.621   6.011   1.992 -2.9560 -0.9426 -2.5946
10214TIP3    H252058   0.561   5.879   2.037  0.2478 -2.3181 -2.1262
10215TIP3   OH252059   0.747   1.900  15.146  0.0025  0.0953 -0.3349
10215TIP3    H152060   0.790   1.927  15.227 -0.8246 -0.4785  0.3146
10215TIP3    H252061   0.781   1.813  15.129 -0.3924 -0.0895 -0.1856
10216TIP3   OH252062   0.145   2.672  11.274  0.2784  0.1391 -0.0926
10216TIP3    H152063   0.094   2.733  11.222  0.8465 -0.0146 -0.8485
10216TIP3    H252064   0.178   2.608  11.211 -1.9536 -2.1863  0.8901
10217TIP3   OH252065   4.397   6.765   0.076  0.0985  0.0609 -0.3133
10217TIP3    H152066   4.406   6.698   0.143 -0.0916 -1.5835 -1.8694
10217TIP3    H252067   4.462   6.832   0.100  0.2930 -0.6588  1.2618
10218TIP3   OH252068   0.574   3.035   1.922 -0.2299 -0.9434  0.1910
10218TIP3    H152069   0.569   3.104   1.856  1.5824 -1.9451 -1.0697
10218TIP3    H252070   0.651   2.984   1.898  0.2691 -1.5916  2.8885
10219TIP3   OH252071   5.874   2.263   6.150 -0.5902 -0.7699  0.1617
10219TIP3    H152072   5.807   2.323   6.182 -0.7391 -0.5875 -0.4800
10219TIP3    H252073   5.885   2.200   6.221  0.2281  0.5276  1.2548
10220TIP3   OH252074   3.834   4.987  11.716 -0.3397 -0.3210  0.5465
10220TIP3    H152075   3.786   5.046  11.773  0.1118  0.3403  0.2561
10220TIP3    H252076   3.926   5.002  11.737 -0.2483 -2.4593  1.9802
10221TIP3   OH252077   0.890   3.623  14.149  0.2928  0.1539 -0.3836
10221TIP3    H152078   0.821   3.561  14.128  0.5350 -0.0092 -0.7060
10221TIP3    H252079   0.907   3.668  14.067 -0.9226  1.7090  0.1663
10222TIP3   OH252080   1.007   0.781   2.190  0.0113  0.7261 -0.2895
10222TIP3    H152081   1.095   0.819   2.194 -0.7602  2.7023 -0.7485
10222TIP3    H252082   0.984   0.782   2.097  0.1831 -1.5718 -0.4174
10223TIP3   OH252083   0.911   2.076  13.669  0.0586  0.4732  0.5051
10223TIP3    H152084   0.901   2.160  13.713 -0.6117  0.5741  0.1782
10223TIP3    H252085   0.822   2.041  13.665 -0.1835  1.1970 -2.1785
10224TIP3   OH252086   5.540   4.425  16.664  0.0328  0.0310 -0.5069
10224TIP3    H152087   5.478   4.397  16.597 -0.4949 -0.7767  0.2911
10224TIP3    H252088   5.498   4.400  16.747  2.2756 -2.3850  0.0160
10225TIP3   OH252089   0.352   4.928   3.030  0.7647 -0.3778 -0.2699
10225TIP3    H152090   0.375   4.871   2.956 -0.6140 -1.5769  0.1989
10225TIP3    H252091   0.265   4.962   3.008  0.9504  0.4001  0.1543
10226TIP3   OH252092   4.914   4.071   4.476 -0.2039  0.1999  0.4542
10226TIP3    H152093   5.000   4.029   4.479  0.0869  0.8665  1.8702
10226TIP3    H252094   4.867   4.035   4.551 -1.0277  0.1469 -0.0774
10227TIP3   OH252095   1.860   1.968  10.971  0.6012 -0.4651 -0.0504
10227TIP3    H152096   1.813   1.937  11.049 -0.0681  1.1329  0.2307
10227TIP3    H252097   1.922   2.032  11.005 -0.7273  1.3632 -0.9211
10228TIP3   OH252098   6.262   5.470   3.082  0.5466 -0.3705 -0.4939
10228TIP3    H152099   6.275   5.527   3.158  0.1192 -0.9123 -0.0088
10228TIP3    H252100   6.192   5.410   3.108 -0.2411  0.0002 -1.6361
10229TIP3   OH252101   1.112   6.719  11.381  1.0246 -0.3749  0.4592
10229TIP3    H152102   1.030   6.722  11.430  0.9198 -1.2157  0.3467
10229TIP3    H252103   1.087   6.740  11.291  1.0201 -0.0754  0.5307
10230TIP3   OH252104   0.782   0.660  13.918 -0.1846  0.0055 -0.3684
10230TIP3    H152105   0.765   0.730  13.854  0.5886 -0.8926 -1.6081
10230TIP3    H252106   0.741   0.582  13.880  0.2744 -0.5407  0.2325
10231TIP3   OH252107   5.431   6.336  15.893 -0.0498 -0.1030  0.1017
10231TIP3    H152108   5.350   6.375  15.927 -0.0383  1.5234 -1.5753
10231TIP3    H252109   5.500   6.368  15.952 -0.2887  0.8699 -0.1324
10232TIP3   OH252110   2.086   0.325  12.014 -0.1957 -0.2829 -0.5134
10232TIP3    H152111   2.031   0.284  12.081 -0.1766 -1.0344 -0.9480
10232TIP3    H252112   2.063   0.417  12.018 -0.7078 -0.4271  0.0508
10233TIP3   OH252113   6.212   3.020   5.319 -0.5248 -0.1775  0.3101
10233TIP3    H152114   6.307   3.022   5.331 -0.2338 -1.6112 -1.4139
10233TIP3    H252115   6.189   2.927   5.326 -1.2764 -0.3048 -2.5722
10234TIP3   OH252116   3.623   1.520   0.559  0.2084 -0.0907 -0.1470
10234TIP3    H152117   3.570   1.545   0.484  1.0777  0.2194 -0.6787
10234TIP3    H252118   3.699   1.578   0.555 -0.4803  1.0696  1.9164
10235TIP3   OH252119   1.141   2.555  13.669  0.5630 -0.3912 -0.2959
10235TIP3    H152120   1.056   2.592  13.645  1.9330  2.5147 -1.1597
10235TIP3    H252121   1.189   2.552  13.586  1.5808 -1.2264  0.3013
10236TIP3   OH252122   5.685   2.239   3.417  0.4663  0.7437  0.2589
10236TIP3    H152123   5.708   2.173   3.482  2.3662  2.4442  1.4231
10236TIP3    H252124   5.721   2.205   3.335  2.1946  0.6993  1.0029
10237TIP3   OH252125   2.207   6.252   4.207  0.3827 -0.7166 -0.2966
10237TIP3    H152126   2.205   6.284   4.297  0.1737 -0.3175 -0.4407
10237TIP3    H252127   2.130   6.196   4.200 -0.8254  0.9419 -0.8350
10238TIP3   OH252128   6.023   6.122   2.358 -0.3093 -0.7683 -0.6348
10238TIP3    H152129   6.011   6.200   2.303 -1.4470 -0.9639 -0.6889
10238TIP3    H252130   6.113   6.129   2.391 -0.7034  1.1206  0.1908
10239TIP3   OH252131   0.411   6.161   5.030 -0.0373 -0.2151 -0.3187
10239TIP3    H152132   0.436   6.215   5.105  1.0709 -1.0425 -0.0626
10239TIP3    H252133   0.428   6.071   5.058 -0.3447 -0.5934 -1.2903
10240TIP3   OH252134   0.029   3.965  12.656 -0.3259 -0.2748  0.2926
10240TIP3    H152135   0.097   3.996  12.717 -0.1143  3.5109 -1.5240
10240TIP3    H252136   0.078   3.920  12.587 -0.0320 -0.4515  0.6131
10241TIP3   OH252137   3.750   6.321   5.064 -0.4554  0.1607  0.0022
10241TIP3    H152138   3.742   6.233   5.027 -0.0980  0.2864 -0.3901
10241TIP3    H252139   3.706   6.316   5.149  1.9911 -1.1998  1.3184
10242TIP3   OH252140   1.198   4.045  11.683  0.2249  0.0603 -0.1704
10242TIP3    H152141   1.144   3.986  11.630  0.0006  1.0739 -1.1260
10242TIP3    H252142   1.141   4.120  11.700  1.2875  1.1437 -1.1950
10243TIP3   OH252143   1.774   5.621   0.913  0.0506  0.4093  0.2092
10243TIP3    H152144   1.834   5.679   0.867 -1.6515  0.9885 -1.3743
10243TIP3    H252145   1.707   5.599   0.849 -1.7661  0.2398  2.0496
10244TIP3   OH252146   2.156   3.583  14.439 -0.4501  0.0065  0.0142
10244TIP3    H152147   2.124   3.656  14.386 -0.0067  0.6890  0.6617
10244TIP3    H252148   2.077   3.542  14.473 -0.7251 -0.1847 -0.8263
10245TIP3   OH252149   1.949   0.042  14.468 -0.1154 -0.9052 -0.7547
10245TIP3    H152150   1.968   0.111  14.403  0.4289  0.8665  1.1867
10245TIP3    H252151   1.853   0.037  14.469 -0.1937  0.3400 -0.4389
10246TIP3   OH252152   0.330   2.145  15.662 -0.1520 -0.1941  0.1105
10246TIP3    H152153   0.282   2.223  15.687  0.0353  0.6269 -1.8866
10246TIP3    H252154   0.422   2.170  15.668 -0.1019  0.0728 -1.3946
10247TIP3   OH252155   1.505   3.882  13.338 -0.4984  0.0885  0.5383
10247TIP3    H152156   1.561   3.861  13.263  0.1478 -0.1222  1.0728
10247TIP3    H252157   1.447   3.806  13.346  0.4565 -0.5954  1.1889
10248TIP3   OH252158   4.710   5.476  14.417 -0.5096 -0.1327  0.3771
10248TIP3    H152159   4.736   5.553  14.468 -0.1930  0.9079 -1.2698
10248TIP3    H252160   4.670   5.417  14.481 -0.9492  1.4913  1.6709
10249TIP3   OH252161   5.023   3.277  12.779  0.3299  0.2358 -0.0113
10249TIP3    H152162   5.060   3.345  12.836  1.5513  0.2978 -0.8253
10249TIP3    H252163   5.093   3.259  12.716 -0.3222 -1.1123 -0.3849
10250TIP3   OH252164   1.782   5.641   1.506  0.2409  0.0456  0.1846
10250TIP3    H152165   1.869   5.655   1.469  0.0594  0.0124 -0.2630
10250TIP3    H252166   1.727   5.618   1.431  0.1421 -1.3408  0.6551
10251TIP3   OH252167   2.361   0.722  11.692  0.4627 -0.4772  0.9132
10251TIP3    H152168   2.420   0.688  11.759  2.6911 -0.9207 -1.1346
10251TIP3    H252169   2.351   0.649  11.630  0.3305  0.6196 -0.3888
10252TIP3   OH252170   4.180   3.695   5.615  0.2009 -0.0658  0.5404
10252TIP3    H152171   4.125   3.747   5.674  0.4901  0.8217  0.0522
10252TIP3    H252172   4.144   3.711   5.528  3.0276  3.1390 -0.2702
10253TIP3   OH252173   6.766   0.510   0.837  0.2544 -0.1541 -0.1653
10253TIP3    H152174   6.773   0.522   0.742  0.7852  1.3353  0.0368
10253TIP3    H252175   6.856   0.503   0.867  0.1874  1.2769  0.4282
10254TIP3   OH252176   3.810   4.901  14.602 -0.3160  0.0102  0.0767
10254TIP3    H152177   3.874   4.830  14.606  0.5021  0.7590  0.7507
10254TIP3    H252178   3.839   4.954  14.528  0.0615  0.5460  0.6034
10255TIP3   OH252179   5.119   5.111  11.542  0.3256  0.1588 -0.0472
10255TIP3    H152180   5.202   5.102  11.589 -0.3909 -0.6927  1.1313
10255TIP3    H252181   5.096   5.203  11.549  0.8562  0.2764  0.1618
10256TIP3   OH252182   2.036   6.218  11.109 -0.0405 -0.3011 -0.2920
10256TIP3    H152183   1.970   6.182  11.168  0.4481 -0.8611 -0.0702
10256TIP3    H252184   2.117   6.172  11.132  0.8605  1.6385  0.6687
10257TIP3   OH252185   0.918   2.730  13.621  0.2047  0.6102 -0.1780
10257TIP3    H152186   0.857   2.799  13.647  1.0308  1.1720  0.3133
10257TIP3    H252187   0.887   2.702  13.535 -2.6748 -1.3797  1.3300
10258TIP3   OH252188   2.756   5.505  13.502  1.2480  0.6057  0.3911
10258TIP3    H152189   2.836   5.552  13.479  1.2643 -0.0856 -1.1043
10258TIP3    H252190   2.692   5.574  13.517  1.5191  1.1593 -0.8309
10259TIP3   OH252191   4.981   1.792  12.731 -0.0226 -0.4865  0.4722
10259TIP3    H152192   5.062   1.774  12.779 -1.0888  0.6305  2.8463
10259TIP3    H252193   5.002   1.770  12.640  2.9550 -0.1721  0.9755
10260TIP3   OH252194   5.013   2.445  16.519  0.2925 -0.3950  0.2423
10260TIP3    H152195   5.017   2.499  16.440  0.1971 -1.2606 -0.3685
10260TIP3    H252196   4.995   2.507  16.589 -0.3395  0.3087 -0.5167
10261TIP3   OH252197   2.293   1.026   3.442 -0.7248  0.4213 -0.3262
10261TIP3    H152198   2.252   0.952   3.487  1.8003 -0.5874  0.5247
10261TIP3    H252199   2.301   0.997   3.351  0.2910 -0.4392  0.0110
10262TIP3   OH252200   0.225   6.218   2.371  0.4181  0.3230  0.3960
10262TIP3    H152201   0.242   6.288   2.434  0.6543 -0.1256  0.8298
10262TIP3    H252202   0.179   6.151   2.421  1.8038 -0.6253  0.4383
10263TIP3   OH252203   0.967   3.202   0.099 -0.0247 -0.1578  0.5717
10263TIP3    H152204   1.013   3.271   0.053 -0.8184 -1.5359 -2.5460
10263TIP3    H252205   0.960   3.131   0.035 -1.8206 -1.9964  2.6374
10264TIP3   OH252206   0.511   2.602  15.794 -0.5684 -0.1518 -0.6926
10264TIP3    H152207   0.596   2.563  15.812 -0.7786 -0.1643  0.3630
10264TIP3    H252208   0.457   2.578  15.870 -0.9707  1.4070 -0.4483
10265TIP3   OH252209   1.445   6.100  10.994 -0.4054  0.1440  0.0522
10265TIP3    H152210   1.403   6.037  11.053 -2.3052  0.6208 -0.7048
10265TIP3    H252211   1.385   6.105  10.919  0.5302  1.6537 -0.6296
10266TIP3   OH252212   6.381   1.050   5.350  0.2503  0.2372  0.6758
10266TIP3    H152213   6.323   0.990   5.302 -0.0255  1.0161  0.0180
10266TIP3    H252214   6.446   1.077   5.285  0.3934  0.6184  0.9798
10267TIP3   OH252215   2.098   6.607   5.667  0.1514  0.3574 -0.0945
10267TIP3    H152216   2.107   6.523   5.712  0.0718  1.2139  1.6118
10267TIP3    H252217   2.016   6.643   5.699 -0.2994  0.6911 -1.5390
10268TIP3   OH252218   6.035   3.634   4.805 -0.1229  0.4108  0.4125
10268TIP3    H152219   6.114   3.688   4.807 -0.0279  0.2645  1.9001
10268TIP3    H252220   6.061   3.555   4.758  0.3265  0.7863  0.0219
10269TIP3   OH252221   1.970   2.644  13.952  0.4409 -0.4316 -0.1246
10269TIP3    H152222   1.900   2.611  14.008  0.5763 -1.2298 -0.4208
10269TIP3    H252223   2.034   2.680  14.013 -0.7412  1.4227  0.1297
10270TIP3   OH252224   0.514   0.269   5.761 -0.1976 -0.0905  0.1056
10270TIP3    H152225   0.515   0.201   5.828  1.1767  1.7685  2.1306
10270TIP3    H252226   0.456   0.337   5.797  1.4075  1.4168 -0.0004
10271TIP3   OH252227   5.478   4.036   2.874  0.2767 -0.1344  0.3760
10271TIP3    H152228   5.543   3.974   2.906  0.4878 -0.2869 -0.3299
10271TIP3    H252229   5.527   4.097   2.820  0.4396  1.9342  2.6844
10272TIP3   OH252230   4.689   6.702  16.682  0.1039 -0.0023  0.4436
10272TIP3    H152231   4.617   6.760  16.705 -2.2908 -1.8624 -1.7393
10272TIP3    H252232   4.709   6.723  16.591  0.1453 -1.5519  0.0613
10273TIP3   OH252233   1.350   3.722   2.263 -0.1721  0.3247  0.4579
10273TIP3    H152234   1.270   3.676   2.286  0.2792 -0.4860  0.4394
10273TIP3    H252235   1.401   3.723   2.345  0.3261 -0.2644  0.1575
10274TIP3   OH252236   3.642   5.087  13.277  0.1407  0.0731 -0.1584
10274TIP3    H152237   3.712   5.152  13.268  0.1361  0.0164 -0.6144
10274TIP3    H252238   3.653   5.051  13.365  1.2511 -0.5978 -0.5636
10275TIP3   OH252239   2.675   1.471  10.723  0.0066 -0.3749  0.1316
10275TIP3    H152240   2.729   1.515  10.788 -0.1578  0.6311 -0.4013
10275TIP3    H252241   2.728   1.398  10.692  1.5137  1.2008 -1.1548
10276TIP3   OH252242   0.457   5.013  15.118 -0.1844 -0.3051 -0.0921
10276TIP3    H152243   0.458   5.025  15.023 -0.7728  0.4479 -0.0126
10276TIP3    H252244   0.404   5.085  15.151 -2.0579 -1.9084  0.6082
10277TIP3   OH252245   5.999   0.261   2.252 -0.3276 -0.4060 -0.4200
10277TIP3    H152246   6.070   0.278   2.314 -2.0296  1.2744  1.2636
10277TIP3    H252247   5.926   0.233   2.307 -1.8341  0.8408 -1.6766
10278TIP3   OH252248   3.628   3.725  12.523  0.1419  0.8725 -0.0190
10278TIP3    H152249   3.607   3.808  12.481  0.0979  1.6589  1.4966
10278TIP3    H252250   3.543   3.688  12.547  0.1853  0.6606 -0.1925
10279TIP3   OH252251   5.977   2.199   5.366 -0.0627 -0.0236  0.5580
10279TIP3    H152252   6.004   2.245   5.445 -0.6330  1.1906  0.0771
10279TIP3    H252253   6.059   2.172   5.325  0.2971  0.5817  0.8620
10280TIP3   OH252254   5.568   5.333   0.344 -0.3214 -0.7681 -0.5641
10280TIP3    H152255   5.554   5.240   0.359  1.0267 -1.4081 -2.7591
10280TIP3    H252256   5.482   5.366   0.318 -1.0181 -1.1501  1.1258
10281TIP3   OH252257   6.460   5.680   0.208 -0.3733 -0.4266 -0.7572
10281TIP3    H152258   6.512   5.738   0.264 -3.5206  1.3012  0.6077
10281TIP3    H252259   6.441   5.604   0.263  0.4483 -0.9542 -1.1804
10282TIP3   OH252260   3.922   5.646   6.131 -1.4530 -0.1285 -0.4492
10282TIP3    H152261   3.910   5.624   6.038 -0.8583  0.4107 -0.6592
10282TIP3    H252262   4.000   5.598   6.157 -0.2910  1.4783 -0.8453
10283TIP3   OH252263   3.618   2.945  10.681  0.6430  0.5705  0.0968
10283TIP3    H152264   3.552   2.972  10.745  1.8295  0.7814  1.2780
10283TIP3    H252265   3.658   2.868  10.719  1.4814  0.7898 -0.3221
10284TIP3   OH252266   1.667   4.763  11.678 -0.1937 -0.1450  0.2747
10284TIP3    H152267   1.697   4.723  11.760 -0.5243  2.5058  1.8289
10284TIP3    H252268   1.575   4.737  11.671 -0.3945  0.2672  1.2223
10285TIP3   OH252269   1.591   3.070   0.597  0.0582 -0.1297 -0.8272
10285TIP3    H152270   1.519   3.122   0.632  0.1882 -0.7234  0.3913
10285TIP3    H252271   1.620   3.117   0.519 -1.7874 -0.0055 -1.4793
10286TIP3   OH252272   4.093   3.564  15.680 -0.0849  0.1762  0.0859
10286TIP3    H152273   4.062   3.565  15.590 -0.6852  1.3516  0.2830
10286TIP3    H252274   4.018   3.592  15.732  0.7846  1.4006  0.7436
10287TIP3   OH252275   2.690   3.194   3.950 -0.3378 -0.2814 -0.4418
10287TIP3    H152276   2.683   3.247   3.871  1.3216 -1.1197 -1.1875
10287TIP3    H252277   2.765   3.230   3.997 -0.3846 -0.7605  0.0127
10288TIP3   OH252278   3.608   6.110  14.840  0.0861  0.1296  0.1269
10288TIP3    H152279   3.677   6.166  14.804  0.8439 -0.8505 -0.0187
10288TIP3    H252280   3.577   6.059  14.765 -0.7880  0.5381  0.1991
10289TIP3   OH252281   6.309   6.423   4.617 -0.0765 -0.8426  1.0024
10289TIP3    H152282   6.243   6.485   4.649  0.9970  1.8070 -1.4158
10289TIP3    H252283   6.283   6.407   4.526  2.4485  0.1929  0.0248
10290TIP3   OH252284   0.626   5.954   4.545 -0.0439  0.0478  0.5720
10290TIP3    H152285   0.599   5.991   4.462 -0.5086  0.5094  0.9207
10290TIP3    H252286   0.585   6.010   4.611  0.3435 -0.2887  1.1107
10291TIP3   OH252287   2.690   3.719  13.274 -0.2891  0.3465  0.6516
10291TIP3    H152288   2.708   3.744  13.364 -0.2637  1.5297  0.3377
10291TIP3    H252289   2.705   3.624  13.272 -1.2248  0.1349  2.0924
10292TIP3   OH252290   1.856   1.790   4.818 -0.4001 -0.2562 -0.2732
10292TIP3    H152291   1.947   1.790   4.846 -0.0594  1.1695 -1.2489
10292TIP3    H252292   1.842   1.703   4.781  0.7069 -0.3305 -0.5441
10293TIP3   OH252293   3.109   5.294  14.603  0.0438 -0.1794 -0.1854
10293TIP3    H152294   3.090   5.205  14.631  1.7104 -0.0993  1.3817
10293TIP3    H252295   3.204   5.297  14.595  0.0269  1.5009 -0.0922
10294TIP3   OH252296   3.860   0.721  13.319  0.3576  0.4852 -0.5053
10294TIP3    H152297   3.786   0.663  13.298 -0.0461 -0.0941  2.1576
10294TIP3    H252298   3.935   0.662  13.320  0.1401  0.1992  0.9857
10295TIP3   OH252299   2.088   2.200   3.241  0.1099  0.3628 -0.6833
10295TIP3    H152300   2.110   2.125   3.187  0.4810  0.7367 -1.0565
10295TIP3    H252301   2.041   2.163   3.316  0.1336 -0.2174 -0.9529
10296TIP3   OH252302   4.412   1.989  14.254  0.4300  0.0941  0.4031
10296TIP3    H152303   4.381   2.053  14.317 -0.7673 -0.0955  0.0530
10296TIP3    H252304   4.503   2.011  14.238  0.9585 -0.2718  2.6919
10297TIP3   OH252305   3.229   3.823   3.150 -0.0889  0.4032  0.2597
10297TIP3    H152306   3.163   3.887   3.123  0.2229  0.5321 -0.2039
10297TIP3    H252307   3.306   3.844   3.096  0.6475  0.8561  1.4399
10298TIP3   OH252308   5.204   0.027   4.738 -0.5929 -0.7954  0.1961
10298TIP3    H152309   5.195   0.093   4.670  0.9378  0.3583  1.0266
10298TIP3    H252310   5.117   0.018   4.776 -0.5141  2.2483  1.3418
10299TIP3   OH252311   2.040   1.415   1.622 -0.6252  0.5128  0.2232
10299TIP3    H152312   2.084   1.406   1.537  0.0881  1.4350  0.4785
10299TIP3    H252313   2.050   1.330   1.664  0.6429  0.5980  0.1321
10300TIP3   OH252314   2.912   0.953  13.475  0.2763  0.2643 -0.9682
10300TIP3    H152315   2.837   1.011  13.491  0.7120  0.6573 -0.2611
10300TIP3    H252316   2.932   0.918  13.562 -0.5629 -1.6987 -1.5186
10301TIP3   OH252317   1.573   3.223  14.872  0.3312  0.0690  0.3010
10301TIP3    H152318   1.556   3.282  14.799  0.7664  2.4884  2.0063
10301TIP3    H252319   1.662   3.190  14.856 -0.8376 -2.2915 -1.9726
10302TIP3   OH252320   4.827   4.451  14.467 -0.4021  0.4909  0.4115
10302TIP3    H152321   4.855   4.507  14.540 -1.3940  2.2737 -0.5163
10302TIP3    H252322   4.737   4.427  14.488 -0.2570 -0.1049  0.3906
10303TIP3   OH252323   1.007   1.841  13.775  0.3033 -0.9396 -0.6914
10303TIP3    H152324   1.098   1.812  13.778  0.4388 -0.4408  0.7703
10303TIP3    H252325   1.011   1.926  13.731  0.0794 -2.3228 -3.6585
10304TIP3   OH252326   5.005   1.229  14.363 -0.2103  0.2751 -0.6119
10304TIP3    H152327   4.920   1.270  14.343 -0.2340  0.4469 -0.1588
10304TIP3    H252328   4.999   1.143  14.321 -0.8718  0.0219 -0.0219
10305TIP3   OH252329   4.012   3.469  16.698  0.3000  0.0610 -0.3984
10305TIP3    H152330   3.918   3.482  16.685  0.1561 -0.6829 -0.1406
10305TIP3    H252331   4.045   3.447  16.611  0.3054  0.7376 -0.5675
10306TIP3   OH252332   1.127   4.951   4.635  0.3367 -0.3285 -0.2973
10306TIP3    H152333   1.193   4.969   4.568  0.0890 -1.4710 -0.8720
10306TIP3    H252334   1.049   4.926   4.586  0.5539 -2.5250  0.4007
10307TIP3   OH252335   4.409   2.570  13.637 -0.3493  0.1252  0.3226
10307TIP3    H152336   4.321   2.578  13.674 -1.6680 -0.8793 -2.3325
10307TIP3    H252337   4.423   2.476  13.627 -0.7502  0.2812 -2.9386
10308TIP3   OH252338   1.213   1.216  16.189  0.5961 -0.4579 -0.5832
10308TIP3    H152339   1.224   1.292  16.132 -0.1205 -0.5728 -0.8846
10308TIP3    H252340   1.119   1.197  16.187  0.5346 -0.3936  0.7412
10309TIP3   OH252341   2.556   0.576   2.314 -0.0160  0.2730 -0.2634
10309TIP3    H152342   2.520   0.518   2.247 -0.2823  0.1878 -0.0461
10309TIP3    H252343   2.632   0.617   2.272  1.2997 -1.5986  0.1748
10310TIP3   OH252344   4.385   2.482  12.408  0.1646 -0.1826  0.0167
10310TIP3    H152345   4.353   2.563  12.370 -0.2793  0.4560  1.6660
10310TIP3    H252346   4.306   2.430  12.425  0.4977 -1.4107 -1.9052
10311TIP3   OH252347   1.894   3.645  17.186  0.0771 -0.1918 -0.2578
10311TIP3    H152348   1.956   3.714  17.164 -0.5890  0.0692 -1.4509
10311TIP3    H252349   1.942   3.564  17.172  0.4488  0.0202 -0.2175
10312TIP3   OH252350   0.975   2.228  13.298  0.0070  0.4484 -0.1262
10312TIP3    H152351   1.040   2.264  13.237 -1.0755  0.1110 -1.5268
10312TIP3    H252352   0.954   2.301  13.356  0.2686  1.1147 -0.8471
10313TIP3   OH252353   2.592   4.262  16.160 -0.2859  0.0839  0.3244
10313TIP3    H152354   2.676   4.226  16.130  0.2614  0.2754  1.5588
10313TIP3    H252355   2.608   4.356  16.170 -0.4153  0.0206  1.2513
10314TIP3   OH252356   5.770   6.483   3.079 -0.3708 -0.3338 -0.2248
10314TIP3    H152357   5.695   6.442   3.122 -0.0518  0.3023  0.9884
10314TIP3    H252358   5.740   6.571   3.057 -0.5742 -0.6988 -1.4701
10315TIP3   OH252359   1.475   4.307  16.456  0.4405 -0.2578 -0.2510
10315TIP3    H152360   1.392   4.309  16.504  0.7824  0.6743  0.3184
10315TIP3    H252361   1.535   4.360  16.508  0.6432  1.3665 -2.0000
10316TIP3   OH252362   1.800   0.833  12.648  0.1754  0.2656 -0.3601
10316TIP3    H152363   1.884   0.828  12.602  1.0035  0.5196  1.0494
10316TIP3    H252364   1.744   0.771  12.603  1.5213 -0.8563 -0.5637
10317TIP3   OH252365   4.480   4.101  16.943 -0.2945 -0.4173  0.3572
10317TIP3    H152366   4.542   4.070  16.876 -2.7606 -0.2062 -2.2289
10317TIP3    H252367   4.486   4.196  16.939 -0.2326 -0.4072  0.6799
10318TIP3   OH252368   3.569   0.459   4.611  0.1295  0.1005  0.0604
10318TIP3    H152369   3.479   0.481   4.632  0.0873 -0.1408  0.1374
10318TIP3    H252370   3.606   0.429   4.693 -0.0783 -0.9943 -0.2269
10319TIP3   OH252371   5.818   1.150  14.594 -0.5020 -0.5549  0.9289
10319TIP3    H152372   5.859   1.232  14.563 -0.0746 -0.4222  1.8234
10319TIP3    H252373   5.742   1.139  14.537 -0.7388  0.6246  0.9859
10320TIP3   OH252374   1.641   1.424   2.188  0.0024  0.2572 -0.3775
10320TIP3    H152375   1.673   1.369   2.260  0.6826 -0.1641 -0.9800
10320TIP3    H252376   1.691   1.505   2.196  1.0149 -0.2711 -1.1130
10321TIP3   OH252377   5.008   0.689   1.394  0.0780  0.8832  0.3592
10321TIP3    H152378   5.053   0.605   1.385 -0.1544  0.9364 -1.8268
10321TIP3    H252379   4.953   0.679   1.472  0.8453 -0.6135  0.7365
10322TIP3   OH252380   0.541   3.153  11.270  0.1817 -0.3280  0.0101
10322TIP3    H152381   0.574   3.243  11.269 -0.9247  0.0935 -0.3346
10322TIP3    H252382   0.616   3.100  11.242  0.4954  0.6176 -1.0181
10323TIP3   OH252383   3.887   3.334   2.767  0.0600 -0.1395  0.9235
10323TIP3    H152384   3.851   3.332   2.678 -0.8459  0.5089  1.2633
10323TIP3    H252385   3.942   3.255   2.772  1.2228  0.4962 -0.6490
10324TIP3   OH252386   2.816   0.619  16.659  0.8836 -0.5777  0.0518
10324TIP3    H152387   2.888   0.674  16.629  0.9443  0.0848  1.3463
10324TIP3    H252388   2.799   0.560  16.586  2.6420 -0.6565 -0.3481
10325TIP3   OH252389   4.649   1.125  14.811  0.2950  0.0084 -0.1694
10325TIP3    H152390   4.616   1.035  14.811 -0.3553  0.2365 -0.3994
10325TIP3    H252391   4.632   1.157  14.899  3.1845 -1.0038  0.8567
10326TIP3   OH252392   6.582   5.174   4.030  0.0152 -0.2167 -0.4435
10326TIP3    H152393   6.497   5.139   4.003 -0.7562 -0.2677  1.8245
10326TIP3    H252394   6.584   5.263   3.994 -1.2313 -0.0496 -0.1342
10327TIP3   OH252395   0.893   0.244   3.648  0.2297  0.2304  0.3771
10327TIP3    H152396   0.842   0.181   3.699  1.2651 -0.8742  0.0847
10327TIP3    H252397   0.838   0.264   3.572 -0.7610  0.8977  1.2409
10328TIP3   OH252398   4.649   0.092  11.647  0.0935  0.4009 -0.4901
10328TIP3    H152399   4.678   0.095  11.738  1.0353  0.1627 -0.7776
10328TIP3    H252400   4.657   0.182  11.616 -3.5168  1.2643  0.6280
10329TIP3   OH252401   1.208   4.212  11.344 -0.5987  0.1488  0.0929
10329TIP3    H152402   1.156   4.222  11.424 -0.8041  1.1553 -0.1467
10329TIP3    H252403   1.197   4.296  11.298 -0.4235 -0.3863 -0.9502
10330TIP3   OH252404   5.463   6.761   2.169  0.2021  0.2457  0.0977
10330TIP3    H152405   5.518   6.682   2.169 -1.7613 -1.1790 -0.1116
10330TIP3    H252406   5.474   6.797   2.257 -0.1489 -1.2225  0.7833
10331TIP3   OH252407   4.131   3.467   5.316 -0.2411 -0.2568  0.1234
10331TIP3    H152408   4.044   3.437   5.288 -0.0912 -0.3715 -0.2229
10331TIP3    H252409   4.124   3.562   5.317 -0.3325 -0.2608 -0.0315
10332TIP3   OH252410   2.742   3.655  14.131  0.0510 -0.3250 -0.3365
10332TIP3    H152411   2.797   3.644  14.208 -0.2849 -1.7537 -0.2735
10332TIP3    H252412   2.707   3.743  14.139 -0.2621 -0.5634  1.3433
10333TIP3   OH252413   0.814   5.676   3.949  0.2843  0.1676  0.4770
10333TIP3    H152414   0.789   5.766   3.928  0.2620 -0.1108 -0.7760
10333TIP3    H252415   0.891   5.685   4.006  0.0920  0.9778  0.6210
10334TIP3   OH252416   2.832   5.127   4.414  0.5397  0.5862  0.0026
10334TIP3    H152417   2.907   5.106   4.358  2.3410 -0.1743  2.5542
10334TIP3    H252418   2.805   5.043   4.450  0.2524  1.1957  1.2495
10335TIP3   OH252419   3.522   4.068   0.809  0.3612 -0.0535 -0.1411
10335TIP3    H152420   3.581   4.047   0.881  0.2414  2.0568  0.6341
10335TIP3    H252421   3.449   4.006   0.819  1.0935 -0.8181  0.5930
10336TIP3   OH252422   4.940   4.623   4.081 -0.7191  0.2995 -0.1942
10336TIP3    H152423   4.955   4.594   4.170 -1.3719 -0.3143 -0.2724
10336TIP3    H252424   4.847   4.606   4.065 -0.5866  0.2900 -1.0254
10337TIP3   OH252425   3.016   5.576   5.390  0.6605 -0.1388 -0.4454
10337TIP3    H152426   3.015   5.648   5.326 -0.0488  0.2179 -0.0357
10337TIP3    H252427   3.108   5.549   5.393  0.8483  0.4141 -0.9770
10338TIP3   OH252428   0.272   1.902  13.642  0.0789 -0.1261 -0.0213
10338TIP3    H152429   0.337   1.857  13.696  0.2149  0.2102  0.1023
10338TIP3    H252430   0.195   1.846  13.645  0.4014 -0.5853 -0.2645
10339TIP3   OH252431   2.990   0.916   3.717  0.2480 -0.1291  0.3005
10339TIP3    H152432   3.074   0.952   3.746  1.4297 -2.0071 -0.5916
10339TIP3    H252433   3.012   0.831   3.678 -2.3056 -1.8080  2.1213
10340TIP3   OH252434   4.672   6.218   4.797  0.1029 -0.2292  0.1972
10340TIP3    H152435   4.578   6.217   4.814  0.3897 -1.4568  1.9158
10340TIP3    H252436   4.692   6.128   4.768  0.7858 -0.0405  0.0628
10341TIP3   OH252437   6.114   5.801   2.370  0.5427  0.8297 -0.4113
10341TIP3    H152438   6.124   5.893   2.391  0.4110  0.7584 -0.0215
10341TIP3    H252439   6.038   5.773   2.421  0.5513  0.5173 -0.5656
10342TIP3   OH252440   1.693   4.919   2.099 -0.6261 -0.2645  0.0799
10342TIP3    H152441   1.685   4.832   2.141  0.8507  0.5086  2.1358
10342TIP3    H252442   1.622   4.970   2.138 -0.2487  0.0072  0.4148
10343TIP3   OH252443   2.608   1.316   1.946 -0.0234 -0.5172  0.3273
10343TIP3    H152444   2.584   1.278   2.031 -0.3384 -1.4257 -0.1604
10343TIP3    H252445   2.584   1.250   1.882  0.2348  0.1522 -0.4819
10344TIP3   OH252446   0.299   5.191  13.809 -0.4511  0.2571 -0.0334
10344TIP3    H152447   0.327   5.252  13.741  0.1069  1.0685  0.8937
10344TIP3    H252448   0.286   5.108  13.763 -1.0144  1.0074 -1.2848
10345TIP3   OH252449   4.854   3.468   0.620 -0.0880 -0.4733 -0.0719
10345TIP3    H152450   4.911   3.477   0.696  1.2960  0.8270 -1.2146
10345TIP3    H252451   4.910   3.486   0.545 -1.6409 -0.7399 -1.3596
10346TIP3   OH252452   3.031   6.491   5.294  0.3152 -0.7767  0.0965
10346TIP3    H152453   3.083   6.418   5.261  1.1482 -0.5709  0.9210
10346TIP3    H252454   3.011   6.467   5.385 -0.8691 -0.7578 -0.1464
10347TIP3   OH252455   3.924   3.610   1.698 -0.3702 -0.9508 -0.0254
10347TIP3    H152456   3.867   3.534   1.709 -1.4494 -0.0978  0.4960
10347TIP3    H252457   3.874   3.683   1.734  0.5350  0.0626 -0.7497
10348TIP3   OH252458   4.495   5.927   4.599  0.4693  0.1406 -0.7391
10348TIP3    H152459   4.433   5.865   4.560 -1.1873  0.6402  0.9404
10348TIP3    H252460   4.509   5.993   4.531 -1.2531  0.2780 -0.9895
10349TIP3   OH252461   5.843   4.855  13.653  0.5739 -0.3900  0.3883
10349TIP3    H152462   5.791   4.899  13.586  0.7475 -0.6886  0.0512
10349TIP3    H252463   5.932   4.885  13.636  0.5123  0.1474  0.9860
10350TIP3   OH252464   2.410   5.948  12.102  0.3618  0.3348 -0.2118
10350TIP3    H152465   2.378   6.038  12.100 -0.5435  0.0613  0.6580
10350TIP3    H252466   2.374   5.912  12.184  1.6274 -0.4786  0.0162
10351TIP3   OH252467   1.070   4.390  13.669  0.0931 -0.4029  0.3335
10351TIP3    H152468   1.011   4.348  13.732  0.8242  1.3050  2.2846
10351TIP3    H252469   1.077   4.328  13.597 -0.7732 -2.4884  1.9494
10352TIP3   OH252470   3.136   4.365  13.714 -0.4367 -0.1084  0.2938
10352TIP3    H152471   3.058   4.311  13.699 -1.1803  0.8419  0.6075
10352TIP3    H252472   3.136   4.380  13.808  0.4847 -0.6015  0.3799
10353TIP3   OH252473   5.384   5.346   4.768  0.3378 -0.1034  0.1725
10353TIP3    H152474   5.327   5.328   4.843  0.2597  0.6234  0.2914
10353TIP3    H252475   5.373   5.270   4.711 -0.2954 -0.2462  0.4765
10354TIP3   OH252476   3.664   0.478  16.738  0.4444  0.0346 -0.1351
10354TIP3    H152477   3.718   0.553  16.765  1.1290  0.3249 -2.1738
10354TIP3    H252478   3.634   0.500  16.650 -2.3359 -0.5311  0.5817
10355TIP3   OH252479   6.668   4.238   2.846 -0.0927  0.5011 -0.2220
10355TIP3    H152480   6.735   4.170   2.846 -0.7523 -0.2515 -2.9846
10355TIP3    H252481   6.712   4.315   2.809 -0.2467  0.5702 -0.2630
10356TIP3   OH252482   3.833   1.747   1.496  0.0998  0.3223  0.0032
10356TIP3    H152483   3.788   1.688   1.556 -1.1948  1.4895  0.2310
10356TIP3    H252484   3.866   1.690   1.427  3.1534 -1.3364  2.5601
10357TIP3   OH252485   3.501   5.442   5.338 -0.7462  0.0276 -0.3473
10357TIP3    H152486   3.481   5.531   5.307 -0.0045  0.2849 -0.1233
10357TIP3    H252487   3.586   5.422   5.298 -1.3676 -0.9760 -1.1919
10358TIP3   OH252488   2.743   6.065  13.892 -0.0273  0.2927  0.3831
10358TIP3    H152489   2.688   6.101  13.822 -0.0243 -2.1282 -0.9749
10358TIP3    H252490   2.828   6.108  13.881 -0.2633  0.5246 -0.6087
10359TIP3   OH252491   5.545   5.927   2.462 -0.0140 -0.4442  0.5879
10359TIP3    H152492   5.482   5.965   2.524 -1.9193 -0.9376 -0.9538
10359TIP3    H252493   5.496   5.858   2.418  1.7042 -0.9984 -0.5484
10360TIP3   OH252494   4.079   0.622   0.890 -0.3941 -0.4862 -0.2392
10360TIP3    H152495   4.013   0.580   0.944 -1.2604 -0.3822 -1.1935
10360TIP3    H252496   4.032   0.654   0.813  0.2570  2.1685  0.3784
10361TIP3   OH252497   6.016   1.318  16.118 -0.6752  0.1837 -0.0477
10361TIP3    H152498   6.047   1.357  16.199 -3.8861  0.2917  1.2404
10361TIP3    H252499   6.013   1.224  16.136  1.4194 -0.1773 -1.1595
10362TIP3   OH252500   6.099   1.527   4.224  0.0817  0.0446  0.0687
10362TIP3    H152501   6.134   1.498   4.139  0.2354  0.3167  0.0388
10362TIP3    H252502   6.047   1.452   4.254 -1.5441  0.6240 -1.1465
10363TIP3   OH252503   1.827   2.422   3.395 -0.0724 -0.3394  0.0732
10363TIP3    H152504   1.766   2.437   3.323  0.9875  1.2536 -0.5466
10363TIP3    H252505   1.795   2.343   3.437 -3.0510  0.8560  0.2831
10364TIP3   OH252506   2.562   6.098   3.327 -0.1733 -0.0191 -0.2752
10364TIP3    H152507   2.498   6.034   3.295  0.1373 -1.0025  0.9718
10364TIP3    H252508   2.514   6.151   3.390 -0.4439  1.0678 -1.3457
10365TIP3   OH252509   6.317   4.700   3.747 -0.7362 -0.1899  0.1946
10365TIP3    H152510   6.366   4.674   3.825 -1.6564  0.5477  1.0546
10365TIP3    H252511   6.226   4.678   3.768 -1.0633  0.5026 -0.4474
10366TIP3   OH252512   2.878   1.612   0.855  0.2557  0.8177 -0.9880
10366TIP3    H152513   2.878   1.707   0.847  2.0164  0.8530 -0.9242
10366TIP3    H252514   2.853   1.580   0.768 -1.4088  1.3243 -0.7198
10367TIP3   OH252515   5.646   6.096   6.401 -0.1686 -0.9199 -0.2266
10367TIP3    H152516   5.602   6.178   6.376 -0.8693 -1.6778 -1.5683
10367TIP3    H252517   5.591   6.059   6.469  0.9373  0.4004  1.5042
10368TIP3   OH252518   4.236   0.678  10.277  0.4206 -0.2548 -0.1041
10368TIP3    H152519   4.217   0.769  10.297  0.5880 -0.3043  0.2916
10368TIP3    H252520   4.305   0.653  10.338 -0.2016 -0.8841  0.3639
10369TIP3   OH252521   2.007   0.531   3.343 -0.1508  0.1300 -0.5875
10369TIP3    H152522   2.022   0.578   3.425  0.4878 -0.8669 -0.1207
10369TIP3    H252523   1.938   0.468   3.365 -0.7786  0.6196 -1.1252
10370TIP3   OH252524   0.863   2.074  14.981 -0.4594  0.1459  0.1939
10370TIP3    H152525   0.843   2.150  15.035 -0.9917 -0.9979  1.6599
10370TIP3    H252526   0.821   2.000  15.025  2.6212 -1.5412  0.5856
10371TIP3   OH252527   3.368   1.343  16.811 -0.4620  0.2636 -0.5156
10371TIP3    H152528   3.273   1.329  16.815 -0.3658 -0.2922 -0.1233
10371TIP3    H252529   3.390   1.383  16.895 -0.1908 -0.5864 -0.1804
10372TIP3   OH252530   0.842   2.600   2.750  0.1267 -0.2474 -0.3734
10372TIP3    H152531   0.850   2.623   2.842 -1.3869  0.5739 -0.4026
10372TIP3    H252532   0.864   2.680   2.702 -1.6619  0.1779 -0.5932
10373TIP3   OH252533   4.317   2.743   4.164 -0.4179 -0.3913 -0.6283
10373TIP3    H152534   4.381   2.674   4.180 -2.1992 -2.8068 -2.9575
10373TIP3    H252535   4.337   2.774   4.076  0.6329  2.5240  0.5451
10374TIP3   OH252536   3.264   1.600  12.776 -0.3622  0.3865  0.4018
10374TIP3    H152537   3.276   1.573  12.867  0.6235  0.9886  0.4570
10374TIP3    H252538   3.335   1.557  12.728  0.7884  2.2284  0.3723
10375TIP3   OH252539   3.835   5.162  12.547 -0.0909  0.6169  0.2066
10375TIP3    H152540   3.779   5.192  12.476 -0.0621  0.1991  0.0054
10375TIP3    H252541   3.856   5.241  12.597  1.3443  1.2361 -1.2784
10376TIP3   OH252542   5.716   4.393   0.536  0.4819  0.2741  0.0977
10376TIP3    H152543   5.718   4.479   0.578  2.2275  0.8982 -1.1572
10376TIP3    H252544   5.781   4.341   0.584  2.3825  0.9475 -1.6113
10377TIP3   OH252545   3.380   0.618  11.931 -0.1261 -0.5260  0.1232
10377TIP3    H152546   3.406   0.597  11.841  0.9215  0.0003  0.2870
10377TIP3    H252547   3.372   0.533  11.974  1.4573 -0.7232  0.0816
10378TIP3   OH252548   5.195   5.164  12.758  0.5458  0.1956 -0.2346
10378TIP3    H152549   5.132   5.188  12.690  1.3764  0.3883 -0.9458
10378TIP3    H252550   5.280   5.167  12.715  0.8762 -2.3643  0.1053
10379TIP3   OH252551   1.380   6.044   3.869 -0.6377 -0.0176  0.4985
10379TIP3    H152552   1.344   6.014   3.952 -0.2818  0.8032  0.9622
10379TIP3    H252553   1.395   6.138   3.882 -0.7766  0.1613 -0.5654
10380TIP3   OH252554   5.659   6.205  14.373 -0.7103 -0.0811 -0.6576
10380TIP3    H152555   5.664   6.110  14.389 -2.0204 -0.1549 -0.5581
10380TIP3    H252556   5.641   6.242  14.460 -0.3506  0.2538 -0.7238
10381TIP3   OH252557   0.022   2.594  16.631 -0.4811 -0.1691 -0.2280
10381TIP3    H152558   0.079   2.533  16.678  0.7436 -0.6653 -2.2222
10381TIP3    H252559  -0.009   2.544  16.556 -0.7791  1.1670 -1.0164
10382TIP3   OH252560   4.358   3.331   4.738 -0.4792 -0.1242 -0.6901
10382TIP3    H152561   4.437   3.276   4.743  0.5322  0.9140 -3.4981
10382TIP3    H252562   4.377   3.405   4.797  0.9458  0.3920 -1.7411
10383TIP3   OH252563   2.156   6.524  16.478 -0.6927  0.0838  0.1266
10383TIP3    H152564   2.113   6.576  16.545 -0.4137 -0.9699  1.1491
10383TIP3    H252565   2.093   6.456  16.456 -0.9912  0.7173 -1.0823
10384TIP3   OH252566   3.046   2.611  14.124 -0.3231  0.4879 -0.1386
10384TIP3    H152567   3.075   2.606  14.215 -0.1500 -0.8296 -0.2411
10384TIP3    H252568   2.967   2.558  14.121  0.3575 -0.5382 -0.9878
10385TIP3   OH252569   1.115   4.989   3.332 -0.1163  0.2015 -0.0158
10385TIP3    H152570   1.067   5.024   3.406 -2.4704 -0.0843 -1.3187
10385TIP3    H252571   1.171   5.061   3.303 -0.5143  0.9041  0.9238
10386TIP3   OH252572   1.019   6.582   2.947 -0.0585  0.2990 -0.5136
10386TIP3    H152573   0.953   6.594   3.015  0.5843 -0.2800  0.2324
10386TIP3    H252574   1.035   6.487   2.945  1.3773  0.5000 -0.0433
10387TIP3   OH252575   1.364   2.851  10.955 -0.0432  1.0038 -0.0912
10387TIP3    H152576   1.275   2.836  10.988 -0.2860  1.3931 -0.5367
10387TIP3    H252577   1.410   2.769  10.971 -0.5294  0.7453  0.0155
10388TIP3   OH252578   0.599   0.943   4.857  0.3801 -0.1675  0.1866
10388TIP3    H152579   0.566   0.875   4.915  2.3986 -2.6742 -1.3650
10388TIP3    H252580   0.666   0.899   4.805  1.0071  2.7744 -1.7284
10389TIP3   OH252581   1.925   4.507   4.796  0.2539 -0.5199  0.4943
10389TIP3    H152582   1.991   4.544   4.855 -1.4954 -0.6132  2.5838
10389TIP3    H252583   1.844   4.509   4.845 -1.2109 -1.1058 -1.7429
10390TIP3   OH252584   1.869   6.652  10.892  0.1811  0.0825  0.3376
10390TIP3    H152585   1.945   6.706  10.912  1.0147 -0.9705  0.1129
10390TIP3    H252586   1.794   6.705  10.918  0.9906  1.1066  0.6454
10391TIP3   OH252587   0.731   6.665  12.755  0.1445 -0.2400  0.0903
10391TIP3    H152588   0.741   6.754  12.788 -0.0656 -0.0801 -0.2725
10391TIP3    H252589   0.637   6.654  12.740  0.2619 -0.2039 -0.7258
10392TIP3   OH252590   1.619   0.562   4.495 -0.3097  0.0018  0.5530
10392TIP3    H152591   1.653   0.638   4.541  0.2799  0.3995 -0.5269
10392TIP3    H252592   1.691   0.532   4.440 -0.1518 -1.9913  1.7073
10393TIP3   OH252593   0.657   3.257  12.108  0.4319 -0.1727 -0.1111
10393TIP3    H152594   0.711   3.181  12.089  0.1712 -0.3215 -0.2608
10393TIP3    H252595   0.605   3.232  12.185 -0.8281 -0.7526 -1.1176
10394TIP3   OH252596   3.027   5.056  12.266  0.1349 -0.2259  0.1457
10394TIP3    H152597   3.066   5.096  12.344 -2.0339  0.3165  1.0047
10394TIP3    H252598   3.014   4.964  12.290 -0.6294 -0.0359  0.4861
10395TIP3   OH252599   4.513   4.518   5.971  0.3090  0.1097  0.6402
10395TIP3    H152600   4.595   4.565   5.957  0.5995 -0.7143 -0.6056
10395TIP3    H252601   4.537   4.443   6.026  0.5858 -0.6337 -0.4730
10396TIP3   OH252602   0.312   5.911  15.113 -0.6498  0.4649 -0.5615
10396TIP3    H152603   0.273   5.988  15.154  0.8297  1.2620 -0.6107
10396TIP3    H252604   0.283   5.838  15.168 -2.1609  1.0043 -0.5820
10397TIP3   OH252605   1.516   5.157   3.673 -0.0287 -0.2452 -0.9218
10397TIP3    H152606   1.575   5.092   3.713  1.5710  2.0154  0.6833
10397TIP3    H252607   1.442   5.106   3.642  1.7922 -3.0138 -1.1135
10398TIP3   OH252608   2.326   4.650  11.899 -0.1623 -0.0289 -0.4453
10398TIP3    H152609   2.261   4.720  11.909  0.8259  1.0457 -1.3073
10398TIP3    H252610   2.328   4.633  11.805 -0.0074 -0.8482 -0.2941
10399TIP3   OH252611   3.888   4.029  14.339 -0.4194  0.6442 -0.0993
10399TIP3    H152612   3.813   3.986  14.297 -1.0085  0.5650  1.0091
10399TIP3    H252613   3.866   4.122  14.338  0.2545  0.8102 -1.2983
10400TIP3   OH252614   0.509   3.923  14.442  0.4696 -0.1077  0.2734
10400TIP3    H152615   0.549   3.915  14.355  2.3377  0.4109  1.0258
10400TIP3    H252616   0.565   3.985  14.488 -1.5851  1.0931  1.2684
10401TIP3   OH252617   2.262   2.412   4.351  0.0688  0.4594 -0.6557
10401TIP3    H152618   2.274   2.317   4.356  1.9909  0.6754 -0.4097
10401TIP3    H252619   2.202   2.432   4.423 -1.4449 -0.6937 -1.5431
10402TIP3   OH252620   1.332   2.254   0.856  0.4692  0.2307 -0.4416
10402TIP3    H152621   1.400   2.273   0.792  0.7601 -0.8799 -0.4971
10402TIP3    H252622   1.380   2.215   0.930  0.0069  0.3756 -0.0648
10403TIP3   OH252623   5.061   6.426   2.026  0.7010  0.1350  0.4812
10403TIP3    H152624   5.116   6.463   2.095  1.1014  1.3503 -0.4562
10403TIP3    H252625   5.096   6.338   2.011  1.4938  0.3850  0.8534
10404TIP3   OH252626   2.188   6.134   1.841 -0.1968 -0.3692 -0.1810
10404TIP3    H152627   2.162   6.185   1.917 -1.1171  0.9525 -1.3272
10404TIP3    H252628   2.115   6.143   1.779  0.8989 -0.6225 -1.5804
10405TIP3   OH252629   5.580   1.552  12.017 -0.2017 -0.5250  0.1154
10405TIP3    H152630   5.579   1.529  11.924  0.6315 -0.1422 -0.0059
10405TIP3    H252631   5.521   1.627  12.024  1.8480  1.2814 -0.6665
10406TIP3   OH252632   5.607   2.301   3.983  0.1986  0.4006 -0.1696
10406TIP3    H152633   5.647   2.360   4.047  1.8147 -0.2855 -0.5001
10406TIP3    H252634   5.610   2.349   3.901  3.4776 -0.7764 -0.9132
10407TIP3   OH252635   5.706   5.895  12.272 -0.0132 -0.4045  0.2606
10407TIP3    H152636   5.628   5.945  12.249  0.3585  1.0490  1.9440
10407TIP3    H252637   5.721   5.915  12.365  0.5795 -3.1100  0.8314
10408TIP3   OH252638   1.620   5.351   4.324  0.3500 -0.1988  1.1286
10408TIP3    H152639   1.705   5.395   4.328  0.1401  0.3400 -0.0583
10408TIP3    H252640   1.574   5.394   4.252 -0.9430 -0.4656  1.7727
10409TIP3   OH252641   5.537   6.432   0.210  0.8263  0.1683  0.7868
10409TIP3    H152642   5.521   6.363   0.275 -0.8914 -1.6423 -1.3663
10409TIP3    H252643   5.620   6.408   0.170 -1.2452 -2.9223 -2.2663
10410TIP3   OH252644   6.713   4.384  14.356  0.1478 -0.4596 -0.3248
10410TIP3    H152645   6.805   4.411  14.362 -0.0212 -0.0473  0.6627
10410TIP3    H252646   6.708   4.302  14.405 -0.0447 -0.3650 -0.1809
10411TIP3   OH252647   4.558   3.827  13.886 -0.3365  0.0134  0.2897
10411TIP3    H152648   4.507   3.786  13.956 -0.6496 -1.3547 -0.7066
10411TIP3    H252649   4.569   3.758  13.821  1.2560  0.8105 -0.3405
10412TIP3   OH252650   2.191   2.504  13.140  0.2703  0.3137 -0.4251
10412TIP3    H152651   2.238   2.558  13.076  1.1080 -0.0801 -0.1663
10412TIP3    H252652   2.126   2.457  13.089  1.3376 -0.4677 -1.1195
10413TIP3   OH252653   5.395   5.004  12.613 -0.1200 -0.1545  0.6253
10413TIP3    H152654   5.435   4.967  12.692  0.6675 -0.0999  0.2581
10413TIP3    H252655   5.462   5.063  12.578  0.1843 -1.3916 -0.9726
10414TIP3   OH252656   5.847   3.152   1.742  0.0698 -0.3950 -0.0278
10414TIP3    H152657   5.804   3.183   1.821  1.1845 -0.3602  0.5811
10414TIP3    H252658   5.821   3.060   1.734 -1.5680  0.0851 -0.6935
10415TIP3   OH252659   0.683   4.398   3.379 -0.0891  0.7378 -0.1889
10415TIP3    H152660   0.718   4.476   3.423  0.1605  1.1107 -1.0245
10415TIP3    H252661   0.588   4.405   3.388 -0.0311  0.6488  0.5475
10416TIP3   OH252662   1.410   1.536   6.112 -0.3983  0.5104 -0.0984
10416TIP3    H152663   1.355   1.542   6.033 -0.2918 -0.7381 -0.2873
10416TIP3    H252664   1.405   1.444   6.137 -0.6363  0.9324  1.5160
10417TIP3   OH252665   5.789   0.489  17.040  0.5522 -0.0746 -0.4734
10417TIP3    H152666   5.787   0.530  17.126  0.0850  1.2247 -1.0917
10417TIP3    H252667   5.783   0.561  16.978  0.2472 -1.0358 -1.6035
10418TIP3   OH252668   6.630   4.274  12.408 -0.4577  0.0496  0.1651
10418TIP3    H152669   6.612   4.182  12.424 -1.4314  0.2252  0.1323
10418TIP3    H252670   6.575   4.321  12.471  0.7651  0.6027  0.8770
10419TIP3   OH252671   0.506   3.032   2.786 -0.8754 -0.2606  0.1935
10419TIP3    H152672   0.547   3.086   2.854 -1.7006  0.2560  0.3033
10419TIP3    H252673   0.576   3.013   2.724 -0.6496  1.3777 -0.1161
10420TIP3   OH252674   3.470   5.386   4.538  0.1171 -0.4249 -0.1070
10420TIP3    H152675   3.559   5.391   4.571  0.6259  0.4291 -1.5011
10420TIP3    H252676   3.462   5.461   4.480 -1.7665 -0.0726  0.5468
10421TIP3   OH252677   2.923   0.924   4.272 -0.3873 -0.4456  0.4941
10421TIP3    H152678   2.867   0.851   4.244  0.6931 -0.4749 -1.7767
10421TIP3    H252679   3.011   0.897   4.248  0.0021  1.7350 -0.7684
10422TIP3   OH252680   1.393   5.135   2.372  0.0783  0.1707  0.2957
10422TIP3    H152681   1.431   5.084   2.443  1.7084  2.9019  1.5235
10422TIP3    H252682   1.467   5.159   2.316 -0.3575  2.3224  0.5554
10423TIP3   OH252683   2.224   5.434  10.983 -0.2022 -0.1656  0.2533
10423TIP3    H152684   2.167   5.414  11.057 -1.7939  1.9098 -0.3194
10423TIP3    H252685   2.312   5.433  11.020 -0.9796  1.4916  2.4042
10424TIP3   OH252686   1.126   0.556  14.877  0.7905  0.1761  0.9751
10424TIP3    H152687   1.094   0.517  14.958 -1.9137 -1.0852 -0.5638
10424TIP3    H252688   1.120   0.485  14.813 -1.1014  2.1609 -1.2236
10425TIP3   OH252689   1.492   6.285   3.924 -0.3731 -0.1442 -0.2882
10425TIP3    H152690   1.402   6.315   3.934 -0.5260 -0.9743  1.0701
10425TIP3    H252691   1.545   6.361   3.948 -0.7414 -0.2466  0.9233
10426TIP3   OH252692   2.869   4.460  13.289 -0.0529  0.0629  0.3959
10426TIP3    H152693   2.851   4.484  13.198  1.9579 -0.2796 -0.1459
10426TIP3    H252694   2.885   4.366  13.286 -2.3184 -0.4166  1.5507
10427TIP3   OH252695   5.550   2.858  15.247 -0.2268 -0.0526 -0.8900
10427TIP3    H152696   5.584   2.936  15.293 -0.9803 -0.5453  0.5629
10427TIP3    H252697   5.463   2.845  15.283  0.2655 -2.1856 -0.3295
10428TIP3   OH252698   3.834   0.388   2.774 -0.7017 -0.2511  0.1297
10428TIP3    H152699   3.911   0.415   2.823  0.0853 -0.1525 -1.1058
10428TIP3    H252700   3.805   0.308   2.817  0.8723 -1.0102 -0.1251
10429TIP3   OH252701   0.165   5.414   5.911 -0.1417 -0.2037 -0.0099
10429TIP3    H152702   0.099   5.472   5.873 -0.1174  1.3980  2.1890
10429TIP3    H252703   0.121   5.375   5.987  0.3959 -1.7831 -0.4811
10430TIP3   OH252704   0.051   4.142  10.455 -0.1936 -0.2581  0.0150
10430TIP3    H152705   0.120   4.091  10.411  0.8729  1.6088 -0.5908
10430TIP3    H252706   0.097   4.213  10.499 -1.7832  2.1934 -1.9807
10431TIP3   OH252707   5.960   0.618  13.281 -0.6899 -0.2729 -0.0603
10431TIP3    H152708   5.930   0.601  13.192 -0.9068  0.7392 -0.1891
10431TIP3    H252709   6.015   0.696  13.273 -0.5149 -0.3198  0.6545
10432TIP3   OH252710   2.109   6.144   2.760  0.0177 -0.2585  0.4096
10432TIP3    H152711   2.021   6.160   2.725  0.4023  0.5623 -0.2150
10432TIP3    H252712   2.095   6.119   2.851 -0.8996 -0.7185  0.1489
10433TIP3   OH252713   5.403   6.516  11.294 -0.0137 -0.6114 -0.4400
10433TIP3    H152714   5.383   6.422  11.299  0.4735 -0.7820 -1.4506
10433TIP3    H252715   5.318   6.559  11.286 -0.2417 -0.9600  0.0406
10434TIP3   OH252716   5.071   2.700   5.681  0.2582 -0.7167 -0.4750
10434TIP3    H152717   5.052   2.680   5.590 -1.1010  0.5619 -0.5103
10434TIP3    H252718   5.150   2.755   5.678 -0.6126  0.5524 -1.0371
10435TIP3   OH252719   1.910   2.830  16.062 -0.5196  0.0192 -0.2909
10435TIP3    H152720   1.938   2.792  16.145 -0.6111  0.0528 -0.2439
10435TIP3    H252721   1.885   2.920  16.084 -4.7982 -1.1375  0.5193
10436TIP3   OH252722   1.070   6.230  14.390 -0.3904  0.0534  0.2026
10436TIP3    H152723   1.134   6.219  14.460  0.3446  2.0243 -0.1039
10436TIP3    H252724   1.006   6.292  14.425  0.5486  1.9009 -1.1479
10437TIP3   OH252725   5.495   1.456  12.369 -0.3670  0.6769 -0.3830
10437TIP3    H152726   5.402   1.475  12.386 -1.0516 -1.6757 -1.0901
10437TIP3    H252727   5.504   1.463  12.274 -0.6359 -1.9486 -0.6866
10438TIP3   OH252728   1.301   3.604  11.685  0.3413 -0.0077 -0.0774
10438TIP3    H152729   1.253   3.526  11.657 -0.3444  0.1251  0.6776
10438TIP3    H252730   1.280   3.612  11.778 -1.3385  2.2528 -0.5576
10439TIP3   OH252731   3.491   5.122   1.428 -0.1937 -0.4628 -0.4768
10439TIP3    H152732   3.528   5.116   1.340  0.7444 -1.9573 -0.0142
10439TIP3    H252733   3.399   5.097   1.418 -0.4181  0.5889 -1.2057
10440TIP3   OH252734   5.374   0.381  10.582  0.3875  0.1852 -0.4307
10440TIP3    H152735   5.405   0.468  10.607 -1.8161  0.9597 -0.2545
10440TIP3    H252736   5.346   0.340  10.664 -1.9558  0.7387 -0.8843
10441TIP3   OH252737   5.362   5.332  17.188  0.4552 -0.2526 -0.1534
10441TIP3    H152738   5.287   5.309  17.133  0.5294 -0.9690  0.0378
10441TIP3    H252739   5.372   5.257  17.247  1.2384 -0.1060 -0.0916
10442TIP3   OH252740   2.742   1.182  13.171  0.6747  0.2603 -0.0100
10442TIP3    H152741   2.698   1.146  13.248 -2.8439  1.3553 -1.3266
10442TIP3    H252742   2.802   1.248  13.207 -0.3160  0.2209  1.8491
10443TIP3   OH252743   5.890   4.829  14.675 -0.0276  0.1560 -0.7656
10443TIP3    H152744   5.858   4.905  14.626  0.5740 -0.7667 -2.6656
10443TIP3    H252745   5.880   4.755  14.616 -1.2064 -1.4170  1.2886
10444TIP3   OH252746   2.531   0.939   6.106 -0.4712 -0.4006  0.2121
10444TIP3    H152747   2.439   0.933   6.129 -0.7530 -1.1533 -1.0106
10444TIP3    H252748   2.557   0.849   6.087  0.5203 -0.1945  0.5447
10445TIP3   OH252749   4.481   2.358  16.595  0.0080 -0.0929 -0.3730
10445TIP3    H152750   4.576   2.346  16.591  0.1727  1.4260 -2.5337
10445TIP3    H252751   4.468   2.429  16.658  0.1358 -1.2323  1.0012
10446TIP3   OH252752   0.477   6.344  13.949 -0.1543  0.2054 -0.5444
10446TIP3    H152753   0.460   6.254  13.919  0.5811  0.2061 -0.9863
10446TIP3    H252754   0.493   6.335  14.042 -1.2218  0.0385 -0.3564
10447TIP3   OH252755   4.045   0.001  13.352 -0.0747  1.0401  0.2595
10447TIP3    H152756   4.033  -0.072  13.413  1.7437 -0.5890 -1.1978
10447TIP3    H252757   4.139   0.018  13.353 -0.3621  2.7896 -0.0998
10448TIP3   OH252758   5.289   0.738  14.817  0.0146 -0.7742 -0.3683
10448TIP3    H152759   5.354   0.725  14.887 -0.8755 -0.7061  0.4850
10448TIP3    H252760   5.254   0.826  14.833 -1.2431 -1.3282 -0.0083
10449TIP3   OH252761   4.950   6.452   3.154  0.8828 -0.3002  0.0742
10449TIP3    H152762   4.883   6.387   3.132  0.4993 -0.5363  1.7775
10449TIP3    H252763   4.917   6.493   3.235  1.3931  1.6195 -0.6272
10450TIP3   OH252764   5.109   2.851  16.014 -1.1594 -0.3119 -0.6503
10450TIP3    H152765   5.185   2.882  16.064 -1.3562 -0.2012 -0.4200
10450TIP3    H252766   5.146   2.787  15.953 -0.6291  0.8788 -1.6296
10451TIP3   OH252767   3.202   4.353  11.864  0.2493 -0.7950  0.6434
10451TIP3    H152768   3.252   4.410  11.806 -0.2736 -0.5508  0.4306
10451TIP3    H252769   3.197   4.269  11.817  2.1547 -1.4496  1.5322
10452TIP3   OH252770   5.830   4.045  11.285  0.1492 -0.3466 -0.2172
10452TIP3    H152771   5.759   4.035  11.222 -0.6118 -0.0414  0.5686
10452TIP3    H252772   5.864   4.133  11.270  0.4987 -0.5692 -0.7321
10453TIP3   OH252773   5.219   3.035   2.860  0.0431  0.3986 -0.5017
10453TIP3    H152774   5.157   3.092   2.905  0.9204  0.7413  0.3016
10453TIP3    H252775   5.214   3.060   2.768 -0.8795  0.5294 -0.4245
10454TIP3   OH252776   2.489   2.094  13.318  0.2770  0.4781 -0.0291
10454TIP3    H152777   2.427   2.122  13.386  1.4388 -0.1080  1.3276
10454TIP3    H252778   2.491   1.999  13.324  1.4263  0.4923  0.0802
10455TIP3   OH252779   1.937   0.034  11.191  0.0915  0.1281  0.5818
10455TIP3    H152780   1.969   0.057  11.104  0.0843 -0.7372  0.3426
10455TIP3    H252781   2.015   0.005  11.238 -0.1120 -0.6692  0.4367
10456TIP3   OH252782   2.172   3.982  16.878 -0.3014 -0.3627  0.0133
10456TIP3    H152783   2.242   4.027  16.831 -0.0268 -2.6877 -2.0156
10456TIP3    H252784   2.092   4.025  16.850  0.0560 -0.1810 -0.7565
10457TIP3   OH252785   0.811   6.215  15.111  0.8177  0.2272  0.1223
10457TIP3    H152786   0.898   6.179  15.090  2.5395  4.2910 -0.7440
10457TIP3    H252787   0.804   6.205  15.206  0.4911 -3.3095 -0.1238
10458TIP3   OH252788   4.461   1.757  12.937  0.0363  0.5549 -0.0960
10458TIP3    H152789   4.433   1.724  12.852 -2.2935 -0.9754  1.1650
10458TIP3    H252790   4.436   1.850  12.937 -2.5573 -0.0813 -0.1261
10459TIP3   OH252791   1.110   5.164  12.563  0.6012 -0.9240 -0.3752
10459TIP3    H152792   1.053   5.187  12.489  0.2171 -1.8872 -0.3923
10459TIP3    H252793   1.188   5.126  12.523 -0.4540 -3.3247 -0.2703
10460TIP3   OH252794   6.468   4.776  15.047 -0.1163 -0.0748 -0.4226
10460TIP3    H152795   6.518   4.804  14.971 -0.9525  0.5269 -0.7745
10460TIP3    H252796   6.455   4.682  15.034  3.7220 -1.0314  1.3585
10461TIP3   OH252797   5.277   4.913   4.462  0.2169  0.0635 -0.0646
10461TIP3    H152798   5.185   4.939   4.451  0.0536 -0.9715 -1.5410
10461TIP3    H252799   5.326   4.995   4.463 -0.7741  0.6777  1.5783
10462TIP3   OH252800   3.178   2.246  11.602  0.5224  0.1456 -0.3341
10462TIP3    H152801   3.125   2.309  11.555 -0.3525 -0.4807 -0.2168
10462TIP3    H252802   3.115   2.188  11.645  1.2720  0.5810  1.4650
10463TIP3   OH252803   3.811   6.302  14.772 -0.1590  0.1094 -0.3732
10463TIP3    H152804   3.878   6.370  14.771  0.9192 -0.8889 -2.4608
10463TIP3    H252805   3.800   6.281  14.865  3.2333 -0.4122  0.0269
10464TIP3   OH252806   2.986   3.981   1.236 -0.2949  0.0163  0.0601
10464TIP3    H152807   2.961   3.896   1.199 -0.5542  1.0131 -2.2647
10464TIP3    H252808   2.944   3.984   1.322  0.9398 -2.7665  0.8491
10465TIP3   OH252809   2.877   0.590   2.551  0.1546  0.2442  0.9218
10465TIP3    H152810   2.902   0.660   2.612  1.0989  0.2543  0.5360
10465TIP3    H252811   2.782   0.585   2.558  0.2730  0.0765  2.5647
10466TIP3   OH252812   0.387   5.023  16.114 -0.6066 -1.0762  0.3120
10466TIP3    H152813   0.377   5.113  16.081  0.7565 -1.5238 -1.4518
10466TIP3    H252814   0.376   5.031  16.209 -0.1086  1.0233  0.2412
10467TIP3   OH252815   5.859   5.231   6.294 -0.7634  0.0261 -0.0077
10467TIP3    H152816   5.941   5.280   6.287 -1.8904  2.2619  1.2171
10467TIP3    H252817   5.883   5.149   6.337  0.9838  0.1130 -0.7408
10468TIP3   OH252818   2.945   0.838   4.653 -0.8540  0.3988  0.3301
10468TIP3    H152819   2.908   0.759   4.692  0.7912 -1.1264 -1.0498
10468TIP3    H252820   2.972   0.891   4.729 -2.0256 -0.3038  1.2757
10469TIP3   OH252821   6.188   0.668  16.581 -0.3758 -0.2584 -0.0717
10469TIP3    H152822   6.176   0.690  16.489  0.6048  2.3163  0.3278
10469TIP3    H252823   6.111   0.704  16.625  0.7363  1.5969  0.4706
10470TIP3   OH252824   4.191   5.686   5.907 -0.3150 -0.3365  0.2106
10470TIP3    H152825   4.097   5.690   5.887 -0.0046 -1.4774 -1.7962
10470TIP3    H252826   4.198   5.715   5.998 -2.2047  3.1787 -0.5791
10471TIP3   OH252827   6.559   0.582   1.302  0.2274 -0.4870  0.2135
10471TIP3    H152828   6.625   0.548   1.241 -0.6677 -1.3637 -0.2895
10471TIP3    H252829   6.554   0.515   1.371 -0.2420 -0.4927  0.1749
10472TIP3   OH252830   4.724   4.258   4.176 -0.4675 -0.1209 -0.2861
10472TIP3    H152831   4.744   4.166   4.194  0.7108  0.3430  0.9384
10472TIP3    H252832   4.650   4.255   4.116  0.2452 -1.8806 -1.1437
10473TIP3   OH252833   4.644   3.328   3.961  0.1271 -0.5279 -0.0470
10473TIP3    H152834   4.602   3.410   3.935 -1.0750 -1.1339 -0.0824
10473TIP3    H252835   4.666   3.285   3.879  1.2072 -0.0479 -0.0335
10474TIP3   OH252836   4.440   3.453   0.754 -0.0156 -0.6132  0.5058
10474TIP3    H152837   4.359   3.412   0.724  0.9748 -1.9320 -0.4365
10474TIP3    H252838   4.410   3.530   0.804 -1.9660 -2.5487  2.5561
10475TIP3   OH252839   5.228   6.113   4.268 -0.4377 -0.0743  0.0937
10475TIP3    H152840   5.144   6.092   4.309 -0.9087  0.4332 -0.5795
10475TIP3    H252841   5.219   6.083   4.178 -0.3743  1.0801 -0.3241
10476TIP3   OH252842   0.086   5.338   1.430  0.1884  0.1746 -0.4407
10476TIP3    H152843   0.073   5.252   1.390  0.5935  0.8845 -2.1563
10476TIP3    H252844   0.070   5.323   1.523 -2.0015 -1.2693 -0.9747
10477TIP3   OH252845   3.929   5.394  15.753 -0.3485  0.0872 -0.0266
10477TIP3    H152846   3.946   5.304  15.780 -2.0022  0.0706  1.0943
10477TIP3    H252847   3.892   5.386  15.665  0.4668 -0.2256 -0.3538
10478TIP3   OH252848   4.565   1.501   2.060 -0.3827  0.2287 -0.5184
10478TIP3    H152849   4.472   1.479   2.054 -0.7193  1.5624 -0.5314
10478TIP3    H252850   4.588   1.482   2.151 -1.0274  1.1363 -0.1481
10479TIP3   OH252851   4.079   6.709   4.928  1.1186  0.4958  0.5096
10479TIP3    H152852   4.124   6.659   4.996 -0.4519 -1.1155  0.4176
10479TIP3    H252853   3.986   6.703   4.950  0.1326 -2.7547 -3.2839
10480TIP3   OH252854   1.380   1.746   4.114  0.4937  0.1701 -0.7290
10480TIP3    H152855   1.311   1.762   4.178  1.8902  0.0640  0.8505
10480TIP3    H252856   1.403   1.833   4.081  0.0557  0.2597 -0.8055
10481TIP3   OH252857   0.565   4.484  11.794  0.4567 -0.9011 -0.1726
10481TIP3    H152858   0.627   4.483  11.721 -0.4981  1.1816 -1.0834
10481TIP3    H252859   0.500   4.417  11.771 -0.3813  0.4123 -1.7837
10482TIP3   OH252860   5.628   0.276   1.386 -0.2594 -0.3173 -0.3698
10482TIP3    H152861   5.695   0.340   1.366 -1.4648  0.7428 -1.1927
10482TIP3    H252862   5.564   0.284   1.315 -2.0518 -0.1608  1.1680
10483TIP3   OH252863   5.604   3.194  12.529 -0.5526  0.7701 -0.1018
10483TIP3    H152864   5.617   3.117  12.584  0.4479  0.1116 -1.2021
10483TIP3    H252865   5.520   3.179  12.485 -0.6005  0.5405  0.0690
10484TIP3   OH252866   4.419   1.214  15.410  0.1154  0.5556 -0.3637
10484TIP3    H152867   4.498   1.265  15.397  0.5250  0.3509  1.0831
10484TIP3    H252868   4.439   1.127  15.375  1.1340  0.0435  1.3650
10485TIP3   OH252869   2.501   2.276  12.726  0.1890  0.4649  0.1570
10485TIP3    H152870   2.562   2.214  12.766  0.5683  0.6577 -0.1109
10485TIP3    H252871   2.419   2.263  12.773  0.4798  0.3146  0.6305
10486TIP3   OH252872   6.363   5.480  13.278  0.1896  0.2983 -0.0867
10486TIP3    H152873   6.403   5.531  13.348  2.1941 -0.2854 -0.7539
10486TIP3    H252874   6.298   5.539  13.239 -1.5403  0.3723  2.6907
10487TIP3   OH252875   4.379   0.006  10.672  0.3898 -0.3411 -0.3090
10487TIP3    H152876   4.474   0.000  10.657  0.4466 -2.9787  0.5652
10487TIP3    H252877   4.341  -0.037  10.595  0.0398 -1.2042  0.3279
10488TIP3   OH252878   1.500   6.141  10.312  0.4133  0.0010 -0.1099
10488TIP3    H152879   1.582   6.171  10.273  1.6528  0.2200  2.4441
10488TIP3    H252880   1.484   6.056  10.272  0.5507  0.9846 -2.4013
10489TIP3   OH252881   0.633   1.044   6.041 -0.3226 -0.0900  0.7102
10489TIP3    H152882   0.601   0.960   6.072  1.7977 -0.7218  1.3470
10489TIP3    H252883   0.699   1.070   6.105  0.2211  1.2642 -0.3468
10490TIP3   OH252884   0.568   1.556   4.879 -0.3694  0.1517 -0.0912
10490TIP3    H152885   0.509   1.631   4.871 -1.3904 -0.6519 -0.3310
10490TIP3    H252886   0.522   1.485   4.834  1.1604 -0.2904 -1.0293
10491TIP3   OH252887   6.186   2.771   2.568  0.4087  0.9281  0.1372
10491TIP3    H152888   6.245   2.729   2.631 -0.4499  1.8741  1.6067
10491TIP3    H252889   6.231   2.852   2.544  0.8269  0.4769 -0.6554
10492TIP3   OH252890   5.385   5.306  11.374  0.3279 -0.4448 -0.2365
10492TIP3    H152891   5.461   5.302  11.316 -0.1035  0.3467 -0.8852
10492TIP3    H252892   5.417   5.272  11.458  1.3322 -0.3391 -0.5562
10493TIP3   OH252893   4.816   0.523   0.568  0.3771 -0.5921 -0.2058
10493TIP3    H152894   4.761   0.590   0.609  1.6276  0.3614 -0.0223
10493TIP3    H252895   4.853   0.474   0.641  0.1943 -0.8923 -0.3113
10494TIP3   OH252896   4.529   2.516  13.391 -0.0788 -0.3317 -0.2705
10494TIP3    H152897   4.487   2.549  13.470  1.2390  1.5939 -0.3170
10494TIP3    H252898   4.604   2.466  13.423 -0.4243 -0.8869 -0.2964
10495TIP3   OH252899   6.436   2.047   3.158  0.0507  0.0953 -0.0477
10495TIP3    H152900   6.490   2.104   3.214 -0.8601 -1.0051  2.0556
10495TIP3    H252901   6.382   2.108   3.107  1.4771  1.1557 -0.3525
10496TIP3   OH252902   3.995   5.421  11.818 -0.8202 -0.4196  0.4784
10496TIP3    H152903   4.074   5.367  11.831 -0.1737  0.2842 -0.3807
10496TIP3    H252904   3.973   5.453  11.906  1.0188  0.9388  0.5037
10497TIP3   OH252905   0.552   5.851  13.445  0.3831 -0.2792  0.4777
10497TIP3    H152906   0.543   5.925  13.386  1.4863  0.1081  0.7678
10497TIP3    H252907   0.520   5.776  13.395 -3.9955  0.7746  1.2950
10498TIP3   OH252908   2.923   1.186  14.149  0.1287 -0.0597 -0.0627
10498TIP3    H152909   3.014   1.176  14.177  0.3206 -0.2217 -0.7212
10498TIP3    H252910   2.883   1.242  14.216  1.1105  1.3019 -0.5698
10499TIP3   OH252911   5.096   6.291   4.048 -0.7216  0.1880 -0.2851
10499TIP3    H152912   5.070   6.208   4.007 -0.5499 -0.1711  0.3143
10499TIP3    H252913   5.148   6.265   4.123  0.5166  0.8769 -0.8727
10500TIP3   OH252914   5.398   2.417   1.921  0.1634  0.2884  0.0643
10500TIP3    H152915   5.376   2.383   1.834  1.6666 -0.2774 -0.1208
10500TIP3    H252916   5.372   2.509   1.917 -0.1631  0.1726 -0.8460
10501TIP3   OH252917   5.455   5.119  14.228 -0.4172 -0.4535 -0.4737
10501TIP3    H152918   5.442   5.033  14.267  0.1536 -0.6738 -0.7500
10501TIP3    H252919   5.509   5.103  14.151  0.9680  0.3058  0.2879
10502TIP3   OH252920   2.828   2.917   4.052  0.3187 -0.1715 -0.4388
10502TIP3    H152921   2.891   2.887   4.117 -0.4534 -0.3566  0.2444
10502TIP3    H252922   2.881   2.939   3.975  1.7879  3.8022  1.4287
10503TIP3   OH252923   2.666   4.000   5.249  0.6401 -0.5092  0.0535
10503TIP3    H152924   2.629   3.966   5.330  1.0635 -0.9201  0.0790
10503TIP3    H252925   2.711   3.925   5.210 -0.3433 -0.5597 -1.0286
10504TIP3   OH252926   5.607   6.002  16.143  0.0422  0.1185 -0.4677
10504TIP3    H152927   5.616   5.923  16.197  2.1299  0.6740  0.0868
10504TIP3    H252928   5.545   6.057  16.191 -0.8131 -0.8387 -0.4538
10505TIP3   OH252929   5.182   2.976   4.330 -0.2805 -0.0824 -0.3022
10505TIP3    H152930   5.196   2.891   4.372  0.2480  0.1995  0.1077
10505TIP3    H252931   5.099   2.966   4.283 -0.0412 -0.9419 -0.5627
10506TIP3   OH252932   6.067   4.801   4.937  0.1765 -0.2310 -0.5196
10506TIP3    H152933   5.978   4.803   4.902 -0.2924  1.7574  0.6817
10506TIP3    H252934   6.079   4.710   4.965 -0.9236 -0.8693 -1.9862
10507TIP3   OH252935   4.766   5.904   0.325 -0.1018 -0.1216  0.1164
10507TIP3    H152936   4.766   5.997   0.347  1.3340  0.9018 -3.5099
10507TIP3    H252937   4.675   5.885   0.301 -0.2737  0.5344  0.2346
10508TIP3   OH252938   6.608   1.787  14.413 -0.2765 -0.4682  0.1964
10508TIP3    H152939   6.687   1.796  14.467 -0.8262 -0.5544  1.0331
10508TIP3    H252940   6.536   1.787  14.476 -1.0025  0.4008 -0.6191
10509TIP3   OH252941   6.402   2.232  15.950  0.4843  0.0576 -0.0142
10509TIP3    H152942   6.359   2.293  15.889 -0.3548 -0.3888  0.1226
10509TIP3    H252943   6.332   2.204  16.009  0.9565 -0.7117  0.1899
10510TIP3   OH252944   4.849   1.344   5.291 -0.3798 -0.3045 -0.2926
10510TIP3    H152945   4.782   1.346   5.222 -0.9642 -0.8784  0.2424
10510TIP3    H252946   4.850   1.252   5.319 -0.4748  0.0172  0.7800
10511TIP3   OH252947   0.106   2.890   0.339 -0.3672 -0.0285  0.1891
10511TIP3    H152948   0.186   2.871   0.291 -0.4572  0.0088  0.0222
10511TIP3    H252949   0.048   2.931   0.275  0.7966  3.4061  1.1136
10512TIP3   OH252950   3.003   1.237   2.252  0.0959  0.5249  0.2921
10512TIP3    H152951   3.082   1.290   2.253  0.4824  0.0105 -0.7606
10512TIP3    H252952   2.935   1.294   2.287  1.0860  0.6881  2.0463
10513TIP3   OH252953   5.157   4.901   0.591  0.4444 -0.1163  0.3034
10513TIP3    H152954   5.136   4.827   0.534  0.7354  1.6910 -2.3221
10513TIP3    H252955   5.247   4.925   0.568  0.8220  0.2831  2.0368
10514TIP3   OH252956   0.246   2.590   0.920 -0.7405  0.1378 -0.0329
10514TIP3    H152957   0.217   2.625   0.836 -1.6132  0.7243  0.5100
10514TIP3    H252958   0.258   2.496   0.903 -1.1127  0.2132 -0.7531
10515TIP3   OH252959   3.539   6.758  16.403  0.3312  0.3698  0.3087
10515TIP3    H152960   3.528   6.663  16.409 -0.8860  0.3926 -0.8831
10515TIP3    H252961   3.472   6.794  16.461 -0.7945  0.4783 -1.0001
10516TIP3   OH252962   1.023   3.307  13.327 -0.2850  0.4617  0.3347
10516TIP3    H152963   1.029   3.247  13.401 -0.5168  0.8690  0.6894
10516TIP3    H252964   0.958   3.266  13.269  0.7518 -0.4473 -0.2112
10517TIP3   OH252965   4.608   3.593   1.720 -0.2815 -0.0101  0.2199
10517TIP3    H152966   4.687   3.581   1.773 -1.3737  0.2189  1.9721
10517TIP3    H252967   4.602   3.688   1.707  0.7740 -0.1572 -1.6355
10518TIP3   OH252968   1.096   3.432  17.149  0.3930 -0.4369 -0.0250
10518TIP3    H152969   1.148   3.369  17.099 -0.8542 -1.4079 -0.1406
10518TIP3    H252970   1.098   3.512  17.096  2.9647  0.0872  0.6736
10519TIP3   OH252971   4.937   5.320   3.652 -0.3553  0.2876 -0.2727
10519TIP3    H152972   5.031   5.322   3.672 -0.1564  1.2152 -1.2281
10519TIP3    H252973   4.926   5.242   3.597 -0.1425  0.1786 -0.1598
10520TIP3   OH252974   1.198   4.361   1.184  0.3165  0.5519 -0.2409
10520TIP3    H152975   1.279   4.382   1.139  0.3716  1.7679  0.3647
10520TIP3    H252976   1.217   4.378   1.277 -0.6605  1.0406 -0.1067
10521TIP3   OH252977   1.330   0.404  16.250 -0.6541 -0.2813 -0.4750
10521TIP3    H152978   1.388   0.411  16.326 -2.2865  1.5244  0.7191
10521TIP3    H252979   1.331   0.311  16.228  0.0129 -0.8559  1.6581
10522TIP3   OH252980   5.882   1.084   1.134  0.0771  0.5083  0.1729
10522TIP3    H152981   5.855   1.161   1.085  2.4072  1.7522  0.6981
10522TIP3    H252982   5.871   1.011   1.073 -1.3865  1.3460 -0.6143
10523TIP3   OH252983   0.540   1.914   0.903 -0.2473  0.1772  0.2133
10523TIP3    H152984   0.545   1.820   0.889  3.1431  0.1002  0.9950
10523TIP3    H252985   0.517   1.924   0.996  0.3799  0.0549  0.3887
10524TIP3   OH252986   2.903   0.611  15.637  0.2774 -0.0352  0.5515
10524TIP3    H152987   2.842   0.593  15.565  0.5556 -0.9051  0.5241
10524TIP3    H252988   2.956   0.684  15.605  0.9980 -0.9836 -0.5345
10525TIP3   OH252989   1.663   0.313   4.636  0.1511 -0.2817 -0.2573
10525TIP3    H152990   1.627   0.395   4.603 -0.5662 -0.1126  0.8906
10525TIP3    H252991   1.643   0.249   4.569 -0.6044  0.1933 -0.4939
10526TIP3   OH252992   3.955   0.844   5.336 -0.6990  0.0433 -0.3056
10526TIP3    H152993   3.880   0.873   5.387 -1.0502 -1.8690  0.3739
10526TIP3    H252994   4.016   0.917   5.338 -1.3521  0.5846  1.5629
10527TIP3   OH252995   2.775   2.542  11.217  0.4842  1.0467  0.4703
10527TIP3    H152996   2.775   2.490  11.298 -0.7760 -1.2769 -0.9277
10527TIP3    H252997   2.868   2.562  11.202  0.9162  0.0249  1.5742
10528TIP3   OH252998   5.073   5.513   5.149 -0.8707 -0.1124  0.3562
10528TIP3    H152999   4.977   5.508   5.148 -0.8581 -0.5476 -1.3132
10528TIP3    H253000   5.093   5.598   5.109 -0.5454  0.1855  1.1227
10529TIP3   OH253001   0.761   2.920  13.732  0.2844 -0.0474 -0.6190
10529TIP3    H153002   0.775   3.007  13.770  0.5300 -0.9155  1.4336
10529TIP3    H253003   0.667   2.904  13.742  0.3185 -0.1992 -0.5301
10530TIP3   OH253004   5.461   5.668   3.709 -0.0244 -0.1700 -0.0564
10530TIP3    H153005   5.523   5.665   3.636 -1.0277  0.4480 -0.9641
10530TIP3    H253006   5.404   5.742   3.689 -2.0677 -1.6607 -0.1196
10531TIP3   OH253007   3.074   0.647   4.140 -0.0200 -0.4392  0.2305
10531TIP3    H153008   3.078   0.571   4.198  1.7962 -0.3130  0.3452
10531TIP3    H253009   3.151   0.699   4.165  0.2025  0.1407 -1.5599
10532TIP3   OH253010   1.580   4.852  14.757 -0.1971 -0.3229  0.1104
10532TIP3    H153011   1.525   4.829  14.831 -0.1001 -0.8910  0.0046
10532TIP3    H253012   1.670   4.836  14.788 -0.1473 -0.4020 -0.0756
10533TIP3   OH253013   5.239   1.052  13.405 -0.4255 -0.2830 -0.0561
10533TIP3    H153014   5.198   0.970  13.378 -0.4834 -0.8170  1.5697
10533TIP3    H253015   5.333   1.037  13.393 -0.4718 -0.3310 -0.3850
10534TIP3   OH253016   3.041   4.404  17.122 -0.2185  0.4861 -0.2252
10534TIP3    H153017   3.092   4.334  17.162 -0.4891 -0.0556 -0.8157
10534TIP3    H253018   2.969   4.419  17.183 -0.9604 -0.7390 -0.7606
10535TIP3   OH253019   4.768   3.809   4.917 -0.4312 -0.2986 -0.2777
10535TIP3    H153020   4.726   3.860   4.986  1.4382  1.2703 -0.1910
10535TIP3    H253021   4.756   3.718   4.943 -1.6414  0.1747  0.9512
10536TIP3   OH253022   5.869   1.939   6.643  0.4812 -0.3930  0.5643
10536TIP3    H153023   5.836   1.896   6.722 -0.3650  1.0553  1.0441
10536TIP3    H253024   5.804   2.007   6.624  0.5805 -0.8051 -1.4797
10537TIP3   OH253025   3.024   5.694  15.225 -0.0051  0.1788 -0.4019
10537TIP3    H153026   3.115   5.671  15.244  0.0437  1.4133  1.0683
10537TIP3    H253027   3.025   5.790  15.219 -1.1498  0.1808 -0.7613
10538TIP3   OH253028   5.448   5.612   4.940 -0.4926 -0.0736  0.0735
10538TIP3    H153029   5.471   5.687   4.886  1.1582 -1.0554 -0.6766
10538TIP3    H253030   5.491   5.629   5.024  1.2403 -0.8604 -0.6058
10539TIP3   OH253031   3.630   2.295   4.235  0.6283  0.3096 -0.3118
10539TIP3    H153032   3.561   2.229   4.223 -0.2025  1.2413 -0.8205
10539TIP3    H253033   3.639   2.336   4.149  3.4017 -1.2359 -0.8699
10540TIP3   OH253034   6.216   5.836  13.467  0.1153 -0.3033 -0.2677
10540TIP3    H153035   6.304   5.805  13.444  0.4922  0.5439  0.0077
10540TIP3    H253036   6.226   5.875  13.554 -0.0097  1.9237 -1.1942
10541TIP3   OH253037   6.220   4.520  17.070 -0.4777  0.3725  0.1582
10541TIP3    H153038   6.136   4.491  17.034 -2.1646  1.7309  2.6856
10541TIP3    H253039   6.223   4.483  17.158  0.1456  2.6989  1.2008
10542TIP3   OH253040   2.359   1.543  16.454 -0.0360 -0.0523 -0.0002
10542TIP3    H153041   2.422   1.564  16.385 -1.4136  0.5209 -1.1334
10542TIP3    H253042   2.392   1.462  16.493  0.8324 -0.3297 -1.2579
10543TIP3   OH253043   5.597   0.334  13.119 -0.0161 -0.5777 -0.4512
10543TIP3    H153044   5.664   0.394  13.086  0.5547  0.8783  2.9577
10543TIP3    H253045   5.515   0.383  13.111 -0.1907 -1.0307 -1.5205
10544TIP3   OH253046   2.128   4.337   3.890 -0.0510  0.2776 -0.1675
10544TIP3    H153047   2.085   4.388   3.821  0.1857  2.1788  1.0344
10544TIP3    H253048   2.169   4.264   3.843 -2.3612 -0.1748 -1.6563
10545TIP3   OH253049   6.769   2.820  13.972  0.3595  0.3542  0.2396
10545TIP3    H153050   6.801   2.758  14.038  1.4258  0.7686  0.1277
10545TIP3    H253051   6.846   2.872  13.949 -0.0281  0.2997 -1.2490
10546TIP3   OH253052   5.117   3.788   2.894  0.0991 -0.1328 -0.2465
10546TIP3    H153053   5.106   3.824   2.982  1.1351 -0.3898  0.0059
10546TIP3    H253054   5.208   3.758   2.892 -0.2213 -1.0924 -1.0502
10547TIP3   OH253055   3.533   4.774   1.226  0.1045  0.0232  0.2758
10547TIP3    H153056   3.494   4.706   1.281  0.8537  0.2693  1.1277
10547TIP3    H253057   3.623   4.746   1.212 -0.1129 -0.0974 -0.9476
10548TIP3   OH253058   1.038   2.750   2.993 -0.1628  0.1712  0.3761
10548TIP3    H153059   1.072   2.704   3.070 -0.3467  1.0904  1.0313
10548TIP3    H253060   0.944   2.729   2.992  0.0132 -0.6213 -0.1716
10549TIP3   OH253061   5.272   2.144  11.785 -0.3589  0.4883 -0.6774
10549TIP3    H153062   5.344   2.176  11.839 -0.3408 -0.9246  0.1874
10549TIP3    H253063   5.213   2.220  11.777  2.2706  2.4521 -3.4490
10550TIP3   OH253064   2.924   2.650  15.966 -0.1698  0.2873  0.3917
10550TIP3    H153065   2.939   2.610  15.879 -2.2232 -0.8091  0.4811
10550TIP3    H253066   2.919   2.744  15.948 -2.0646 -0.0053 -0.9848
10551TIP3   OH253067   3.626   5.581  10.909  0.3547 -0.3620  0.3126
10551TIP3    H153068   3.570   5.646  10.867 -0.8995 -2.3550 -1.3232
10551TIP3    H253069   3.693   5.561  10.843  0.0417 -1.5264  0.3307
10552TIP3   OH253070   1.209   6.309   3.916 -0.4729 -0.1544  0.3253
10552TIP3    H153071   1.188   6.363   3.839  1.5681  1.2001  0.6084
10552TIP3    H253072   1.164   6.353   3.988 -2.3409 -1.3914 -0.0272
10553TIP3   OH253073   3.674   5.378   3.198  0.0496  0.3150  0.0534
10553TIP3    H153074   3.580   5.397   3.204 -0.1340 -0.2496 -0.8437
10553TIP3    H253075   3.687   5.305   3.258 -0.4983 -0.9475 -1.2914
10554TIP3   OH253076   3.507   2.908  14.055  0.2054 -0.1019  0.0967
10554TIP3    H153077   3.434   2.847  14.043  0.6283 -0.6701  0.3564
10554TIP3    H253078   3.582   2.852  14.074  0.7406  0.4659 -0.2877
10555TIP3   OH253079   2.314   0.949   5.514  0.6011  0.1059 -0.1416
10555TIP3    H153080   2.354   0.968   5.599 -1.2222  1.0009  0.5641
10555TIP3    H253081   2.300   0.855   5.515  2.9565 -0.3091 -0.5741
10556TIP3   OH253082   4.952   6.647  15.370 -0.0659  0.1133  0.6104
10556TIP3    H153083   4.922   6.725  15.322  0.7225 -0.0357 -0.1670
10556TIP3    H253084   4.937   6.575  15.309 -1.4958 -0.4759  1.6121
10557TIP3   OH253085   3.132   2.599  17.113  0.3170 -0.4033  0.1397
10557TIP3    H153086   3.171   2.561  17.035 -0.2137  1.5819 -1.1647
10557TIP3    H253087   3.148   2.693  17.105 -0.4923 -0.0580  2.0035
10558TIP3   OH253088   1.582   1.465  11.728  0.6550  0.1002  0.3048
10558TIP3    H153089   1.672   1.493  11.743  0.7115  0.9417 -1.4191
10558TIP3    H253090   1.557   1.507  11.647 -0.6553 -1.6581 -0.2611
10559TIP3   OH253091   4.107   2.115  12.061  0.1028  0.4427 -0.3657
10559TIP3    H153092   4.058   2.138  11.982 -1.5197  0.7693  0.6967
10559TIP3    H253093   4.137   2.199  12.095  1.1056  0.2744 -0.7955
10560TIP3   OH253094   0.642   0.470   2.799 -0.2646  0.5342 -0.4158
10560TIP3    H153095   0.703   0.461   2.726 -2.1192 -0.5130 -1.9551
10560TIP3    H253096   0.583   0.540   2.771 -0.9380  0.1823  0.1089
10561TIP3   OH253097   2.455   0.992  13.881  0.1697 -0.0581  0.5008
10561TIP3    H153098   2.427   0.934  13.810  0.1137  0.7781 -0.1721
10561TIP3    H253099   2.550   0.988  13.881  0.1599 -0.2666  0.5516
10562TIP3   OH253100   6.076   4.959  14.269 -0.4398  0.7722 -0.1394
10562TIP3    H153101   6.071   5.023  14.341  0.8933  0.3212  0.3762
10562TIP3    H253102   6.121   4.883  14.307 -0.3094  0.2641 -1.2688
10563TIP3   OH253103   1.791   0.194  13.380 -0.3321 -0.0963 -0.1306
10563TIP3    H153104   1.774   0.223  13.470 -2.9606  0.9224 -0.8591
10563TIP3    H253105   1.783   0.098  13.384 -0.9663 -0.0200  0.6181
10564TIP3   OH253106   6.485   4.889  11.327 -0.3950 -0.1018 -0.6613
10564TIP3    H153107   6.458   4.959  11.268  0.2608  0.4297 -0.3520
10564TIP3    H253108   6.557   4.846  11.282 -1.2937 -1.0807 -1.1869
10565TIP3   OH253109   0.225   5.205  16.538 -0.0628 -0.5828 -0.2035
10565TIP3    H153110   0.139   5.192  16.499 -0.2587  2.2854 -0.9493
10565TIP3    H253111   0.219   5.164  16.624 -2.0315 -0.7839 -0.4001
10566TIP3   OH253112   2.214   0.848   1.346  0.6513  0.3549  0.1120
10566TIP3    H153113   2.293   0.800   1.374  1.7504  1.9271 -0.1592
10566TIP3    H253114   2.151   0.780   1.323  1.9913 -0.9530  0.1821
10567TIP3   OH253115   0.961   0.137  12.156 -0.6746 -0.4622 -0.1837
10567TIP3    H153116   0.898   0.185  12.103 -1.6908 -0.9195  0.5804
10567TIP3    H253117   0.999   0.203  12.214  0.1469 -0.0385 -1.1772
10568TIP3   OH253118   0.529   3.271   0.468 -0.4884  0.1009 -0.2746
10568TIP3    H153119   0.490   3.184   0.459 -2.3636  0.9147 -0.4206
10568TIP3    H253120   0.462   3.323   0.511  0.7188  1.4233  0.0953
10569TIP3   OH253121   4.496   3.677  13.659  0.1416  0.1960 -0.1937
10569TIP3    H153122   4.508   3.701  13.567  0.1947  1.9157  0.2402
10569TIP3    H253123   4.529   3.587  13.664 -0.9573 -0.3613 -2.0849
10570TIP3   OH253124   6.750   2.377  16.154 -0.1030 -0.1968  0.5525
10570TIP3    H153125   6.670   2.414  16.115  0.5955  0.1819 -0.5589
10570TIP3    H253126   6.821   2.415  16.103  0.6805 -2.9608 -0.5755
10571TIP3   OH253127   2.461   1.394  15.665 -0.1550 -0.2402 -0.4360
10571TIP3    H153128   2.532   1.455  15.682  1.0886 -1.9097  0.5745
10571TIP3    H253129   2.384   1.450  15.653  1.5721  1.7629 -3.4888
10572TIP3   OH253130   3.102   5.470   0.549 -0.2845  0.1265 -0.0025
10572TIP3    H153131   3.045   5.542   0.519 -1.1296 -0.6886 -0.3951
10572TIP3    H253132   3.114   5.415   0.472  1.2010  0.3658  0.0337
10573TIP3   OH253133   5.470   2.744   3.018  0.1421 -0.3454  0.1336
10573TIP3    H153134   5.470   2.840   3.011  0.3947 -0.3937 -0.5742
10573TIP3    H253135   5.412   2.715   2.947 -0.7979 -0.6792  1.0120
10574TIP3   OH253136   4.397   6.530   3.138 -0.0718 -0.0704  0.1789
10574TIP3    H153137   4.366   6.462   3.197 -0.3500 -2.6577 -2.6590
10574TIP3    H253138   4.325   6.593   3.134 -1.2139 -1.3042  0.5091
10575TIP3   OH253139   2.148   0.385  16.232 -0.4941 -0.0965  0.1956
10575TIP3    H153140   2.154   0.300  16.276 -2.4000 -0.1108  0.5254
10575TIP3    H253141   2.172   0.449  16.299  0.8044 -0.3417 -0.0108
10576TIP3   OH253142   2.986   1.959  12.500  0.4158 -0.9341  0.3928
10576TIP3    H153143   3.068   1.953  12.548 -0.0893 -0.5741  1.3326
10576TIP3    H253144   2.927   2.006  12.559  0.1207  0.6228 -1.0444
10577TIP3   OH253145   1.102   2.024  11.171  0.3428  0.5205  0.0656
10577TIP3    H153146   1.076   1.999  11.083  2.3401 -1.5898 -0.0168
10577TIP3    H253147   1.069   1.954  11.227  1.5020  0.3652  0.5850
10578TIP3   OH253148   1.009   3.744   4.164 -0.7320  0.2018  0.0134
10578TIP3    H153149   1.080   3.703   4.214 -0.3377 -0.2282 -0.8706
10578TIP3    H253150   0.983   3.820   4.216 -1.5676 -1.2145  1.7678
10579TIP3   OH253151   3.980   3.015  10.718  0.0304 -0.2970 -0.0119
10579TIP3    H153152   3.914   3.021  10.649 -0.2613 -0.3109  0.2632
10579TIP3    H253153   4.011   3.105  10.730 -0.5717 -0.1475  0.4667
10580TIP3   OH253154   6.750   2.732  16.263 -0.0566  0.7271 -0.5345
10580TIP3    H153155   6.712   2.680  16.334 -0.1072  0.3238 -0.8516
10580TIP3    H253156   6.677   2.748  16.203  0.3009 -0.1846 -1.2283
10581TIP3   OH253157   3.638   4.332   6.189 -0.1581 -0.2382 -0.2714
10581TIP3    H153158   3.626   4.368   6.101 -1.1699 -1.1576 -0.5338
10581TIP3    H253159   3.729   4.303   6.191  0.6568  2.1539 -0.0902
10582TIP3   OH253160   6.700   3.250   2.689  0.8131 -0.5122 -0.2901
10582TIP3    H153161   6.691   3.309   2.764  1.7291 -1.0914  0.2970
10582TIP3    H253162   6.700   3.163   2.728 -2.0830 -1.0475 -1.2665
10583TIP3   OH253163   5.466   2.371  11.165  0.0263 -0.2432  0.5496
10583TIP3    H153164   5.551   2.335  11.189  0.3954 -1.0089 -1.6398
10583TIP3    H253165   5.410   2.294  11.154 -0.7400  0.2077  1.1724
10584TIP3   OH253166   2.619   5.923  14.988 -0.0214  0.3852 -0.2420
10584TIP3    H153167   2.578   5.878  14.914  0.7972 -1.6921  0.4724
10584TIP3    H253168   2.710   5.933  14.962  0.4156 -0.9201  0.6539
10585TIP3   OH253169   5.649   1.569   0.103  0.0910  0.2204  0.0088
10585TIP3    H153170   5.694   1.591   0.185  0.5267 -0.5158 -0.0184
10585TIP3    H253171   5.718   1.567   0.038  0.4339 -2.9370  0.3359
10586TIP3   OH253172   3.223   4.403  12.339 -0.0931 -0.1752 -0.3403
10586TIP3    H153173   3.308   4.363  12.321  0.9869  2.2116 -0.9984
10586TIP3    H253174   3.176   4.397  12.255 -1.6195 -3.5135  0.5700
10587TIP3   OH253175   3.192   4.039  15.117 -0.1898  0.1450 -0.2361
10587TIP3    H153176   3.256   4.104  15.088 -0.1505  0.1234 -0.1989
10587TIP3    H253177   3.203   4.035  15.212 -0.0426 -0.0679 -0.2599
10588TIP3   OH253178   5.512   5.565   3.218 -0.6764 -0.3774  0.0068
10588TIP3    H153179   5.519   5.473   3.193  1.7978 -0.2812  0.1604
10588TIP3    H253180   5.596   5.604   3.193 -1.3300  1.6467  0.7534
10589TIP3   OH253181   0.603   3.621   5.271  0.2465 -0.0582  0.0366
10589TIP3    H153182   0.673   3.556   5.272 -1.1167 -1.6215  0.9460
10589TIP3    H253183   0.646   3.704   5.291  1.6447 -1.2088  2.2913
10590TIP3   OH253184   5.544   1.493  11.755  0.0887 -0.0239 -0.1198
10590TIP3    H153185   5.547   1.399  11.770  0.3483 -0.0465 -0.3139
10590TIP3    H253186   5.465   1.506  11.703  1.6755 -0.5363 -2.8691
10591TIP3   OH253187   0.535   0.192  17.064 -0.4666  0.5573  0.3603
10591TIP3    H153188   0.462   0.249  17.041  0.2136  1.5232  0.5310
10591TIP3    H253189   0.609   0.251  17.077  0.4460 -0.4344 -0.1676
10592TIP3   OH253190   1.946   2.391   6.374  0.1853 -0.6000 -0.6216
10592TIP3    H153191   2.027   2.403   6.424 -0.4884  0.1660  0.3345
10592TIP3    H253192   1.882   2.447   6.419 -1.0927 -1.8480 -0.8321
10593TIP3   OH253193   4.391   5.267  10.945  0.2006 -0.0492 -0.6099
10593TIP3    H153194   4.362   5.176  10.945 -1.3514  0.4209 -0.6801
10593TIP3    H253195   4.407   5.288  10.853  1.1441 -0.4044 -0.5408
10594TIP3   OH253196   2.043   6.262   3.272 -0.6838  0.1159 -0.1724
10594TIP3    H153197   2.100   6.203   3.322 -2.9313 -2.5168 -0.5003
10594TIP3    H253198   1.969   6.279   3.331 -1.1086  0.8358 -0.9052
10595TIP3   OH253199   4.967   1.507   4.651  0.0720  0.0809 -0.2495
10595TIP3    H153200   4.892   1.477   4.600  0.4583 -1.8142  0.2193
10595TIP3    H253201   5.029   1.538   4.586 -0.7955  0.9404 -0.6911
10596TIP3   OH253202   0.016   5.599  11.690 -0.2754 -0.0748  0.1157
10596TIP3    H153203  -0.062   5.568  11.644 -0.4650 -0.6777  0.8218
10596TIP3    H253204  -0.018   5.651  11.763  0.0111  0.4937 -0.1488
10597TIP3   OH253205   1.710   5.240   3.925  0.1455 -0.0840 -0.2976
10597TIP3    H153206   1.804   5.220   3.925  0.1982  0.1587 -0.3835
10597TIP3    H253207   1.706   5.335   3.916 -0.1405 -0.2223 -1.8673
10598TIP3   OH253208   5.382   6.238  12.870  0.3155 -0.5360 -0.0167
10598TIP3    H153209   5.357   6.325  12.899  0.5454 -0.2880 -0.5597
10598TIP3    H253210   5.335   6.179  12.929 -1.8397 -0.0964 -1.1898
10599TIP3   OH253211   2.066   0.039  10.959 -0.1301  0.3887 -0.8622
10599TIP3    H153212   2.079   0.088  10.878 -0.3691  3.1054  0.6052
10599TIP3    H253213   2.154   0.010  10.985  0.2988  1.5985 -0.9069
10600TIP3   OH253214   3.821   4.860  13.021  0.2020  0.5097  0.3505
10600TIP3    H153215   3.799   4.925  12.955 -0.9424 -0.6888 -0.4871
10600TIP3    H253216   3.875   4.908  13.085  0.4814  1.9313 -0.9033
10601TIP3   OH253217   4.713   2.918  12.622  0.7064 -0.4129 -0.4495
10601TIP3    H153218   4.630   2.911  12.574 -0.5201 -0.3908  1.5876
10601TIP3    H253219   4.703   2.857  12.695  2.1832  0.1898  0.2690
10602TIP3   OH253220   5.405   2.846  12.162  0.2184  0.4141  0.9577
10602TIP3    H153221   5.419   2.919  12.223 -0.1818  0.5289  0.9114
10602TIP3    H253222   5.347   2.881  12.095  0.2551  0.1364  0.7798
10603TIP3   OH253223   2.984   5.656  15.616  0.2953  0.2202 -0.0144
10603TIP3    H153224   2.978   5.749  15.595 -2.4481 -0.0962 -0.9929
10603TIP3    H253225   2.930   5.645  15.694 -0.0250 -0.6642 -0.3502
10604TIP3   OH253226   2.838   3.828  12.507  0.2042  0.2185  0.2286
10604TIP3    H153227   2.920   3.796  12.544  0.3819  0.0802 -0.2767
10604TIP3    H253228   2.770   3.788  12.561  0.4534 -0.1495  0.2708
10605TIP3   OH253229   4.532   2.655   2.906 -0.4119 -0.0094 -0.0601
10605TIP3    H153230   4.459   2.713   2.928  0.3115  2.0237 -2.4113
10605TIP3    H253231   4.589   2.657   2.983 -1.8774 -0.0850  1.0704
10606TIP3   OH253232   6.376   5.321   3.472 -0.2668  0.1808 -0.6462
10606TIP3    H153233   6.388   5.416   3.483  2.1341 -0.0524 -0.6230
10606TIP3    H253234   6.323   5.294   3.547 -1.4010  1.5435 -0.9063
10607TIP3   OH253235   0.526   3.630  11.657 -0.1971 -0.5005 -0.1604
10607TIP3    H153236   0.526   3.624  11.562 -1.5584 -1.5794 -0.1249
10607TIP3    H253237   0.459   3.568  11.685 -0.4958  0.4784  1.4546
10608TIP3   OH253238   6.379   0.920   0.717  0.1696 -0.0037  0.0131
10608TIP3    H153239   6.383   0.834   0.760 -0.5208 -0.6776 -1.1865
10608TIP3    H253240   6.322   0.905   0.642  1.0106  1.2259 -0.8977
10609TIP3   OH253241   4.491   0.270   5.905  0.7194 -0.1433  0.2764
10609TIP3    H153242   4.444   0.223   5.836  0.1453  0.1490  0.4636
10609TIP3    H253243   4.461   0.228   5.986  3.4230 -2.3651  0.2880
10610TIP3   OH253244   3.112   4.466  13.412  1.0592 -0.1293 -0.5980
10610TIP3    H153245   3.191   4.496  13.367  1.0925  0.2015 -0.3218
10610TIP3    H253246   3.043   4.472  13.346  1.2212 -0.2010 -0.7733
10611TIP3   OH253247   5.075   0.846   6.097  0.1227 -0.0116  0.1928
10611TIP3    H153248   5.011   0.861   6.166  1.2517  0.6688  1.1243
10611TIP3    H253249   5.129   0.775   6.130  0.4851  0.1166 -0.1238
10612TIP3   OH253250   3.086   1.985  14.832 -0.4567  0.1245 -0.1130
10612TIP3    H153251   3.084   1.897  14.795  0.1251 -0.3988  1.0512
10612TIP3    H253252   3.066   2.042  14.758 -1.2003 -0.9980 -0.8185
10613TIP3   OH253253   3.181   1.653  16.926 -0.3294 -0.1009  0.5584
10613TIP3    H153254   3.099   1.661  16.876 -0.4444  0.1013  0.7776
10613TIP3    H253255   3.237   1.721  16.890 -0.0980 -0.5130  0.1142
10614TIP3   OH253256   5.705   4.571  11.351  0.2556 -0.1422  0.1461
10614TIP3    H153257   5.773   4.565  11.283  0.3724 -1.3660  0.3494
10614TIP3    H253258   5.706   4.664  11.377  0.9787  0.1160 -0.7361
10615TIP3   OH253259   5.019   2.960  15.414  1.0169 -0.2685 -0.1326
10615TIP3    H153260   4.982   2.887  15.364  1.2556 -0.0435 -0.6434
10615TIP3    H253261   4.975   2.955  15.499 -0.2939  0.0578 -0.7539
10616TIP3   OH253262   2.767   1.783  11.768  0.0636 -0.3178  0.6077
10616TIP3    H153263   2.830   1.793  11.840  1.6788  1.0430 -0.9204
10616TIP3    H253264   2.744   1.690  11.770  1.6844 -0.7363  1.5856
10617TIP3   OH253265   4.732   4.774   0.337  0.2345 -0.2912  0.0075
10617TIP3    H153266   4.753   4.717   0.411  3.8315 -0.6691 -1.1107
10617TIP3    H253267   4.770   4.730   0.261 -1.2224  1.2558 -1.7181
10618TIP3   OH253268   0.786   3.834   5.280  0.3036 -0.0303  0.0609
10618TIP3    H153269   0.828   3.823   5.194  0.4440  1.0071 -0.0184
10618TIP3    H253270   0.853   3.875   5.334 -0.1860  0.4435  0.3128
10619TIP3   OH253271   4.049   2.465   2.310  0.2258 -0.0832  0.0791
10619TIP3    H153272   4.028   2.385   2.358  1.8431 -0.6004 -0.0118
10619TIP3    H253273   3.982   2.528   2.337 -1.2979 -1.5430 -0.1209
10620TIP3   OH253274   2.308   5.724  11.205  0.8233 -0.0123  0.0475
10620TIP3    H153275   2.373   5.735  11.275 -0.2298 -0.0809  1.0720
10620TIP3    H253276   2.334   5.643  11.161 -0.4139 -1.9266  2.5709
10621TIP3   OH253277   2.604   6.115   3.683 -0.8710  0.3622 -0.5043
10621TIP3    H153278   2.604   6.057   3.607  0.7307  1.1988 -1.1923
10621TIP3    H253279   2.558   6.193   3.653  1.1573  1.3469 -1.2021
10622TIP3   OH253280   2.017   0.424   4.486 -0.0320 -0.2208  0.8064
10622TIP3    H153281   1.971   0.502   4.518 -0.1812  0.1673 -0.3126
10622TIP3    H253282   2.074   0.399   4.559 -0.3092  0.6640  1.3529
10623TIP3   OH253283   5.059   1.399  10.431  0.1639  0.0941  0.0229
10623TIP3    H153284   4.968   1.372  10.445  0.8876 -1.5138  2.4024
10623TIP3    H253285   5.098   1.326  10.382  0.4792  0.1251  0.2250
10624TIP3   OH253286   4.951   1.490  15.562 -0.4052 -0.0485 -0.2749
10624TIP3    H153287   4.870   1.443  15.581 -0.0519 -0.2145  0.9283
10624TIP3    H253288   4.927   1.555  15.496 -1.6024  0.1479  0.3351
10625TIP3   OH253289   1.776   1.525  17.071  0.5833 -0.4732  0.6094
10625TIP3    H153290   1.766   1.430  17.085  2.6361 -1.1423 -1.7469
10625TIP3    H253291   1.721   1.543  16.994  0.9138  0.0520  0.4961
10626TIP3   OH253292   5.500   0.693   2.158  0.2494 -0.3188 -0.1119
10626TIP3    H153293   5.488   0.706   2.252  0.3612  0.6559 -0.2257
10626TIP3    H253294   5.575   0.634   2.152  0.4658 -0.1060  0.4092
10627TIP3   OH253295   4.811   4.004   4.246  0.3619 -0.3563  0.6187
10627TIP3    H153296   4.886   3.998   4.187  0.5749  1.7016  0.6011
10627TIP3    H253297   4.850   4.005   4.334  0.2815 -0.3062  0.6540
10628TIP3   OH253298   3.751   3.370  14.958  0.3612  0.3198  0.5372
10628TIP3    H153299   3.707   3.343  14.878 -1.2843 -3.3566  2.4147
10628TIP3    H253300   3.837   3.329  14.953 -0.0513 -0.6249  0.9535
10629TIP3   OH253301   3.196   3.900  16.060  0.1248  0.7073 -0.5666
10629TIP3    H153302   3.215   3.857  15.976  0.1294 -0.3732 -0.0287
10629TIP3    H253303   3.274   3.884  16.113 -0.9704 -1.1179  0.6127
10630TIP3   OH253304   1.245   1.016  13.747  0.3909 -0.0394 -0.3722
10630TIP3    H153305   1.198   1.082  13.798 -1.4283 -3.4680  2.8978
10630TIP3    H253306   1.185   0.993  13.676  0.1788  0.4185 -0.3403
10631TIP3   OH253307   1.359   0.254  17.107  0.3765 -0.0963 -0.0084
10631TIP3    H153308   1.282   0.298  17.071  0.1920 -1.1542 -0.9626
10631TIP3    H253309   1.430   0.318  17.097  0.5548 -0.6348 -3.2284
10632TIP3   OH253310   0.848   1.188  15.159 -0.2938 -0.1554  0.7167
10632TIP3    H153311   0.881   1.128  15.092  0.3866  1.1628 -0.1501
10632TIP3    H253312   0.755   1.197  15.138 -0.0492  0.3952 -0.1840
10633TIP3   OH253313   4.348   4.089   9.859 -0.5747  0.1379 -0.1200
10633TIP3    H153314   4.420   4.149   9.879 -0.0737 -0.0838 -1.1584
10633TIP3    H253315   4.376   4.005   9.896 -0.1025 -0.0376 -0.8384
10634TIP3   OH253316   2.728   1.804  17.064  0.2469 -0.6443  0.8714
10634TIP3    H153317   2.813   1.845  17.081  1.4201 -0.4458 -3.9624
10634TIP3    H253318   2.741   1.712  17.086  1.2538 -0.4065  1.3632
10635TIP3   OH253319   1.467   1.624   0.497  0.1798  0.3940  0.3978
10635TIP3    H153320   1.556   1.657   0.512  0.6181 -0.3175 -0.5329
10635TIP3    H253321   1.463   1.542   0.547  0.0664  0.4031  0.4035
10636TIP3   OH253322   6.035   3.242   5.424  0.4631 -0.0819 -0.2067
10636TIP3    H153323   5.939   3.233   5.424  0.3995  0.5299  0.0554
10636TIP3    H253324   6.067   3.157   5.394 -0.1584 -0.3630 -0.0935
10637TIP3   OH253325   0.554   3.603  11.366  0.6502 -0.3211 -0.3988
10637TIP3    H153326   0.560   3.674  11.302 -1.8780 -1.2134 -1.7621
10637TIP3    H253327   0.589   3.526  11.321  1.3162 -0.4118  0.2606
10638TIP3   OH253328   2.573   6.136   4.217 -0.4606  0.6825  0.2867
10638TIP3    H153329   2.597   6.051   4.254  0.3559  1.6125  2.0387
10638TIP3    H253330   2.531   6.116   4.134 -0.1996 -1.4197  0.6231
10639TIP3   OH253331   4.993   2.825  13.179 -0.4217 -0.3353  0.4881
10639TIP3    H153332   4.998   2.839  13.085 -1.5702  0.0574  0.4794
10639TIP3    H253333   5.073   2.777  13.200 -0.4293 -0.9314 -0.7733
10640TIP3   OH253334   5.245   1.420   1.722  0.1996 -0.0684 -0.0519
10640TIP3    H153335   5.209   1.450   1.805 -1.6030  0.9965 -1.1594
10640TIP3    H253336   5.319   1.478   1.706 -1.6481  2.1917 -0.8847
10641TIP3   OH253337   3.405   6.597  12.157  0.3932 -0.2342 -0.5826
10641TIP3    H153338   3.403   6.652  12.235 -0.0965 -0.0232 -0.7445
10641TIP3    H253339   3.424   6.509  12.190 -1.3893 -0.4572 -0.0408
10642TIP3   OH253340   0.214   2.217   5.357  0.2823 -0.4440 -0.3276
10642TIP3    H153341   0.267   2.290   5.326  0.3747 -0.1345  0.5265
10642TIP3    H253342   0.274   2.142   5.358  0.4198 -0.3347 -0.3664
10643TIP3   OH253343   4.773   3.739   1.994  0.3123  0.8007  0.5675
10643TIP3    H153344   4.860   3.718   1.959 -0.6091  0.0952 -1.4438
10643TIP3    H253345   4.725   3.656   1.991 -0.2215  1.0112  2.3952
10644TIP3   OH253346   0.031   5.378   2.991 -0.1646  0.3481  0.0068
10644TIP3    H153347  -0.015   5.435   2.929  0.7621  0.6957 -0.3794
10644TIP3    H253348   0.086   5.437   3.042 -0.5714  0.0074  0.8704
10645TIP3   OH253349   5.620   4.909  10.837 -0.0834  0.6780  0.4969
10645TIP3    H153350   5.673   4.829  10.827 -0.9272 -0.0281  1.4623
10645TIP3    H253351   5.561   4.908  10.762  0.3451  0.7426  0.1553
10646TIP3   OH253352   5.732   2.438  16.501 -0.0158 -0.1600  0.1768
10646TIP3    H153353   5.795   2.442  16.573  0.9944  0.2554 -0.7105
10646TIP3    H253354   5.699   2.348  16.504  1.2202 -0.6398  0.1672
10647TIP3   OH253355   0.781   4.533  12.761 -0.8844 -0.2789 -0.1235
10647TIP3    H153356   0.720   4.606  12.749 -1.6417 -0.6871  0.9849
10647TIP3    H253357   0.841   4.564  12.829 -1.4889 -0.8182  0.6864
10648TIP3   OH253358   4.974   3.831   1.052 -0.2848 -0.1764  0.2961
10648TIP3    H153359   4.919   3.909   1.041  0.3706  0.0148 -2.5010
10648TIP3    H253360   5.050   3.862   1.100 -0.9937  0.3990  1.0697
10649TIP3   OH253361   0.518   0.444  15.913 -0.9952  0.0910  0.2357
10649TIP3    H153362   0.597   0.497  15.923 -2.4437  2.4441  0.1424
10649TIP3    H253363   0.509   0.433  15.818 -0.0051 -1.5033  0.3035
10650TIP3   OH253364   5.122   1.514   1.954  0.5395  0.4970  0.4958
10650TIP3    H153365   5.028   1.509   1.937  0.4771 -0.0811  0.9659
10650TIP3    H253366   5.131   1.481   2.044  1.2385  0.1830  0.3096
10651TIP3   OH253367   0.383   4.657  14.752  0.2863  0.4196  0.6110
10651TIP3    H153368   0.330   4.624  14.680  1.3486  2.0353 -1.0099
10651TIP3    H253369   0.321   4.671  14.824 -1.1727  0.5803 -0.6308
10652TIP3   OH253370   2.002   0.740  15.965 -0.4814 -0.1273 -0.4725
10652TIP3    H153371   1.990   0.826  15.926  0.5780  0.7094  0.9369
10652TIP3    H253372   1.933   0.734  16.031 -0.4742 -0.3144 -0.4804
10653TIP3   OH253373   5.997   6.074   6.049  0.4216  0.6192 -0.0447
10653TIP3    H153374   6.009   6.114   6.135  0.1877  0.8265 -0.1073
10653TIP3    H253375   6.013   6.144   5.986 -4.3008  1.9777 -0.1315
10654TIP3   OH253376   2.007   5.697   4.999 -0.8205 -0.1723  0.0325
10654TIP3    H153377   2.031   5.788   4.980 -0.2195 -0.3491 -0.0898
10654TIP3    H253378   2.084   5.646   4.973 -1.1934 -0.7290 -0.0053
10655TIP3   OH253379   1.428   1.193   4.338 -0.2679 -0.0529  0.5530
10655TIP3    H153380   1.351   1.249   4.333  0.0608  0.3023 -1.5641
10655TIP3    H253381   1.500   1.254   4.353  0.0258  0.1248 -1.2622
10656TIP3   OH253382   3.569   6.038   0.275 -0.3377 -0.4474 -0.4301
10656TIP3    H153383   3.553   6.004   0.187 -0.2355 -0.8707 -0.2904
10656TIP3    H253384   3.663   6.029   0.288 -0.3503 -0.3732 -0.2860
10657TIP3   OH253385   3.141   4.090  10.391 -0.6398 -0.0306  0.1344
10657TIP3    H153386   3.079   4.088  10.318 -0.3410 -0.4260 -0.1102
10657TIP3    H253387   3.156   3.998  10.413  0.7090  0.0178 -0.5393
10658TIP3   OH253388   3.038   5.660   2.983 -0.3281 -0.3530 -0.6152
10658TIP3    H153389   3.080   5.743   2.960 -0.6855 -0.6260 -2.3476
10658TIP3    H253390   3.050   5.605   2.906 -0.2521 -1.8726  0.4431
10659TIP3   OH253391   6.338   5.550  14.463  0.4893  0.0358 -0.2494
10659TIP3    H153392   6.271   5.557  14.396  0.8426 -0.1171 -0.6239
10659TIP3    H253393   6.304   5.599  14.538  0.1165  0.2409 -0.5564
10660TIP3   OH253394   6.170   1.902  16.924  0.3173  0.6622 -0.4553
10660TIP3    H153395   6.239   1.870  16.983 -0.4921  0.5295  0.4423
10660TIP3    H253396   6.116   1.825  16.906  1.2869  0.3976 -2.4526
10661TIP3   OH253397   2.094   1.324   1.244 -0.4637  0.0616  0.2282
10661TIP3    H153398   2.041   1.289   1.172 -0.7863  1.0030 -0.0061
10661TIP3    H253399   2.135   1.247   1.283 -1.7296 -0.6579  0.1897
10662TIP3   OH253400   2.020   4.212   2.549 -0.4264 -0.4039 -0.6075
10662TIP3    H153401   1.978   4.244   2.469 -0.7635 -1.1407 -0.7307
10662TIP3    H253402   2.065   4.133   2.522  1.9654  0.9051 -0.7151
10663TIP3   OH253403   2.005   2.866   4.562 -0.1730  0.2736  0.2175
10663TIP3    H153404   1.969   2.888   4.476 -0.2255 -1.2839 -0.2018
10663TIP3    H253405   2.097   2.847   4.546 -0.2908 -0.5058  0.3993
10664TIP3   OH253406   3.865   4.480  12.049  0.2004  0.4489  0.1152
10664TIP3    H153407   3.826   4.567  12.048 -1.1236 -0.1155 -0.1998
10664TIP3    H253408   3.827   4.439  12.127 -1.6593 -0.8613 -1.3688
10665TIP3   OH253409   5.506   1.190   3.617 -0.1315 -0.0276 -0.0851
10665TIP3    H153410   5.599   1.176   3.603 -0.0653  1.0197 -0.7526
10665TIP3    H253411   5.500   1.234   3.701 -0.0872 -0.6872  0.2749
10666TIP3   OH253412   2.391   0.276   4.906  0.8806 -0.1134  0.0619
10666TIP3    H153413   2.467   0.275   4.849  2.1983 -2.0281  1.7281
10666TIP3    H253414   2.426   0.286   4.994 -0.6315 -2.2579  1.0051
10667TIP3   OH253415   5.670   3.807  13.237 -0.2433  0.1305 -0.2896
10667TIP3    H153416   5.609   3.758  13.181  0.5942  0.3621 -1.4407
10667TIP3    H253417   5.719   3.863  13.177  2.0349 -0.9869  0.3832
10668TIP3   OH253418   6.725   5.073   5.778  0.2229 -0.0546  0.5256
10668TIP3    H153419   6.797   5.038   5.830  0.0717  0.6227  1.2115
10668TIP3    H253420   6.646   5.046   5.824  0.0991  1.0402  0.9950
10669TIP3   OH253421   0.577   4.536   5.634 -0.5838  0.9598  0.2150
10669TIP3    H153422   0.628   4.478   5.690 -0.1957 -0.6710 -1.7016
10669TIP3    H253423   0.638   4.606   5.610 -0.4628  1.1392  1.0223
10670TIP3   OH253424   4.564   0.864  12.773  0.4711 -0.1514 -0.0142
10670TIP3    H153425   4.520   0.907  12.700  2.7317 -0.2701 -1.5628
10670TIP3    H253426   4.578   0.933  12.837 -1.5821 -0.0477  0.3852
10671TIP3   OH253427   3.647   0.186  14.515 -0.1881  0.1289  0.0947
10671TIP3    H153428   3.660   0.280  14.502 -1.7179  0.3210 -0.2909
10671TIP3    H253429   3.589   0.180  14.591 -1.1041 -0.4233 -0.6286
10672TIP3   OH253430   0.009   1.043   2.541 -0.5739 -0.0825 -0.0130
10672TIP3    H153431  -0.057   0.975   2.529  0.7449 -1.3942 -0.1134
10672TIP3    H253432   0.061   1.040   2.460  0.9900 -0.6585  0.9748
10673TIP3   OH253433   2.929   4.068  14.966  0.3749 -0.4519 -0.1661
10673TIP3    H153434   2.869   3.993  14.964 -0.9415  0.5302  0.7319
10673TIP3    H253435   2.975   4.060  15.050  1.1691 -0.9429 -0.6426
10674TIP3   OH253436   5.330   2.883   0.977  0.1394  0.2348  0.3640
10674TIP3    H153437   5.352   2.892   0.884  0.4134 -1.4180  0.2497
10674TIP3    H253438   5.388   2.945   1.021  1.0007  0.0175 -0.4426
10675TIP3   OH253439   4.250   4.353   0.450  0.1168  0.6265 -0.2502
10675TIP3    H153440   4.288   4.334   0.364 -1.3950  1.4901 -1.1578
10675TIP3    H253441   4.304   4.423   0.486  2.0538 -1.1534  0.4879
10676TIP3   OH253442   0.760   0.075   2.526 -0.1676 -0.4586 -0.7887
10676TIP3    H153443   0.807  -0.004   2.498  0.7882 -0.3272  0.3590
10676TIP3    H253444   0.808   0.105   2.603 -1.2473  0.5644 -0.4877
10677TIP3   OH253445   4.017   1.366   0.762 -0.0371 -0.1976  0.4666
10677TIP3    H153446   3.964   1.382   0.840  1.9447 -2.7755  2.4906
10677TIP3    H253447   3.974   1.293   0.718 -0.3948  0.3782 -0.1628
10678TIP3   OH253448   0.837   2.288   3.089  0.0319  0.2158 -0.1016
10678TIP3    H153449   0.770   2.232   3.128 -1.8489  1.9996 -0.5547
10678TIP3    H253450   0.818   2.288   2.995 -0.0047  1.5145 -0.1198
10679TIP3   OH253451   6.391   5.878   6.573  0.2559  0.0123  0.5561
10679TIP3    H153452   6.319   5.826   6.537 -0.2020 -0.0646  1.5455
10679TIP3    H253453   6.370   5.888   6.665  2.3319 -1.4293  1.2797
10680TIP3   OH253454   3.536   0.709  16.047 -0.2685  0.5198 -0.1093
10680TIP3    H153455   3.475   0.649  16.091  0.8143 -0.1527  0.5139
10680TIP3    H253456   3.574   0.657  15.976  0.6374  0.4751  0.4012
10681TIP3   OH253457   3.293   2.182  16.663 -0.1556 -0.6715 -0.0816
10681TIP3    H153458   3.264   2.154  16.750 -0.0283  3.4241  1.5020
10681TIP3    H253459   3.381   2.218  16.678 -0.2522  0.4025 -1.8281
10682TIP3   OH253460   6.566   6.523  17.032 -0.4997 -0.1853  1.0446
10682TIP3    H153461   6.520   6.451  17.076  0.4076 -0.8827  0.8856
10682TIP3    H253462   6.516   6.601  17.055  0.3396 -0.3929  3.9662
10683TIP3   OH253463   5.610   5.579  11.909 -0.2788  0.5430 -0.2032
10683TIP3    H153464   5.692   5.609  11.872  0.1645 -0.0371  0.2872
10683TIP3    H253465   5.547   5.648  11.887  0.4657  1.2898 -0.0618
10684TIP3   OH253466   5.262   1.810  12.883 -0.0163 -0.6185 -0.1963
10684TIP3    H153467   5.265   1.830  12.789 -1.4318 -1.5415 -0.4673
10684TIP3    H253468   5.347   1.769  12.901  0.8863  0.9120 -0.7109
10685TIP3   OH253469   1.897   6.536   0.457 -0.1559 -0.0882 -0.4212
10685TIP3    H153470   1.991   6.546   0.471 -0.3338  1.7847 -0.3547
10685TIP3    H253471   1.889   6.527   0.362  0.0023  0.9513 -0.5359
10686TIP3   OH253472   0.343   3.825  11.317 -0.0649 -0.2756  0.1530
10686TIP3    H153473   0.383   3.908  11.341 -0.4143 -0.2535  0.6804
10686TIP3    H253474   0.249   3.841  11.323 -0.1444 -1.0799  1.6244
10687TIP3   OH253475   5.016   5.190  12.517 -0.3793 -0.3053  0.9805
10687TIP3    H153476   4.921   5.175  12.510 -0.2631 -1.4746  1.6855
10687TIP3    H253477   5.047   5.192  12.427 -0.9889 -0.5229  0.7613
10688TIP3   OH253478   6.607   2.929  16.934  0.0669  0.4937 -0.3236
10688TIP3    H153479   6.683   2.896  16.886  1.7846  2.9519  0.5121
10688TIP3    H253480   6.585   2.858  16.994  0.2653 -1.1389 -2.0876
10689TIP3   OH253481   5.161   6.737  14.538  0.3199  0.0343  0.0031
10689TIP3    H153482   5.164   6.737  14.442  2.8022  0.5719  0.0138
10689TIP3    H253483   5.146   6.828  14.562  0.2514 -0.0124  0.1421
10690TIP3   OH253484   6.477   0.680  16.797 -0.2871  0.0611 -0.1057
10690TIP3    H153485   6.478   0.738  16.721  0.1586  1.3552  0.8560
10690TIP3    H253486   6.528   0.604  16.771 -1.9050 -0.5133 -1.8243
10691TIP3   OH253487   1.946   1.007  16.496  0.0737 -0.0171  0.2210
10691TIP3    H153488   1.935   0.975  16.586 -1.7408  0.5509  0.2428
10691TIP3    H253489   2.039   1.025  16.489  0.7659 -2.8418  1.0091
10692TIP3   OH253490   5.719   0.715  13.469  0.4243  0.1086 -0.2510
10692TIP3    H153491   5.767   0.741  13.547  0.7229  0.4015 -0.5297
10692TIP3    H253492   5.783   0.667  13.416 -0.3656 -2.1232  0.7003
10693TIP3   OH253493   4.357   2.193   2.436  0.2819 -0.0970  1.4404
10693TIP3    H153494   4.449   2.167   2.432  0.5205  0.8644 -0.5417
10693TIP3    H253495   4.359   2.286   2.460  0.0207  0.5607 -0.8455
10694TIP3   OH253496   6.689   2.327  12.471  0.2785 -0.7214  0.0370
10694TIP3    H153497   6.748   2.380  12.417 -0.5230 -0.4126 -0.5586
10694TIP3    H253498   6.680   2.376  12.553  2.4056 -1.7465  0.9603
10695TIP3   OH253499   0.151   0.764  14.259  0.2921  0.2039 -0.4427
10695TIP3    H153500   0.213   0.823  14.218 -0.1150  1.3460  0.5414
10695TIP3    H253501   0.172   0.678  14.223  1.3192  0.8391 -1.3988
10696TIP3   OH253502   1.541   2.058  15.737  0.0445  0.4793  0.3143
10696TIP3    H153503   1.500   2.063  15.650 -0.2545 -0.0215  0.4216
10696TIP3    H253504   1.527   2.145  15.775  0.8736  0.9617 -0.4415
10697TIP3   OH253505   0.930   0.826  15.127 -0.0601  0.1736  0.1502
10697TIP3    H153506   0.949   0.902  15.072 -0.0684 -0.9915 -1.5301
10697TIP3    H253507   0.842   0.842  15.162 -0.4147  0.5607 -0.8874
10698TIP3   OH253508   1.441   0.619   2.097 -0.2565 -0.2926  0.1940
10698TIP3    H153509   1.513   0.644   2.040  0.2269 -2.3159 -0.1736
10698TIP3    H253510   1.369   0.597   2.038 -0.9621  1.0513  0.5316
10699TIP3   OH253511   0.064   6.296   3.790 -0.2085 -0.5207  0.5582
10699TIP3    H153512   0.099   6.317   3.876  1.2395 -0.0603 -0.1232
10699TIP3    H253513   0.002   6.368   3.772  1.6435  1.0197  0.0081
10700TIP3   OH253514   2.970   5.776   5.213  0.3460 -0.0476  0.3577
10700TIP3    H153515   2.883   5.809   5.237  1.2218  0.5865  3.0166
10700TIP3    H253516   2.998   5.834   5.142 -0.9032  0.5089  0.2802
10701TIP3   OH253517   4.118   4.216  15.700 -0.1632  1.0425 -0.3262
10701TIP3    H153518   4.068   4.263  15.634  0.7972  0.4832 -1.4844
10701TIP3    H253519   4.139   4.132  15.660 -0.4170  0.2644  1.0793
10702TIP3   OH253520   0.352   4.190  10.929 -0.5002 -0.6650  0.2130
10702TIP3    H153521   0.354   4.286  10.924 -0.8252 -0.5409  1.9779
10702TIP3    H253522   0.264   4.169  10.960 -0.6695 -1.6063 -0.8295
10703TIP3   OH253523   0.963   5.983  10.520  0.2413  0.0726 -0.1678
10703TIP3    H153524   1.057   5.995  10.504  0.5323 -0.3298  1.1131
10703TIP3    H253525   0.936   5.919  10.454  0.8804  0.1150 -0.4879
10704TIP3   OH253526   3.766   3.977  11.555 -0.9871  0.0304  0.1416
10704TIP3    H153527   3.724   3.903  11.598 -1.9601  1.4190  1.7169
10704TIP3    H253528   3.853   3.944  11.530 -0.1315 -0.8308  3.6321
10705TIP3   OH253529   5.845   1.050   1.815  0.1002  0.5864  0.2701
10705TIP3    H153530   5.939   1.041   1.832  0.2130  0.3852 -0.4095
10705TIP3    H253531   5.840   1.114   1.744 -0.3204  1.0685  0.7289
10706TIP3   OH253532   0.850   1.589   4.827  0.1888  0.4299 -0.0320
10706TIP3    H153533   0.847   1.648   4.751 -0.1764  0.6295  0.1339
10706TIP3    H253534   0.758   1.572   4.847  0.2669  0.9628  0.8123
10707TIP3   OH253535   0.526   3.679  15.894 -0.5626  0.1311 -0.1795
10707TIP3    H153536   0.504   3.610  15.957 -0.9468  0.1819 -0.2601
10707TIP3    H253537   0.607   3.648  15.853 -1.1375 -0.6492 -0.7592
10708TIP3   OH253538   4.677   6.361  15.065  0.5346  0.0344  0.5032
10708TIP3    H153539   4.589   6.343  15.098  0.5796  1.3908  1.4723
10708TIP3    H253540   4.733   6.295  15.106 -0.2405 -2.0397 -1.5763
10709TIP3   OH253541   2.947   2.161  13.847 -0.0385 -0.3773 -0.7012
10709TIP3    H153542   3.013   2.229  13.834 -0.2345 -0.2204 -0.8815
10709TIP3    H253543   2.872   2.189  13.794  0.1219 -1.0704 -1.3126
10710TIP3   OH253544   4.468   4.569  11.046  0.8193 -0.3677  0.0734
10710TIP3    H153545   4.430   4.654  11.025 -1.1831 -0.7767  1.6925
10710TIP3    H253546   4.414   4.506  10.999  0.8896 -0.8651  0.6451
10711TIP3   OH253547   0.989   5.656   0.178 -0.0894  0.0597  0.4623
10711TIP3    H153548   1.013   5.638   0.269 -2.1775  1.3460  1.3446
10711TIP3    H253549   0.960   5.571   0.145  1.9948 -0.7283  0.4916
10712TIP3   OH253550   6.627   4.834   1.914  0.0199 -0.7767  0.8096
10712TIP3    H153551   6.620   4.879   1.829  0.0352 -1.0291  0.6749
10712TIP3    H253552   6.676   4.754   1.895  0.4508 -0.6007  1.1479
10713TIP3   OH253553   2.221   3.444  17.167 -0.3580 -0.2114  0.4276
10713TIP3    H153554   2.247   3.534  17.150 -0.9818 -0.4440 -2.1363
10713TIP3    H253555   2.288   3.411  17.227  0.3313  1.7023  0.7878
10714TIP3   OH253556   3.931   5.533  15.443 -0.5371 -0.2414  0.0911
10714TIP3    H153557   3.975   5.615  15.467 -1.4668  1.0023 -2.1172
10714TIP3    H253558   3.838   5.555  15.446 -0.7879 -1.1886 -0.6269
10715TIP3   OH253559   0.615   3.350  11.841  0.1963 -0.4012 -0.2482
10715TIP3    H153560   0.627   3.332  11.934  0.9989 -2.7703 -0.7340
10715TIP3    H253561   0.606   3.445  11.836  1.4496 -0.0746  2.1045
10716TIP3   OH253562   1.857   3.756   1.711  0.0462 -0.3207  0.4257
10716TIP3    H153563   1.945   3.795   1.716  0.5594 -1.1625 -1.4385
10716TIP3    H253564   1.872   3.667   1.680 -1.6214  0.2420 -2.2288
10717TIP3   OH253565   2.784   0.228   2.660  0.3477  0.5206  0.0181
10717TIP3    H153566   2.715   0.276   2.614 -1.3711 -1.5190  0.3531
10717TIP3    H253567   2.753   0.220   2.750  1.0422 -0.3549  0.1981
10718TIP3   OH253568   0.223   1.211   1.873  0.6169  0.2246  0.2309
10718TIP3    H153569   0.201   1.283   1.933 -0.6649  0.8009 -0.8817
10718TIP3    H253570   0.313   1.230   1.846 -0.2230  2.4395 -1.3576
10719TIP3   OH253571   4.630   0.118  12.341 -0.0684 -0.3791 -0.1344
10719TIP3    H153572   4.541   0.101  12.371  1.0655  0.0651  4.0667
10719TIP3    H253573   4.631   0.211  12.320 -0.9363 -0.7280 -1.9007
10720TIP3   OH253574   1.521   0.966   3.433  0.3814  0.0247  0.2337
10720TIP3    H153575   1.435   0.925   3.431  0.2081  0.4064 -0.4956
10720TIP3    H253576   1.538   0.990   3.342  0.6339  1.2322  0.5855
10721TIP3   OH253577   1.614   2.591  12.147  0.1745 -0.3339  0.3182
10721TIP3    H153578   1.606   2.664  12.086  0.5359  0.4692  1.2110
10721TIP3    H253579   1.609   2.513  12.092  0.4146  0.3694 -0.7222
10722TIP3   OH253580   4.030   2.458   1.993  0.0993 -0.6321  0.0726
10722TIP3    H153581   4.109   2.453   1.940  1.0791 -1.6150  1.5328
10722TIP3    H253582   4.049   2.528   2.057  0.1114 -1.3584  0.8862
10723TIP3   OH253583   5.225   4.641  12.492  0.2955 -1.1479  0.1718
10723TIP3    H153584   5.226   4.618  12.399 -2.0560 -0.0371 -0.2167
10723TIP3    H253585   5.141   4.685  12.504  0.8602 -0.6233  2.6907
10724TIP3   OH253586   0.933   5.589  11.059  0.2254  0.1050 -0.1049
10724TIP3    H153587   0.869   5.576  10.990  0.3256  0.0842 -0.1941
10724TIP3    H253588   0.984   5.509  11.061  1.6450  0.9294 -1.4941
10725TIP3   OH253589   4.838   0.018  17.026 -0.0006  0.5127  0.0578
10725TIP3    H153590   4.796  -0.017  16.948 -1.3296  1.3241  0.3951
10725TIP3    H253591   4.803  -0.034  17.098  1.6838 -0.6562  0.1059
10726TIP3   OH253592   0.966   2.031  16.026  0.4065 -0.0962 -0.4126
10726TIP3    H153593   0.967   1.998  16.116  1.1924 -0.6686 -0.6203
10726TIP3    H253594   1.014   1.965  15.976 -1.8694 -0.8988 -1.6707
10727TIP3   OH253595   4.616   5.584   1.677 -0.2279  0.0027 -0.1773
10727TIP3    H153596   4.562   5.661   1.699 -2.4195 -1.3027 -0.6956
10727TIP3    H253597   4.651   5.556   1.761 -2.1009 -0.3140  0.5648
10728TIP3   OH253598   0.352   5.826   3.854  0.2099 -0.0176  0.7513
10728TIP3    H153599   0.322   5.849   3.767 -1.1583 -3.1794  0.2589
10728TIP3    H253600   0.276   5.842   3.911  0.8981  1.4347  1.3210
10729TIP3   OH253601   4.277   6.454  11.733  0.6908  0.1159  0.0502
10729TIP3    H153602   4.335   6.529  11.745  1.7191 -0.7140  0.3330
10729TIP3    H253603   4.294   6.424  11.644 -0.3653  0.7344 -0.3836
10730TIP3   OH253604   4.956   1.309   3.287  0.5372  0.0190 -0.0335
10730TIP3    H153605   4.880   1.289   3.233 -1.6219 -1.0478  3.0832
10730TIP3    H253606   4.938   1.397   3.322  1.3941  0.2912 -0.2442
10731TIP3   OH253607   6.155   5.650   2.673  0.2168 -0.5009 -0.9700
10731TIP3    H153608   6.093   5.710   2.631  0.9995  0.5189 -0.7240
10731TIP3    H253609   6.142   5.664   2.767  1.9383  1.0030 -0.8885
10732TIP3   OH253610   1.331   0.608   0.081  0.0413 -0.5095 -0.2998
10732TIP3    H153611   1.358   0.516   0.088  1.6115 -0.1837 -1.4637
10732TIP3    H253612   1.383   0.654   0.146  1.1954 -0.1173 -1.4416
10733TIP3   OH253613   1.802   2.819  14.774  0.5321 -0.3993 -0.4486
10733TIP3    H153614   1.749   2.808  14.853 -0.7658  1.3099 -1.0051
10733TIP3    H253615   1.882   2.770  14.792  0.0458 -0.5322  1.7005
10734TIP3   OH253616   1.028   0.384   2.081 -0.4061 -0.0597 -0.5462
10734TIP3    H153617   0.996   0.333   2.155 -0.9115  0.8253 -0.1426
10734TIP3    H253618   0.963   0.371   2.012 -0.7161  0.3235 -0.3246
10735TIP3   OH253619   2.675   4.965  14.266  0.0398 -0.2912  0.3609
10735TIP3    H153620   2.694   4.932  14.353 -3.1322 -0.6352  1.0579
10735TIP3    H253621   2.706   4.897  14.207 -0.0100 -1.2195  1.3778
10736TIP3   OH253622   1.428   6.236  13.655 -0.5853  0.2029  0.7267
10736TIP3    H153623   1.392   6.234  13.744 -2.1440  0.9554  0.1528
10736TIP3    H253624   1.351   6.229  13.598  0.2612  0.9975 -0.5628
10737TIP3   OH253625   4.082   2.652  12.198  0.2040  0.3643 -0.5675
10737TIP3    H153626   4.147   2.676  12.265 -1.2796 -0.4472  1.2699
10737TIP3    H253627   4.080   2.556  12.200 -1.3590  0.3723 -0.2046
10738TIP3   OH253628   0.648   5.759   0.197 -0.3257 -0.0630 -0.7674
10738TIP3    H153629   0.677   5.750   0.106 -0.9723  1.6331 -1.1890
10738TIP3    H253630   0.610   5.847   0.201 -1.1260 -0.4441  0.9296
10739TIP3   OH253631   3.645   4.457   4.582  0.5813  0.1307 -0.5037
10739TIP3    H153632   3.554   4.461   4.611  0.0317  0.7114 -2.1818
10739TIP3    H253633   3.695   4.497   4.654 -0.3491 -1.0518  0.8538
10740TIP3   OH253634   3.557   6.401   0.220 -0.3002  0.3288  0.0990
10740TIP3    H153635   3.557   6.314   0.259 -0.4530  0.1459 -0.3132
10740TIP3    H253636   3.488   6.399   0.154 -0.0534  0.6435 -0.1758
10741TIP3   OH253637   5.963   2.545   3.986  0.0016  0.3827  0.0447
10741TIP3    H153638   6.026   2.537   4.058  0.8888 -0.8497 -0.8195
10741TIP3    H253639   5.929   2.457   3.974 -1.2660  0.8682 -0.0884
10742TIP3   OH253640   3.321   4.104  14.696  0.1382  0.6045  0.3301
10742TIP3    H153641   3.355   4.015  14.703  0.1026  0.6372  1.0192
10742TIP3    H253642   3.226   4.094  14.693  0.1534  0.5882 -0.2639
10743TIP3   OH253643   4.791   3.000   0.959  0.2393  0.1281  0.3400
10743TIP3    H153644   4.763   2.986   1.049 -1.4763 -0.0139 -0.1807
10743TIP3    H253645   4.827   2.916   0.931 -0.4637 -0.2291  0.4847
10744TIP3   OH253646   2.590   2.261   4.029 -0.8203  0.2610  0.4152
10744TIP3    H153647   2.628   2.189   4.079  0.3613  0.2740 -0.4125
10744TIP3    H253648   2.503   2.230   4.004  0.1471 -1.4959 -1.0679
10745TIP3   OH253649   0.918   6.046   1.724  0.4329  0.0832 -0.1894
10745TIP3    H153650   0.991   6.027   1.782 -0.8224  1.0630  1.8337
10745TIP3    H253651   0.857   5.973   1.738 -0.1855  0.6778  0.3222
10746TIP3   OH253652   2.642   2.111  11.401 -0.0063 -0.5756  0.5205
10746TIP3    H153653   2.641   2.082  11.493  0.3065 -0.9938  0.3966
10746TIP3    H253654   2.596   2.042  11.354  1.0970 -1.0967  0.1641
10747TIP3   OH253655   1.623   4.528   2.029 -0.2631 -0.0676  0.1493
10747TIP3    H153656   1.646   4.586   1.956 -1.6498  0.9796  0.4990
10747TIP3    H253657   1.529   4.540   2.041 -0.2824 -1.1346  1.3439
10748TIP3   OH253658   5.054   4.198  13.270 -0.3637  0.3170  0.4072
10748TIP3    H153659   5.053   4.103  13.275 -1.2603  0.3781  1.9494
10748TIP3    H253660   5.148   4.221  13.273  0.0430 -0.5547 -2.7052
10749TIP3   OH253661   5.122   1.859   6.103 -0.2903 -0.0045  0.1760
10749TIP3    H153662   5.073   1.934   6.070 -0.3049 -1.7283 -4.6027
10749TIP3    H253663   5.060   1.786   6.096  1.1577 -1.2422 -0.0963
10750TIP3   OH253664   0.110   1.080   2.267  0.2388  0.2046  0.2497
10750TIP3    H153665   0.103   1.050   2.177  2.3431  1.7567 -0.5149
10750TIP3    H253666   0.115   1.176   2.260  1.2189  0.3153  1.9342
10751TIP3   OH253667   4.598   2.804   4.216 -0.4298 -0.4186 -0.0684
10751TIP3    H153668   4.649   2.773   4.291 -0.6740 -2.2510 -0.5984
10751TIP3    H253669   4.521   2.844   4.255  1.6373  3.1882  0.7918
10752TIP3   OH253670   5.542   4.685   0.450  0.3426 -0.5687  0.3665
10752TIP3    H153671   5.491   4.628   0.508 -0.6684 -0.5948 -0.5232
10752TIP3    H253672   5.611   4.628   0.415 -0.0355 -0.9811  0.2809
10753TIP3   OH253673   3.137   5.200  16.475 -0.2020 -0.5219  0.2420
10753TIP3    H153674   3.176   5.113  16.476 -0.5151 -0.6781  2.4579
10753TIP3    H253675   3.046   5.187  16.503 -0.6453  0.3726 -0.6883
10754TIP3   OH253676   1.062   6.184   0.088  0.4210 -0.3549 -0.0307
10754TIP3    H153677   1.037   6.148   0.173  0.5891  0.5350  0.4078
10754TIP3    H253678   1.029   6.273   0.089  0.4395 -0.3329 -0.9002
10755TIP3   OH253679   2.144   6.216   4.681  0.4633  0.1480  0.1721
10755TIP3    H153680   2.076   6.273   4.646  0.5066  0.5480  0.7262
10755TIP3    H253681   2.199   6.195   4.605 -0.1092  0.0525 -0.2223
10756TIP3   OH253682   3.833   1.432   1.007  0.1042  0.4320  0.1501
10756TIP3    H153683   3.815   1.341   1.031 -0.9529  0.8175  0.8712
10756TIP3    H253684   3.756   1.460   0.958  0.4612  0.9168 -0.1434
10757TIP3   OH253685   6.052   3.862  15.856  0.6895  0.0828  0.5228
10757TIP3    H153686   6.032   3.954  15.842  0.8470  0.2843  1.5959
10757TIP3    H253687   6.024   3.844  15.946 -0.7609 -1.3074 -0.1526
10758TIP3   OH253688   1.309   3.312  13.822 -0.2604 -0.2342 -0.7790
10758TIP3    H153689   1.304   3.287  13.729  0.0451  0.2193 -0.9155
10758TIP3    H253690   1.374   3.252  13.859  0.1465  0.0622 -1.0128
10759TIP3   OH253691   3.308   4.563   3.893 -0.1508 -0.6416  0.0691
10759TIP3    H153692   3.325   4.579   3.986  2.0961 -2.7565  0.1130
10759TIP3    H253693   3.369   4.620   3.847 -1.0105  0.1333 -0.1551
10760TIP3   OH253694   0.508   0.674  13.604 -0.4041  0.3152  0.4225
10760TIP3    H153695   0.455   0.716  13.536  0.5535  2.7708  1.1109
10760TIP3    H253696   0.478   0.583  13.604 -1.3922  0.5542 -2.3135
10761TIP3   OH253697   6.022   0.932  16.486  0.1851 -0.4430  0.1352
10761TIP3    H153698   5.985   0.936  16.574 -0.0354  0.6444  0.0025
10761TIP3    H253699   6.025   0.838  16.465 -0.0004 -0.6923  1.1916
10762TIP3   OH253700   4.963   6.144  16.393 -0.2887  0.5762  0.0339
10762TIP3    H153701   4.927   6.068  16.439 -1.3213  1.5441  0.8966
10762TIP3    H253702   4.900   6.215  16.411  0.7815  1.7062 -0.4977
10763TIP3   OH253703   2.180   2.814   4.156 -0.5254  0.2282 -0.3931
10763TIP3    H153704   2.104   2.857   4.196 -1.2210 -0.8332 -0.5309
10763TIP3    H253705   2.222   2.767   4.228 -1.7310 -1.6162 -0.8114
10764TIP3   OH253706   3.198   3.036  11.499  0.2982 -0.0289  0.8189
10764TIP3    H153707   3.248   3.034  11.580 -0.5766  3.0742  1.5718
10764TIP3    H253708   3.127   2.973  11.513  0.3089  0.2799  2.3570
10765TIP3   OH253709   0.296   1.409   1.077  0.1949  0.4639 -0.1334
10765TIP3    H153710   0.343   1.326   1.080  0.3831  0.5685 -0.1827
10765TIP3    H253711   0.352   1.467   1.025 -0.0914  0.5248 -0.3769
10766TIP3   OH253712   6.180   2.324  15.559 -0.0640  0.2119  0.5208
10766TIP3    H153713   6.104   2.359  15.512 -0.1255 -0.7075 -0.0890
10766TIP3    H253714   6.154   2.235  15.582  0.1711  0.4639  1.8495
10767TIP3   OH253715   4.136   2.150   4.597  0.1384  0.0014 -0.3866
10767TIP3    H153716   4.194   2.162   4.522  1.1720 -2.4445 -0.0844
10767TIP3    H253717   4.105   2.060   4.589 -0.4862 -0.0042  1.6060
10768TIP3   OH253718   4.772   3.016   4.684 -0.2800 -0.1498 -0.0386
10768TIP3    H153719   4.848   3.001   4.628  0.2456 -0.1231  0.6476
10768TIP3    H253720   4.740   2.929   4.707  0.1049 -0.1821  0.4021
10769TIP3   OH253721   2.876   6.699  13.076 -0.6563  0.1711  0.0408
10769TIP3    H153722   2.931   6.647  13.018 -0.3427 -0.6783  1.0551
10769TIP3    H253723   2.811   6.740  13.019  0.5959  0.6321 -1.0890
10770TIP3   OH253724   1.574   0.411  14.077 -0.0411 -0.2287 -0.2823
10770TIP3    H153725   1.543   0.384  14.163  0.6787  0.0413  0.0728
10770TIP3    H253726   1.642   0.347  14.055  0.1399  0.0040 -0.4087
10771TIP3   OH253727   3.343   1.974  15.411  0.2095 -0.1271 -0.3442
10771TIP3    H153728   3.421   1.923  15.432  0.5121  0.2836 -0.4460
10771TIP3    H253729   3.377   2.060  15.385 -0.2390 -0.1710 -1.0954
10772TIP3   OH253730   5.629   1.663  15.527  0.6527  0.0389 -0.1778
10772TIP3    H153731   5.627   1.735  15.591  0.1290  1.7874 -2.0550
10772TIP3    H253732   5.700   1.606  15.558  0.9237  1.2088  1.5143
10773TIP3   OH253733   5.228   4.431  13.591  0.2134 -0.4963 -0.2651
10773TIP3    H153734   5.204   4.517  13.623 -1.0523 -0.8210 -0.2912
10773TIP3    H253735   5.184   4.423  13.506  0.7037 -0.9857 -0.4845
10774TIP3   OH253736   3.625   2.072   1.838 -0.0007  0.3004  0.0381
10774TIP3    H153737   3.606   1.996   1.783 -0.2973  0.1067  0.4059
10774TIP3    H253738   3.697   2.044   1.894 -0.7492 -0.0447  0.8458
10775TIP3   OH253739   2.308   5.793  16.770  0.2181 -0.3462 -0.5975
10775TIP3    H153740   2.349   5.804  16.684  1.7577  0.9354  0.2398
10775TIP3    H253741   2.330   5.874  16.817 -3.2206  0.3715  0.0016
10776TIP3   OH253742   5.955   4.295  16.031 -0.4057  0.4154 -0.0281
10776TIP3    H153743   5.948   4.319  16.124 -0.1051  0.4501 -0.0155
10776TIP3    H253744   5.998   4.370  15.990  0.6081 -0.1215  0.0216
10777TIP3   OH253745   3.165   0.346  14.941  0.5362  0.4619  0.6688
10777TIP3    H153746   3.160   0.342  14.845 -0.2068 -2.2385  0.7497
10777TIP3    H253747   3.078   0.319  14.971  1.4407 -1.1097  2.0706
10778TIP3   OH253748   6.244   5.086  17.017  0.0068 -0.2316  0.1867
10778TIP3    H153749   6.242   5.066  17.110 -0.1953 -1.9342 -0.1477
10778TIP3    H253750   6.285   5.010  16.976  3.8321  2.0741 -0.7952
10779TIP3   OH253751   2.591   2.505  12.060  0.6365 -0.1165  0.3618
10779TIP3    H153752   2.552   2.585  12.025 -0.0224 -0.3751  0.4774
10779TIP3    H253753   2.681   2.505  12.027  1.0067  1.2331  1.3060
10780TIP3   OH253754   3.386   0.476   0.575  0.4099 -0.1494  0.8754
10780TIP3    H153755   3.379   0.485   0.480 -0.8189 -0.0567  0.9608
10780TIP3    H253756   3.417   0.562   0.604 -0.8462  0.3782  0.7003
10781TIP3   OH253757   2.841   4.656  13.846 -0.5161 -0.5319 -0.1838
10781TIP3    H153758   2.887   4.608  13.777 -1.3926  0.5086 -1.5349
10781TIP3    H253759   2.748   4.644  13.825 -0.7584  1.3580 -0.2790
10782TIP3   OH253760   5.448   4.833   1.780  0.4236 -0.4415  0.3342
10782TIP3    H153761   5.519   4.861   1.722  0.4314 -0.5990  0.2681
10782TIP3    H253762   5.369   4.842   1.728  0.4862 -1.0948  0.1196
10783TIP3   OH253763   6.101   1.662  12.986  0.0731  0.1450 -0.1536
10783TIP3    H153764   6.184   1.615  12.999 -1.0536 -1.6042  1.2337
10783TIP3    H253765   6.120   1.752  13.010  1.1681 -0.5821  1.9516
10784TIP3   OH253766   0.915   4.056   0.059  0.2212  0.4556  0.2435
10784TIP3    H153767   0.877   4.137   0.091  0.6902  2.0069 -2.7816
10784TIP3    H253768   1.010   4.070   0.065  0.3609 -0.9132  1.9737
10785TIP3   OH253769   6.460   6.652   5.287  0.4215 -0.3357  0.2166
10785TIP3    H153770   6.368   6.666   5.266  0.7042  0.8972 -0.2398
10785TIP3    H253771   6.486   6.577   5.233 -0.2811 -0.6181  0.2668
10786TIP3   OH253772   5.124   1.632  14.923 -0.4083  0.1154 -0.2427
10786TIP3    H153773   5.177   1.660  14.848  1.1993  0.2236  0.8921
10786TIP3    H253774   5.034   1.650  14.896  0.2096  1.3070 -1.6747
10787TIP3   OH253775   4.517   5.809   0.940  0.1781  0.2500 -0.2887
10787TIP3    H153776   4.488   5.824   0.850  2.0504  0.5510 -0.8864
10787TIP3    H253777   4.609   5.785   0.932  1.1676  2.8401  1.6806
10788TIP3   OH253778   0.809   2.817   3.519 -0.0701  0.2768  0.2879
10788TIP3    H153779   0.894   2.796   3.481  0.4294  3.4034 -0.5946
10788TIP3    H253780   0.827   2.835   3.611 -0.1367 -0.8298  0.5325
10789TIP3   OH253781   4.734   6.613  14.940  0.1185  0.0736  0.3654
10789TIP3    H153782   4.750   6.696  14.984  0.9045  0.3789 -0.4729
10789TIP3    H253783   4.726   6.549  15.011  0.4656  0.7013  0.9773
10790TIP3   OH253784   1.997   5.139  10.660 -0.1396  0.7514 -0.3032
10790TIP3    H153785   1.978   5.175  10.746  1.0861  0.7362 -0.0056
10790TIP3    H253786   1.957   5.052  10.661  1.3975  0.0024  0.9617
10791TIP3   OH253787   5.468   5.217  12.131 -0.4705 -0.6573 -0.4111
10791TIP3    H153788   5.432   5.298  12.095  0.3339 -0.5500 -1.0095
10791TIP3    H253789   5.471   5.157  12.056 -1.3691 -1.3616  0.0986
10792TIP3   OH253790   0.308   3.387  15.198  0.5878  0.2869  0.7236
10792TIP3    H153791   0.332   3.461  15.254 -0.0356  2.0322 -1.1827
10792TIP3    H253792   0.212   3.382  15.205  0.4134  1.0473 -0.7205
10793TIP3   OH253793   3.835   4.046  15.169 -0.0162 -0.4929 -0.5354
10793TIP3    H153794   3.819   4.134  15.202 -0.1188 -0.8863  0.5252
10793TIP3    H253795   3.767   4.031  15.104  0.4807  0.4862 -1.3110
10794TIP3   OH253796   5.446   6.303   2.963 -0.3695  0.8033 -0.3040
10794TIP3    H153797   5.487   6.301   3.049 -0.7186  2.8829 -0.0509
10794TIP3    H253798   5.370   6.360   2.973  0.4751  2.3985 -2.3442
10795TIP3   OH253799   6.198   5.441   2.272 -0.1467  0.0094 -0.1260
10795TIP3    H153800   6.192   5.360   2.223  0.5940 -0.1261 -0.0024
10795TIP3    H253801   6.108   5.472   2.279 -0.5951 -1.4947  1.0053
10796TIP3   OH253802   2.142   2.991   3.971  0.3764  0.3576 -0.0392
10796TIP3    H153803   2.157   2.915   4.027  0.2815  0.2104 -0.2133
10796TIP3    H253804   2.224   3.041   3.976  0.6511 -0.0509 -0.3738
10797TIP3   OH253805   1.816   3.118  14.802  0.0867  0.4828 -0.3932
10797TIP3    H153806   1.887   3.157  14.751  1.1360 -0.1638  0.5274
10797TIP3    H253807   1.777   3.054  14.742 -0.2060  1.3371 -1.1464
10798TIP3   OH253808   0.049   4.224   3.507  0.8394  0.1192 -0.1849
10798TIP3    H153809   0.013   4.215   3.419 -1.7413  0.4158  0.7805
10798TIP3    H253810   0.136   4.263   3.493  0.3217  0.5761 -2.5427
10799TIP3   OH253811   0.210   1.662  13.384  0.3173 -0.7742 -0.0234
10799TIP3    H153812   0.262   1.622  13.453 -0.3904 -2.2187 -0.2835
10799TIP3    H253813   0.247   1.627  13.303  0.1443 -0.3267 -0.3000
10800TIP3   OH253814   5.775   6.074  13.428 -0.3101  0.0347  0.6073
10800TIP3    H153815   5.791   6.168  13.424 -0.3427  0.0562  0.9560
10800TIP3    H253816   5.801   6.041  13.341 -0.6204  0.4105  0.3713
10801TIP3   OH253817   4.254   5.910  16.511 -0.0528 -0.9089  0.0038
10801TIP3    H153818   4.202   5.838  16.475  0.6170 -0.1445 -2.7615
10801TIP3    H253819   4.194   5.960  16.565 -1.3024 -1.8627 -0.4684
10802TIP3   OH253820   4.902   1.397  16.763 -0.1109  0.0218  0.2668
10802TIP3    H153821   4.884   1.320  16.817 -0.9932  0.5142  0.6938
10802TIP3    H253822   4.815   1.427  16.734  0.0149  2.0504  1.7838
10803TIP3   OH253823   0.693   0.807  17.067  0.2168  0.1004  0.3606
10803TIP3    H153824   0.676   0.756  16.988  1.1919  1.8006 -1.0033
10803TIP3    H253825   0.612   0.857  17.081  0.4434  0.6559 -0.2570
10804TIP3   OH253826   1.868   5.239  12.585 -0.0243  0.1570  0.0406
10804TIP3    H153827   1.899   5.268  12.499  0.3002 -1.1819 -0.3178
10804TIP3    H253828   1.844   5.147  12.572 -0.1605 -0.0092  1.3315
10805TIP3   OH253829   2.849   4.837   1.766  0.2212 -0.0008 -0.1948
10805TIP3    H153830   2.754   4.831   1.756  0.1164 -0.0763  0.7733
10805TIP3    H253831   2.879   4.746   1.761  0.2557  0.0246 -0.5182
10806TIP3   OH253832   4.021   4.392  11.377  0.2310 -0.1496  0.3338
10806TIP3    H153833   3.953   4.441  11.422  0.5064 -1.0158  1.7773
10806TIP3    H253834   3.976   4.350  11.303 -0.4112  0.6838  0.2465
10807TIP3   OH253835   1.269   1.539   5.871  0.6000 -0.5568 -0.1482
10807TIP3    H153836   1.274   1.553   5.776  1.7930 -0.0480 -0.0341
10807TIP3    H253837   1.264   1.444   5.881 -0.0508 -0.5929 -0.7353
10808TIP3   OH253838   6.327   3.477   1.093  0.0246  0.3218 -0.5634
10808TIP3    H153839   6.324   3.565   1.056  0.9147  0.6454  0.0948
10808TIP3    H253840   6.267   3.480   1.168  1.0724  0.7953  0.2909
10809TIP3   OH253841   3.868   0.800   1.047  0.0651  0.2339 -0.2013
10809TIP3    H153842   3.856   0.705   1.038 -0.5247  0.2877 -0.0151
10809TIP3    H253843   3.884   0.813   1.140  0.5221  0.2813 -0.2836
10810TIP3   OH253844   1.030   3.621   1.038 -0.8794 -0.0874  0.2980
10810TIP3    H153845   0.989   3.609   0.953 -0.0205 -1.8702  0.0899
10810TIP3    H253846   1.121   3.596   1.025 -0.6310  0.0275  1.6343
10811TIP3   OH253847   6.554   6.089   5.546 -0.4218 -0.2867 -0.3828
10811TIP3    H153848   6.464   6.113   5.523 -0.7252 -0.6023  0.4066
10811TIP3    H253849   6.599   6.173   5.558 -1.2718 -0.0538  1.6084
10812TIP3   OH253850   4.837   5.948  12.520 -1.0053  0.1305 -0.0834
10812TIP3    H153851   4.889   6.028  12.532  0.0207 -0.6353  0.8675
10812TIP3    H253852   4.855   5.922  12.430 -1.0697  0.7699 -0.2915
10813TIP3   OH253853   0.418   0.836  14.690  0.3997 -0.9032  0.2289
10813TIP3    H153854   0.398   0.756  14.740  1.0080 -0.7049  0.8043
10813TIP3    H253855   0.356   0.834  14.617 -0.1833 -1.4584  0.7161
10814TIP3   OH253856   6.451   0.799   1.787 -0.1724  0.1651 -0.3926
10814TIP3    H153857   6.412   0.736   1.846 -0.8041 -1.1696 -2.1656
10814TIP3    H253858   6.528   0.831   1.834 -1.5024  0.3522  1.7675
10815TIP3   OH253859   4.339   3.224   5.218 -0.1356  0.2558 -0.1929
10815TIP3    H153860   4.284   3.181   5.283 -1.6616 -1.1108 -2.2507
10815TIP3    H253861   4.283   3.290   5.178  0.3921  0.3176 -0.8597
10816TIP3   OH253862   2.635   4.038  15.444 -0.3585  0.2332 -0.2497
10816TIP3    H153863   2.544   4.015  15.422 -0.4273  0.4208 -0.1698
10816TIP3    H253864   2.628   4.081  15.529 -0.1458 -0.1069 -0.0614
10817TIP3   OH253865   3.952   1.046  16.307  0.1795  0.3613 -0.5323
10817TIP3    H153866   3.969   1.096  16.387  0.9020  1.2969 -1.2325
10817TIP3    H253867   4.038   1.014  16.281 -0.3037 -1.4596  0.0067
10818TIP3   OH253868   5.994   6.500  16.728  0.2601 -0.0818  0.1636
10818TIP3    H153869   5.933   6.466  16.662  0.6845 -0.2008 -0.1711
10818TIP3    H253870   5.981   6.594  16.727  0.9106 -0.0000 -0.7336
10819TIP3   OH253871   2.889   1.684  12.717  0.6899 -0.1233 -0.0977
10819TIP3    H153872   2.971   1.642  12.691 -0.0649 -1.6905 -0.0409
10819TIP3    H253873   2.828   1.662  12.648 -0.1138 -0.3954  0.6767
10820TIP3   OH253874   2.882   4.439  16.044 -0.0830  0.6420  0.2741
10820TIP3    H153875   2.821   4.440  16.118  0.3850  1.1545  0.6538
10820TIP3    H253876   2.938   4.516  16.057  0.5375  0.2754 -0.1677
10821TIP3   OH253877   0.196   1.801   4.009 -0.5488 -0.2304 -0.7145
10821TIP3    H153878   0.217   1.810   3.916 -1.4572  2.2763 -0.7693
10821TIP3    H253879   0.174   1.890   4.037 -0.8656 -1.0109  1.7786
10822TIP3   OH253880   1.474   6.150  12.242 -0.2589  0.7013 -0.2401
10822TIP3    H153881   1.481   6.055  12.241 -1.4498  0.6004 -1.6929
10822TIP3    H253882   1.449   6.174  12.153 -1.9526  2.1955  0.5703
10823TIP3   OH253883   0.305   4.259   1.327  0.7937  0.3030 -0.1787
10823TIP3    H153884   0.373   4.194   1.342 -1.8273 -2.1090  2.5700
10823TIP3    H253885   0.352   4.343   1.322  3.9779 -1.3100  0.3717
10824TIP3   OH253886   2.280   6.105  15.277 -0.3621  0.3514  0.3697
10824TIP3    H153887   2.272   6.091  15.182 -2.3111  0.5212  0.4563
10824TIP3    H253888   2.373   6.092  15.296 -0.0766 -0.5349 -1.4265
10825TIP3   OH253889   0.472   1.014   2.682 -0.0216  0.0560 -0.3547
10825TIP3    H153890   0.383   1.041   2.704 -0.0795 -0.7784  0.4855
10825TIP3    H253891   0.471   1.002   2.587 -0.4847  1.1532 -0.5083
10826TIP3   OH253892   5.115   1.490  13.628 -0.0382  0.5195 -0.8664
10826TIP3    H153893   5.185   1.492  13.693 -1.4461  1.0003  0.7095
10826TIP3    H253894   5.108   1.398  13.602  0.8263  0.3916 -0.6678
10827TIP3   OH253895   2.063   5.097  15.962  0.2700  0.9789  0.2678
10827TIP3    H153896   2.126   5.165  15.938  1.3898 -0.4150 -0.9551
10827TIP3    H253897   2.107   5.048  16.032  0.4711  0.1554 -0.4148
10828TIP3   OH253898   5.562   2.485  16.274 -0.3837 -0.4049  0.1634
10828TIP3    H153899   5.483   2.538  16.288 -0.1818 -0.1294  0.2539
10828TIP3    H253900   5.600   2.475  16.361 -1.2375 -1.9875  0.3951
10829TIP3   OH253901   3.283   1.861   4.188 -0.5356  0.4717  0.2125
10829TIP3    H153902   3.214   1.824   4.132 -0.1283 -2.2457  1.3579
10829TIP3    H253903   3.294   1.951   4.156 -2.9761  0.2641 -1.5035
10830TIP3   OH253904   6.409   1.517  13.000  0.2123 -0.0312 -0.1062
10830TIP3    H153905   6.384   1.601  13.039 -0.3004 -0.1722 -0.1175
10830TIP3    H253906   6.491   1.534  12.954 -0.2915  0.6618 -0.7769
10831TIP3   OH253907   6.025   4.531  13.778  0.0349 -0.1098 -0.7081
10831TIP3    H153908   6.114   4.550  13.749  0.4164 -1.9012 -0.8511
10831TIP3    H253909   6.025   4.436  13.794 -1.5797  0.0154  0.2270
10832TIP3   OH253910   0.055   2.376   3.495 -0.2188 -0.6901  0.5477
10832TIP3    H153911   0.004   2.324   3.557 -1.9567 -0.2853 -0.4560
10832TIP3    H253912   0.124   2.416   3.547 -1.7986 -0.1055  2.3056
10833TIP3   OH253913   2.065   3.592  15.000 -0.2478  0.4281  0.3153
10833TIP3    H153914   2.099   3.535  14.932 -0.8692  0.6309 -0.1764
10833TIP3    H253915   1.977   3.559  15.017  0.2896 -0.3081  1.8176
10834TIP3   OH253916   2.927   3.635  13.524  0.0265  0.0576  0.6237
10834TIP3    H153917   2.991   3.706  13.520  1.1146 -0.9213  0.1452
10834TIP3    H253918   2.867   3.661  13.593  0.6045  1.2839  0.6829
10835TIP3   OH253919   1.841   2.991   0.204  1.2892 -0.4149  0.1828
10835TIP3    H153920   1.896   3.035   0.139  1.7547  0.6388  1.2468
10835TIP3    H253921   1.897   2.984   0.281  0.0243  0.4532  1.2188
10836TIP3   OH253922   5.311   3.739   0.291  0.2579 -0.2631 -0.3562
10836TIP3    H153923   5.220   3.708   0.289  0.9923 -3.0540  2.3280
10836TIP3    H253924   5.309   3.813   0.351 -0.1124 -1.0187  0.5908
10837TIP3   OH253925   6.013   2.587  16.051  0.3307  0.6035 -0.0432
10837TIP3    H153926   5.985   2.674  16.022 -0.2907  0.2678 -0.4599
10837TIP3    H253927   5.932   2.539  16.068  0.6368 -0.2482 -0.8920
10838TIP3   OH253928   5.444   6.718  14.483  0.0690 -0.9183 -0.4260
10838TIP3    H153929   5.476   6.791  14.431  1.7151 -1.9839 -0.9885
10838TIP3    H253930   5.450   6.748  14.573  0.0048 -0.0958 -0.6904
10839TIP3   OH253931   6.280   1.370   4.520  0.0391  0.0443  0.7170
10839TIP3    H153932   6.345   1.335   4.581  0.5786  1.9186  1.3013
10839TIP3    H253933   6.322   1.363   4.434 -0.2139 -1.4539  0.6902
10840TIP3   OH253934   1.751   6.494   4.575  0.0478  0.1063 -0.0442
10840TIP3    H153935   1.666   6.510   4.533 -0.0589  0.1589  0.1935
10840TIP3    H253936   1.729   6.453   4.659  0.2575  0.1213  0.0174
10841TIP3   OH253937   3.552   1.436   4.280  0.4301  0.4957  0.3889
10841TIP3    H153938   3.528   1.529   4.280 -2.5408 -0.1473 -1.2156
10841TIP3    H253939   3.495   1.397   4.346  0.8353 -0.3894  0.2241
10842TIP3   OH253940   2.374   6.294   5.720  0.5610 -0.1232  0.4993
10842TIP3    H153941   2.401   6.252   5.801 -0.6341  0.3341  1.1625
10842TIP3    H253942   2.365   6.223   5.657  0.1643 -0.6644  1.1526
10843TIP3   OH253943   4.910   0.030   3.747 -0.0894  0.1478  0.2295
10843TIP3    H153944   4.944   0.058   3.832 -4.9761  2.9913  1.6652
10843TIP3    H253945   4.870  -0.055   3.763  1.7361 -0.8330 -0.1803
10844TIP3   OH253946   4.036   4.102   1.793  0.3289  0.3162  0.1461
10844TIP3    H153947   4.020   4.168   1.861  2.4468  0.6162  0.4028
10844TIP3    H253948   4.009   4.019   1.834  0.1651  0.6820  0.7999
10845TIP3   OH253949   3.724   4.015  13.986  0.7377  0.1630 -0.1502
10845TIP3    H153950   3.787   4.078  13.949  0.5686  0.1554 -0.4494
10845TIP3    H253951   3.773   3.970  14.055  1.0968  0.0803 -0.4569
10846TIP3   OH253952   6.111   2.693  13.885 -0.3113  0.1352 -0.3473
10846TIP3    H153953   6.069   2.745  13.954  0.0912 -0.5551  0.4401
10846TIP3    H253954   6.149   2.758  13.825  0.9122  0.7824  1.0612
10847TIP3   OH253955   0.669   2.299  15.250  0.2251  0.2078 -0.0933
10847TIP3    H153956   0.742   2.354  15.279  0.1996  1.8500 -2.7786
10847TIP3    H253957   0.592   2.338  15.291  0.2785  1.9568 -1.5230
10848TIP3   OH253958   0.404   6.730  11.608  0.7720 -0.1268 -0.5043
10848TIP3    H153959   0.368   6.780  11.535 -0.2666  1.3869  0.9756
10848TIP3    H253960   0.497   6.718  11.585  0.5556  0.6321 -1.8732
10849TIP3   OH253961   6.073   4.210   4.940 -0.4013  0.3302  0.5375
10849TIP3    H153962   6.116   4.201   5.025 -0.2375 -1.1415  0.3115
10849TIP3    H253963   6.104   4.136   4.888  0.2175  1.6646 -1.1457
10850TIP3   OH253964   2.780   1.767  11.418 -0.2008  0.1892 -0.3963
10850TIP3    H153965   2.699   1.730  11.382 -0.0339 -0.3227 -0.2599
10850TIP3    H253966   2.755   1.797  11.506 -0.0689 -0.6866 -0.0454
10851TIP3   OH253967   2.875   5.256  11.039  0.2447  0.2803  0.1718
10851TIP3    H153968   2.919   5.186  10.991  0.8655 -0.6095  1.9595
10851TIP3    H253969   2.929   5.333  11.025 -0.9538  0.7368 -2.6078
10852TIP3   OH253970   3.420   1.378   2.758 -0.9361  0.2436  0.0422
10852TIP3    H153971   3.427   1.333   2.673 -0.7911 -0.0131  0.1896
10852TIP3    H253972   3.447   1.312   2.822  0.1372  0.8181  0.1927
10853TIP3   OH253973   0.240   0.400  16.001  0.1974  0.1416  0.8280
10853TIP3    H153974   0.191   0.472  15.960  0.8870 -0.3970 -1.0172
10853TIP3    H253975   0.331   0.418  15.980  0.3892 -1.1779  0.4621
10854TIP3   OH253976   2.088   6.262  17.095  0.3389  0.4491 -0.1564
10854TIP3    H153977   2.056   6.336  17.147  0.0582  1.7446 -2.0728
10854TIP3    H253978   2.182   6.260  17.114  0.1552  0.5206  0.8264
10855TIP3   OH253979   2.167   5.758  16.096 -0.4452  0.0644 -0.1004
10855TIP3    H153980   2.201   5.840  16.133  1.9305 -1.1181  0.5095
10855TIP3    H253981   2.193   5.691  16.159 -1.4720 -1.3176 -1.0978
10856TIP3   OH253982   2.589   0.478  13.725  0.5300  0.1578  0.2905
10856TIP3    H153983   2.622   0.467  13.814  0.0655  1.6578  0.6843
10856TIP3    H253984   2.667   0.490  13.671  0.7761  0.3501  0.6852
10857TIP3   OH253985   1.710   2.901  16.640  0.1768 -0.2255  0.5094
10857TIP3    H153986   1.792   2.900  16.690 -0.6642 -0.4594  1.9324
10857TIP3    H253987   1.662   2.977  16.674  0.1316  0.4092 -0.9037
10858TIP3   OH253988   0.573   4.601  11.214 -0.1397  0.1178  0.1305
10858TIP3    H153989   0.606   4.630  11.129  0.5425  0.3951  0.4899
10858TIP3    H253990   0.565   4.681  11.266  0.6067 -0.1783  0.7275
10859TIP3   OH253991   1.478   4.139  13.422 -0.5836  0.2572 -0.1467
10859TIP3    H153992   1.487   4.051  13.387 -0.9996  0.6609 -1.3162
10859TIP3    H253993   1.384   4.152  13.431 -0.5031  0.2940  0.8371
10860TIP3   OH253994   5.504   6.147  11.359 -0.4051 -0.3617 -0.2377
10860TIP3    H153995   5.484   6.084  11.429  2.3420 -1.0351  0.0277
10860TIP3    H253996   5.421   6.193  11.345 -1.0120  0.2434  3.8942
10861TIP3   OH253997   3.897   6.302  16.203 -0.2695  0.4411  0.5274
10861TIP3    H153998   3.880   6.392  16.231  0.8233  0.3282  1.6484
10861TIP3    H253999   3.811   6.261  16.201 -0.6653  1.2191  1.0709
10862TIP3   OH254000   0.042   6.689   4.798 -0.3007 -0.3108  0.0463
10862TIP3    H154001  -0.016   6.738   4.856  0.4866 -0.9938  1.4868
10862TIP3    H254002   0.121   6.675   4.851  1.0508  0.3174 -1.7378
10863TIP3   OH254003   6.648   6.759   0.280  0.0735 -0.5884 -0.5301
10863TIP3    H154004   6.670   6.801   0.196 -2.3196 -0.2581 -1.0585
10863TIP3    H254005   6.553   6.757   0.281  0.0354 -0.3878  2.3177
10864TIP3   OH254006   0.513   0.791   2.291 -0.3348 -0.0867  0.6639
10864TIP3    H154007   0.577   0.799   2.362  0.7941 -0.6551 -0.2554
10864TIP3    H254008   0.529   0.704   2.255 -0.2255  0.5526 -0.9027
10865TIP3   OH254009   1.905   1.584  14.006  0.6428  0.2213 -0.2238
10865TIP3    H154010   1.862   1.606  13.923  0.9599 -1.1662 -0.7791
10865TIP3    H254011   1.963   1.511  13.985  2.1714  1.0689  0.8404
10866TIP3   OH254012   1.079   4.600  14.271 -0.6360 -0.5620 -0.5065
10866TIP3    H154013   1.012   4.549  14.316  1.2320 -1.6374  1.1731
10866TIP3    H254014   1.129   4.535  14.221  0.8125 -0.2091  0.4274
10867TIP3   OH254015   1.343   3.527  14.324 -0.6543 -0.3114  0.6520
10867TIP3    H154016   1.354   3.437  14.354 -2.1052 -0.0560  2.0597
10867TIP3    H254017   1.371   3.525  14.233 -1.9139 -2.5081  0.2385
10868TIP3   OH254018   2.732   1.660   1.392 -0.4686 -0.2736  0.3263
10868TIP3    H154019   2.695   1.724   1.331  0.0371 -0.6748 -0.4133
10868TIP3    H254020   2.664   1.592   1.398 -0.4318 -0.3366  0.0441
10869TIP3   OH254021   4.588   2.989  13.488  0.3598 -0.1048  0.2872
10869TIP3    H154022   4.520   2.924  13.474 -0.5998  1.0610 -0.7738
10869TIP3    H254023   4.670   2.940  13.483 -0.3104 -1.1629 -1.0243
10870TIP3   OH254024   2.331   4.083   3.298 -0.4146  0.0218 -0.1523
10870TIP3    H154025   2.358   4.152   3.239  0.5181  0.0852  0.3339
10870TIP3    H254026   2.236   4.078   3.288 -0.1589 -1.0185 -2.8001
10871TIP3   OH254027   6.651   1.253   4.489  0.1267  0.4195 -0.4659
10871TIP3    H154028   6.609   1.186   4.543  0.1055  0.6970 -0.1359
10871TIP3    H254029   6.610   1.243   4.403 -0.0607  0.1808 -0.3501
10872TIP3   OH254030   3.087   1.016  11.712  0.4307 -0.2439  0.0572
10872TIP3    H154031   3.025   1.004  11.641 -0.0299 -1.3721  0.6280
10872TIP3    H254032   3.116   0.927  11.734  0.8630  0.1191  1.0152
10873TIP3   OH254033   2.477   4.848   2.755  0.6078  1.1891  0.2033
10873TIP3    H154034   2.535   4.782   2.715  0.7614  1.5734 -0.2251
10873TIP3    H254035   2.467   4.915   2.687 -2.6216 -0.1800 -0.8216
10874TIP3   OH254036   5.931   0.511   2.494  0.0502 -0.1392 -0.1461
10874TIP3    H154037   5.939   0.579   2.561  1.5493 -0.7837  0.3887
10874TIP3    H254038   5.980   0.437   2.530  0.6388 -0.6063 -1.8384
10875TIP3   OH254039   3.118   5.910   0.647  0.1419  0.4367  0.4443
10875TIP3    H154040   3.159   5.824   0.645  0.7498  0.7287 -0.5599
10875TIP3    H254041   3.082   5.921   0.559 -0.8370  0.7839  0.8841
10876TIP3   OH254042   4.536   5.199  11.910  0.4009  0.3349  0.3804
10876TIP3    H154043   4.557   5.116  11.952 -0.1657 -0.2588 -0.4721
10876TIP3    H254044   4.440   5.199  11.904  0.4816 -0.4547 -2.5016
10877TIP3   OH254045   3.349   2.385   0.784  0.3284 -0.3080  0.2254
10877TIP3    H154046   3.360   2.304   0.734  1.7948  0.6760 -1.1313
10877TIP3    H254047   3.353   2.454   0.718 -0.6941  0.9074  1.3829
10878TIP3   OH254048   6.588   2.563  15.655  0.5444  0.2039 -0.2325
10878TIP3    H154049   6.561   2.652  15.632  0.5044 -0.0887 -1.3389
10878TIP3    H254050   6.663   2.575  15.714  2.2935  0.9891 -2.4664
10879TIP3   OH254051   5.216   1.476  15.684  0.1531 -0.5844  0.1215
10879TIP3    H154052   5.176   1.427  15.756 -0.4430  1.3039  1.1381
10879TIP3    H254053   5.142   1.503  15.630  0.3580  0.0428  0.1464
10880TIP3   OH254054   1.571   0.240   5.109  0.4759  0.3914 -0.0503
10880TIP3    H154055   1.487   0.208   5.143  0.8494  0.3565  0.8663
10880TIP3    H254056   1.562   0.233   5.014 -0.3058 -0.2589  0.0558
10881TIP3   OH254057   5.161   2.767   3.319 -0.0350  0.1773  0.6944
10881TIP3    H154058   5.077   2.726   3.297  0.5026 -0.5086 -0.1026
10881TIP3    H254059   5.175   2.832   3.250  0.5665 -0.3990  0.2735
10882TIP3   OH254060   5.869   1.039  17.170  0.3818 -0.8630  0.0189
10882TIP3    H154061   5.845   1.124  17.132  2.7799 -0.1939 -0.1456
10882TIP3    H254062   5.816   1.033  17.250  0.1044  0.7463 -0.0164
10883TIP3   OH254063   2.382   1.407   4.075  0.1205 -0.8920 -0.2538
10883TIP3    H154064   2.472   1.375   4.080  0.0310 -1.1727 -0.4511
10883TIP3    H254065   2.335   1.340   4.027 -0.2362 -0.8338  0.0066
10884TIP3   OH254066   5.119   0.670  12.509 -0.2051 -0.0191  0.5518
10884TIP3    H154067   5.183   0.729  12.549  0.4181 -1.1445  1.2991
10884TIP3    H254068   5.172   0.595  12.479 -0.8594  0.1577 -1.1297
10885TIP3   OH254069   2.266   4.048   5.392  0.0562  0.0273 -0.1614
10885TIP3    H154070   2.308   4.046   5.478 -0.3801 -0.4474  0.0493
10885TIP3    H254071   2.184   3.999   5.404  0.3418 -0.6896 -1.0379
10886TIP3   OH254072   6.678   1.152  15.945 -0.5135  0.6211  0.1834
10886TIP3    H154073   6.741   1.161  15.873 -0.8813  0.8508 -0.1117
10886TIP3    H254074   6.674   1.239  15.985 -1.0784  0.7627 -0.1676
10887TIP3   OH254075   3.414   4.018   0.077 -0.1879 -0.3252 -0.7497
10887TIP3    H154076   3.390   4.094   0.026  0.2455  0.1163 -0.3051
10887TIP3    H254077   3.503   3.996   0.049  0.0936 -0.0169 -0.1251
10888TIP3   OH254078   5.127   1.696  12.497 -0.1435 -0.2144 -0.1652
10888TIP3    H154079   5.218   1.669  12.509  0.1084  0.7140  0.1109
10888TIP3    H254080   5.077   1.615  12.505  0.5252 -0.5327  1.2410
10889TIP3   OH254081   3.769   0.971  16.526  0.0038  0.3149 -0.0101
10889TIP3    H154082   3.743   0.983  16.435  2.6898 -1.3923 -1.1050
10889TIP3    H254083   3.865   0.967  16.524  0.1084 -0.9345  2.7297
10890TIP3   OH254084   5.692   6.597   5.975  0.1399  0.3105 -0.3496
10890TIP3    H154085   5.688   6.692   5.972  0.2482  0.3253 -0.0711
10890TIP3    H254086   5.635   6.573   6.048 -0.4004  0.1222 -0.8246
10891TIP3   OH254087   2.630   2.637   4.936 -0.3786 -0.1482  0.5365
10891TIP3    H154088   2.706   2.601   4.891  0.1740 -0.2733  1.5677
10891TIP3    H254089   2.646   2.621   5.029 -0.7802  1.4728  0.9179
10892TIP3   OH254090   0.987   1.180  13.463  0.2276  0.2027  0.0907
10892TIP3    H154091   0.993   1.275  13.474 -1.0739  0.3568 -0.3751
10892TIP3    H254092   0.923   1.168  13.394  0.0195 -1.0370  0.4748
10893TIP3   OH254093   1.558   6.413  16.396  0.0359 -0.2263 -0.0972
10893TIP3    H154094   1.544   6.377  16.483  0.7047  0.7516  0.4321
10893TIP3    H254095   1.507   6.494  16.396 -1.0663 -0.8752 -1.1039
10894TIP3   OH254096   4.721   1.771   4.217  0.6701 -0.4019  0.5245
10894TIP3    H154097   4.688   1.811   4.298  0.6307  0.4099  0.1194
10894TIP3    H254098   4.688   1.828   4.147  0.8393 -1.0027 -0.0550
10895TIP3   OH254099   1.626   5.501   4.046 -0.2202 -0.7500 -0.3750
10895TIP3    H154100   1.708   5.504   3.997  0.1396  1.4455  0.2544
10895TIP3    H254101   1.558   5.520   3.981  0.2297  1.9006 -0.1612
10896TIP3   OH254102   0.331   2.945  15.126  0.5466 -0.4762 -0.4510
10896TIP3    H154103   0.331   2.875  15.191  0.8862 -0.9868 -1.0019
10896TIP3    H254104   0.238   2.965  15.112  0.3241 -2.4020 -1.9978
10897TIP3   OH254105   0.019   3.488  16.358  0.6929  0.3897 -0.1378
10897TIP3    H154106   0.049   3.417  16.302 -2.3313 -0.0362 -1.4554
10897TIP3    H254107   0.079   3.488  16.432  1.4586 -2.8206 -0.6153
10898TIP3   OH254108   5.459   4.502   3.393 -0.5418  0.3926  0.1693
10898TIP3    H154109   5.552   4.507   3.413 -0.4442  1.6313 -0.4725
10898TIP3    H254110   5.430   4.420   3.432  0.7039  0.2437  0.8305
10899TIP3   OH254111   5.932   6.532   3.946  0.2807  0.2782  0.1462
10899TIP3    H154112   5.950   6.519   3.853  1.1839  1.8310  0.0640
10899TIP3    H254113   5.923   6.627   3.956 -0.7688  0.0635  1.4874
10900TIP3   OH254114   2.204   4.982  16.160  0.4390  0.4157 -0.6632
10900TIP3    H154115   2.266   4.913  16.181  0.1213  0.5522  0.7945
10900TIP3    H254116   2.235   5.058  16.209 -0.7912  0.5140  0.0108
10901TIP3   OH254117   2.896   0.020  12.709 -0.1568 -0.8052  0.0352
10901TIP3    H154118   2.837   0.027  12.634 -1.0067 -0.0746  0.7491
10901TIP3    H254119   2.839  -0.003  12.782  0.5155 -0.6092  0.6286
10902TIP3   OH254120   5.308   6.016  13.014 -0.4595  0.0296 -0.5235
10902TIP3    H154121   5.314   5.943  12.952  0.2712 -0.0675 -0.3509
10902TIP3    H254122   5.359   5.988  13.090 -2.7213 -0.5522  0.8622
10903TIP3   OH254123   2.255   1.625  15.847  0.3693 -0.0427 -0.0279
10903TIP3    H154124   2.178   1.681  15.862  0.8153  0.1915  1.5738
10903TIP3    H254125   2.238   1.548  15.900  0.6808 -0.5521 -0.6647
10904TIP3   OH254126   0.881   4.270   4.203  0.5332  0.2050 -0.0793
10904TIP3    H154127   0.958   4.289   4.149 -0.0000 -0.5453 -1.1308
10904TIP3    H254128   0.834   4.202   4.155  0.0567 -0.5293  1.3655
10905TIP3   OH254129   2.267   1.892  13.093 -0.5072 -0.3234  0.0626
10905TIP3    H154130   2.330   1.831  13.054  0.9716 -0.2746  2.1893
10905TIP3    H254131   2.263   1.867  13.185  0.1515  2.6754  1.0370
10906TIP3   OH254132   5.474   0.428  17.022 -0.3699  0.4469 -0.2382
10906TIP3    H154133   5.547   0.394  16.970  0.1437  1.1955 -0.0240
10906TIP3    H254134   5.395   0.401  16.974 -0.0843 -2.4970  0.7824
10907TIP3   OH254135   3.330   3.855   4.286 -0.4003 -0.2074 -0.4699
10907TIP3    H154136   3.388   3.931   4.285 -0.2439 -0.2374  1.6420
10907TIP3    H254137   3.246   3.888   4.317  0.2973 -1.1869  2.8041
10908TIP3   OH254138   0.839   0.512   3.665 -0.3423 -0.1182 -0.4747
10908TIP3    H154139   0.806   0.432   3.706 -0.5247 -0.1173 -0.6210
10908TIP3    H254140   0.912   0.483   3.610 -0.6264 -0.2310 -0.7949
10909TIP3   OH254141   2.527   2.502  11.554  0.4160 -0.2617  0.5103
10909TIP3    H154142   2.551   2.448  11.629 -1.7970 -1.6920  0.2963
10909TIP3    H254143   2.514   2.590  11.590  1.3870 -0.4574  1.3877
10910TIP3   OH254144   1.962   6.328  15.656 -0.5796 -0.5718  0.3222
10910TIP3    H154145   1.932   6.278  15.732  0.4410 -0.1430  1.0360
10910TIP3    H254146   2.037   6.279  15.623  0.8568  0.7647  1.4372
10911TIP3   OH254147   6.570   4.206  16.925  0.3311  0.0675  0.0410
10911TIP3    H154148   6.507   4.217  16.996 -0.1148 -1.9512  0.0264
10911TIP3    H254149   6.518   4.169  16.853  1.7159 -3.1692  0.5492
10912TIP3   OH254150   3.003   6.396   1.266  0.1151  0.0777 -0.4058
10912TIP3    H154151   3.089   6.365   1.295 -0.5040 -1.2150  0.1354
10912TIP3    H254152   3.011   6.402   1.171 -0.1405 -3.3344 -0.7582
10913TIP3   OH254153   5.554   3.872  16.374 -0.0109 -0.2248 -0.0563
10913TIP3    H154154   5.501   3.846  16.299 -0.7030  2.4218 -0.5914
10913TIP3    H254155   5.641   3.838  16.355 -0.0999  0.5749 -2.2488
10914TIP3   OH254156   1.496   1.245  13.039  0.1277  0.6073 -0.3841
10914TIP3    H154157   1.539   1.166  13.008 -0.3195 -0.0530  0.6261
10914TIP3    H254158   1.451   1.218  13.120 -1.3209  1.5095 -0.8460
10915TIP3   OH254159   1.279   2.662   5.611  0.0866 -0.2038  0.0376
10915TIP3    H154160   1.224   2.710   5.673  2.2058 -0.3656  2.2024
10915TIP3    H254161   1.292   2.722   5.538 -3.0460 -0.2582 -0.6980
10916TIP3   OH254162   2.935   0.778  10.731 -0.3637 -0.2347 -0.4934
10916TIP3    H154163   2.986   0.711  10.776 -1.8788 -0.7195  0.5661
10916TIP3    H254164   2.921   0.744  10.643  1.1871 -0.0441 -0.8403
10917TIP3   OH254165   1.399   0.287  15.089  0.1737 -0.7175 -0.1158
10917TIP3    H154166   1.420   0.209  15.140 -0.8400 -0.9434 -0.0191
10917TIP3    H254167   1.311   0.311  15.117 -1.1593 -1.8337 -2.9061
10918TIP3   OH254168   6.662   2.039   0.512  0.2014  0.3835 -0.0882
10918TIP3    H154169   6.639   2.092   0.435 -0.5046 -0.0268 -0.1692
10918TIP3    H254170   6.610   2.077   0.583  1.0532  0.9297  0.2544
10919TIP3   OH254171   5.307   1.184   2.028  0.5877  0.0713 -0.1193
10919TIP3    H154172   5.358   1.165   2.106 -1.5105 -2.2959  0.8025
10919TIP3    H254173   5.234   1.238   2.059 -0.7947 -1.6927 -0.1843
10920TIP3   OH254174   2.985   3.816  11.370  0.4648 -0.1385 -0.0530
10920TIP3    H154175   2.901   3.861  11.371  0.0994 -0.7243 -1.5910
10920TIP3    H254176   3.042   3.873  11.318  0.6757 -0.2965  0.0021
10921TIP3   OH254177   1.015   4.120  11.937 -0.4747  0.3210 -0.6041
10921TIP3    H154178   1.058   4.066  11.871 -1.4030 -2.3623  0.8132
10921TIP3    H254179   0.921   4.101  11.926 -0.7947  1.2862  0.2683
10922TIP3   OH254180   1.673   3.368   0.858  0.4920 -0.5872 -0.0689
10922TIP3    H154181   1.608   3.308   0.821  0.0687  0.1525 -0.5689
10922TIP3    H254182   1.730   3.390   0.785 -0.1076  0.5741 -0.2206
10923TIP3   OH254183   3.657   3.996   3.532  0.3031  0.0651  0.0566
10923TIP3    H154184   3.575   3.949   3.518  0.2552 -0.0860  0.7918
10923TIP3    H254185   3.723   3.927   3.545  0.8411  0.1518 -1.9558
10924TIP3   OH254186   0.242   2.554   2.052  0.1765 -0.6711  0.1936
10924TIP3    H154187   0.326   2.594   2.031  0.3067 -0.8061  0.4540
10924TIP3    H254188   0.257   2.509   2.135  0.8713 -3.7729 -1.4477
10925TIP3   OH254189   2.596   1.957  15.968 -0.5682 -0.7201 -0.3704
10925TIP3    H154190   2.528   1.896  15.996  0.4892 -0.6760  2.6791
10925TIP3    H254191   2.677   1.922  16.005  0.9857 -0.1790 -2.9632
10926TIP3   OH254192   6.180   0.012   2.195 -0.4781 -0.4368  0.0887
10926TIP3    H154193   6.184  -0.037   2.114 -1.0458  0.4887 -0.5175
10926TIP3    H254194   6.099   0.062   2.189 -0.2091  0.1290  0.9420
10927TIP3   OH254195   5.627   2.151  12.837  0.3545  0.0776 -0.6453
10927TIP3    H154196   5.623   2.217  12.768 -1.7265  0.5157 -0.1558
10927TIP3    H254197   5.720   2.130  12.844  0.9283  2.0164 -1.7010
10928TIP3   OH254198   2.558   4.180  13.998  0.0266  0.6220  0.4293
10928TIP3    H154199   2.555   4.085  13.984 -1.1259  0.6022  0.6450
10928TIP3    H254200   2.640   4.208  13.960  0.5944 -0.5315  0.7599
10929TIP3   OH254201   2.350   5.169  16.312  0.2106  0.5943  0.1396
10929TIP3    H154202   2.442   5.182  16.290  0.7967 -0.6973  1.6387
10929TIP3    H254203   2.342   5.204  16.401 -0.8106  0.8488 -0.0407
10930TIP3   OH254204   0.458   4.152   2.837  0.0551  0.0090  0.0874
10930TIP3    H154205   0.553   4.142   2.846  0.1183  1.0122  0.7874
10930TIP3    H254206   0.424   4.063   2.834  1.0371 -0.3641 -0.4148
10931TIP3   OH254207   3.557   0.430   2.086  0.3890  0.6486 -0.6350
10931TIP3    H154208   3.634   0.404   2.035 -0.7783 -0.0812 -2.1054
10931TIP3    H254209   3.535   0.353   2.138  0.2127  0.6113 -0.7664
10932TIP3   OH254210   3.734   6.002  13.687  0.3671 -0.2538  0.5908
10932TIP3    H154211   3.794   6.047  13.628 -1.6504  2.4351  0.4067
10932TIP3    H254212   3.648   6.013  13.646 -0.5885 -1.8944  2.0233
10933TIP3   OH254213   2.994   0.550  14.756 -0.0479 -0.1349 -0.0973
10933TIP3    H154214   2.940   0.498  14.697 -1.8976 -0.5047  1.7924
10933TIP3    H254215   2.941   0.559  14.836  1.5250  1.9519  0.8197
10934TIP3   OH254216   2.125   3.771  13.572  0.2570 -0.4619  0.8531
10934TIP3    H154217   2.033   3.748  13.566 -0.2983  1.8049 -0.3654
10934TIP3    H254218   2.170   3.705  13.519 -1.0104 -0.0163 -0.8623
10935TIP3   OH254219   3.459   0.408   2.969  0.1549  0.1157  0.9546
10935TIP3    H154220   3.547   0.370   2.965 -0.4973 -1.3940 -1.0156
10935TIP3    H254221   3.418   0.381   2.887 -1.1342  3.4500  0.3385
10936TIP3   OH254222   4.903   0.976   1.523 -0.2710  0.3467  0.6594
10936TIP3    H154223   4.910   1.070   1.506 -0.1546  0.1531 -0.4300
10936TIP3    H254224   4.814   0.954   1.496 -0.3778  0.1782  1.1354
10937TIP3   OH254225   5.825   4.605  12.732  0.6670 -0.2377 -0.4614
10937TIP3    H154226   5.762   4.676  12.718  0.4288  0.1225  1.9601
10937TIP3    H254227   5.867   4.627  12.815  0.9470 -2.6763  0.1124
10938TIP3   OH254228   6.559   1.209   5.986 -0.0322  0.1552  0.0774
10938TIP3    H154229   6.587   1.273   5.921  1.2093  0.0066  0.4527
10938TIP3    H254230   6.539   1.262   6.064 -2.6684  0.4796 -0.6917
10939TIP3   OH254231   5.710   0.074  15.045 -0.4349  0.0246 -0.7136
10939TIP3    H154232   5.741   0.042  15.130 -2.1861  3.3158  1.4148
10939TIP3    H254233   5.786   0.119  15.008 -0.5932  2.1487  1.2458
10940TIP3   OH254234   5.636   2.140   1.724  0.5756  0.5647 -0.2745
10940TIP3    H154235   5.552   2.113   1.762  0.8049 -1.4546 -1.0972
10940TIP3    H254236   5.697   2.141   1.798  0.6850 -1.8864 -0.2510
10941TIP3   OH254237   2.383   5.688   1.661  0.1141  0.3519 -0.0283
10941TIP3    H154238   2.325   5.732   1.724  1.8811  2.1315  0.4880
10941TIP3    H254239   2.471   5.701   1.697  1.0044 -0.5263 -1.7693
10942TIP3   OH254240   2.603   3.006  12.784 -0.1994  0.2935 -0.1758
10942TIP3    H154241   2.664   2.948  12.740 -1.1817 -0.7350 -0.2213
10942TIP3    H254242   2.593   3.081  12.725 -0.0495 -0.1793 -0.8041
10943TIP3   OH254243   3.228   2.885  11.927  0.3880 -0.3023 -0.1399
10943TIP3    H154244   3.319   2.897  11.900  0.1058  0.6731 -0.6985
10943TIP3    H254245   3.182   2.859  11.847  0.1525 -0.6697  0.1112
10944TIP3   OH254246   3.283   0.764   6.050  0.3536  0.9833  0.5071
10944TIP3    H154247   3.279   0.677   6.010 -0.4287  0.7719  1.0426
10944TIP3    H254248   3.309   0.749   6.140  1.3056  1.4030  0.3215
10945TIP3   OH254249   6.694   2.421  14.145  0.7393  0.2764 -0.2696
10945TIP3    H154250   6.615   2.475  14.135  0.5861 -0.2683 -2.4932
10945TIP3    H254251   6.663   2.331  14.141  1.5420  0.0321 -2.7183
10946TIP3   OH254252   4.084   6.075  14.014 -0.0117 -0.3884 -0.0696
10946TIP3    H154253   3.996   6.084  13.978  0.3793  0.2516 -0.9112
10946TIP3    H254254   4.134   6.145  13.972  0.6793 -0.1487  1.1104
10947TIP3   OH254255   2.235   3.354  14.894 -0.0791 -0.6043  0.1540
10947TIP3    H154256   2.258   3.267  14.863 -0.9214 -0.4866 -0.8332
10947TIP3    H254257   2.213   3.342  14.987  0.2011 -1.3515  0.1262
10948TIP3   OH254258   2.472   6.139  10.837  0.3946 -0.0216  0.1993
10948TIP3    H154259   2.555   6.120  10.794  0.0634 -1.5787  0.1846
10948TIP3    H254260   2.496   6.163  10.927  0.9554  1.4519 -0.3078
10949TIP3   OH254261   1.265   6.720   5.681 -0.3883 -0.4394  0.3197
10949TIP3    H154262   1.358   6.739   5.691 -0.1922 -0.2780 -1.4411
10949TIP3    H254263   1.255   6.630   5.713  0.5065 -0.6834 -0.0684
10950TIP3   OH254264   3.289   6.606   5.136 -0.5156 -0.5869 -0.1462
10950TIP3    H154265   3.289   6.537   5.202  1.5820  0.1758  0.7675
10950TIP3    H254266   3.254   6.683   5.182  0.4113 -0.2000 -0.0622
10951TIP3   OH254267   5.880   1.249  15.300 -0.0573  0.6037 -0.1675
10951TIP3    H154268   5.800   1.238  15.352 -0.2410  1.2475 -0.3042
10951TIP3    H254269   5.894   1.164  15.259 -0.3346  0.3101  0.3327
10952TIP3   OH254270   3.693   3.015  12.131  0.4324  0.2566 -0.6240
10952TIP3    H154271   3.729   3.103  12.145  1.2173  0.0972 -1.5327
10952TIP3    H254272   3.762   2.956  12.164 -0.1559 -0.0270  0.1279
10953TIP3   OH254273   0.732   5.048   4.761  0.5066 -0.0338 -0.0882
10953TIP3    H154274   0.779   5.094   4.831 -0.1319  1.4277 -0.5761
10953TIP3    H254275   0.739   5.107   4.686 -0.8372 -0.4733 -0.5745
10954TIP3   OH254276   4.717   2.885   2.649 -0.6052  0.3945  0.1743
10954TIP3    H154277   4.700   2.925   2.563 -0.6938  1.6719  0.7651
10954TIP3    H254278   4.743   2.795   2.628 -0.2775  0.7785 -1.2144
10955TIP3   OH254279   3.628   1.582   3.996  0.4280 -0.2070  0.9393
10955TIP3    H154280   3.550   1.591   4.051  1.9274  0.3563  3.1213
10955TIP3    H254281   3.688   1.528   4.048  0.9216 -2.1105 -1.4080
10956TIP3   OH254282   0.086   0.091  16.196 -0.1850  0.4596  0.4041
10956TIP3    H154283   0.080   0.186  16.203 -1.1166  0.6261 -1.7430
10956TIP3    H254284   0.001   0.059  16.227 -1.4717  0.6925 -2.5372
10957TIP3   OH254285   1.154   1.986  11.640 -0.0703  0.4119  0.4321
10957TIP3    H154286   1.200   1.903  11.626 -0.8115 -0.1429  1.2077
10957TIP3    H254287   1.223   2.047  11.668  0.5920  0.2582 -0.7734
10958TIP3   OH254288   3.433   5.408  12.426 -0.3987  0.0415 -0.3954
10958TIP3    H154289   3.429   5.355  12.506 -0.3924  1.0439  0.2811
10958TIP3    H254290   3.519   5.449  12.428  0.3207 -1.2686 -1.8279
10959TIP3   OH254291   2.449   5.665  10.235 -0.8847  0.2827 -0.3450
10959TIP3    H154292   2.431   5.728  10.305  0.9377  0.2954  0.1670
10959TIP3    H254293   2.543   5.674  10.219 -1.0464 -0.5786 -1.9733
10960TIP3   OH254294   1.138   6.775  16.659  0.5890  0.1863  0.9069
10960TIP3    H154295   1.071   6.708  16.646  1.6850 -0.9906  1.0420
10960TIP3    H254296   1.112   6.819  16.741 -0.0411 -0.2051  0.9245
10961TIP3   OH254297   0.037   0.081  14.024  0.4114  0.0207  0.1182
10961TIP3    H154298   0.025   0.042  14.111 -0.5330  0.2386  0.0987
10961TIP3    H254299   0.066   0.008  13.969  1.5158 -0.0082  0.7169
10962TIP3   OH254300   3.358   3.944   2.670 -0.4983 -0.1959 -0.0336
10962TIP3    H154301   3.372   3.869   2.612 -0.6921  0.5290 -1.0358
10962TIP3    H254302   3.281   3.988   2.635 -1.2905 -0.3523  1.4371
10963TIP3   OH254303   1.073   2.380  12.682  0.1471 -0.3109  0.3663
10963TIP3    H154304   0.987   2.371  12.643  0.3921  1.4359 -0.6884
10963TIP3    H254305   1.133   2.389  12.608  0.6836  2.6714  1.0215
10964TIP3   OH254306   6.518   3.226   5.628  0.1708 -0.3710  0.5623
10964TIP3    H154307   6.605   3.197   5.602  1.9158  1.8227  3.3646
10964TIP3    H254308   6.484   3.155   5.682 -0.0602 -1.4209 -0.8848
10965TIP3   OH254309   3.661   5.661  15.600  0.2646  0.2678 -0.0186
10965TIP3    H154310   3.590   5.597  15.597  0.4425  0.0904 -0.5732
10965TIP3    H254311   3.621   5.739  15.638 -0.0019 -0.1086  0.4875
10966TIP3   OH254312   2.805   0.871   3.484  0.6500  0.3347 -0.0654
10966TIP3    H154313   2.825   0.915   3.567  1.1358  1.9192 -0.9785
10966TIP3    H254314   2.758   0.937   3.433  0.8386 -0.4352 -1.2634
10967TIP3   OH254315   0.027   2.860  12.505 -0.7205 -0.3967 -0.2740
10967TIP3    H154316  -0.068   2.848  12.504 -0.7572 -0.5150  1.4019
10967TIP3    H254317   0.055   2.819  12.587  0.2785  3.0899  1.3064
10968TIP3   OH254318   3.533   5.018   3.777  0.2557  0.0937  0.3100
10968TIP3    H154319   3.593   5.086   3.809  0.3650  0.3603 -0.4374
10968TIP3    H254320   3.462   5.066   3.736 -1.3414 -0.1679  2.5621
10969TIP3   OH254321   0.539   1.820  12.566  0.4045  0.1781  0.0449
10969TIP3    H154322   0.607   1.786  12.508  1.3221  1.6470  0.2154
10969TIP3    H254323   0.467   1.758  12.557  0.7012  0.0803 -2.2756
10970TIP3   OH254324   5.506   3.021   0.043  0.1352 -0.0042  0.0188
10970TIP3    H154325   5.570   3.056  -0.018  0.0568 -1.4528 -0.9390
10970TIP3    H254326   5.492   3.091   0.107  2.4396  0.4563  0.0908
10971TIP3   OH254327   5.632   2.287   0.822  0.2657 -0.3744 -0.5098
10971TIP3    H154328   5.551   2.253   0.784 -1.5619  1.2860  1.6264
10971TIP3    H254329   5.666   2.347   0.756 -0.0360 -1.3385 -1.5755
10972TIP3   OH254330   2.512   5.286  13.329  0.3864 -0.0003  0.1028
10972TIP3    H154331   2.491   5.209  13.382  3.1702 -1.7500 -1.0914
10972TIP3    H254332   2.494   5.259  13.239 -0.2866  1.4186 -0.2097
10973TIP3   OH254333   3.566   0.329  13.136  0.4648 -0.6816  0.2345
10973TIP3    H154334   3.490   0.315  13.192  0.3239 -0.4642  0.1002
10973TIP3    H254335   3.593   0.241  13.109 -0.3811 -0.7023 -0.5747
10974TIP3   OH254336   4.598   0.810   5.664  0.3173  0.1921 -0.2247
10974TIP3    H154337   4.583   0.831   5.572 -2.8881 -1.3909 -0.1680
10974TIP3    H254338   4.532   0.861   5.712  2.7999  2.1132  1.4762
10975TIP3   OH254339   0.251   3.697  15.986 -0.3603 -0.0855 -0.5887
10975TIP3    H154340   0.253   3.768  15.923 -0.5616  0.4300 -0.0242
10975TIP3    H254341   0.175   3.716  16.041 -1.0549 -1.3094 -1.0822
10976TIP3   OH254342   3.042   4.112  14.685  0.0714  0.0603  0.5134
10976TIP3    H154343   2.985   4.160  14.625  1.3078  1.2297  0.2133
10976TIP3    H254344   2.985   4.087  14.758 -1.7442 -2.3595 -1.5578
10977TIP3   OH254345   5.932   3.984  13.984  0.3051 -0.1915 -0.0929
10977TIP3    H154346   6.004   3.935  14.024  1.5494  0.3395 -1.5765
10977TIP3    H254347   5.863   3.918  13.972  2.1963 -1.8840 -2.7078
10978TIP3   OH254348   0.696   1.639   3.665  0.1598 -0.4809 -0.2824
10978TIP3    H154349   0.606   1.618   3.640 -0.1258  0.8935 -0.5048
10978TIP3    H254350   0.725   1.702   3.599  0.3324  1.1134  1.2406
10979TIP3   OH254351   1.299   0.008   0.481  0.0593  0.3376 -0.0101
10979TIP3    H154352   1.239  -0.026   0.415  0.1944  1.5941 -0.8080
10979TIP3    H254353   1.343  -0.070   0.516 -0.7296 -0.4309 -0.6968
10980TIP3   OH254354   6.098   3.863   0.560 -0.6261 -0.1580  0.1595
10980TIP3    H154355   6.097   3.770   0.538  0.3049 -0.0740 -0.3122
10980TIP3    H254356   6.191   3.884   0.570 -0.8616  0.5883  0.8566
10981TIP3   OH254357   2.004   0.233   2.055 -0.1287  0.1271  0.1473
10981TIP3    H154358   1.921   0.187   2.045  0.2781 -1.5972  3.3525
10981TIP3    H254359   2.064   0.168   2.093  1.7181  2.1546  0.9598
10982TIP3   OH254360   4.590   0.340  15.542  0.2323 -0.1749 -0.3788
10982TIP3    H154361   4.553   0.415  15.495 -0.8006 -0.2534  0.2851
10982TIP3    H254362   4.556   0.348  15.631  1.2393 -0.6644  0.0723
10983TIP3   OH254363   0.028   5.638   5.294 -0.1500  0.2221 -0.4178
10983TIP3    H154364   0.050   5.718   5.246  0.8765  0.7760  0.9048
10983TIP3    H254365   0.113   5.601   5.317 -0.5822  0.2902  1.4403
10984TIP3   OH254366   3.083   2.484   4.352 -0.8423 -0.4768 -0.1068
10984TIP3    H154367   3.001   2.532   4.346  1.2047  3.2112 -1.7679
10984TIP3    H254368   3.117   2.484   4.263  1.8079 -0.2018  0.8304
10985TIP3   OH254369   6.052   1.146   4.891  0.2105  0.4166  0.3012
10985TIP3    H154370   5.968   1.170   4.851 -0.0719  0.1637  0.7308
10985TIP3    H254371   6.109   1.221   4.876  0.2518  0.1411 -0.9827
10986TIP3   OH254372   1.053   3.163  15.878 -0.2443 -0.3327  0.3416
10986TIP3    H154373   1.142   3.148  15.910  0.2005  0.6306 -0.4001
10986TIP3    H254374   1.014   3.075  15.873  0.2154 -0.6486  1.8908
10987TIP3   OH254375   3.425   3.040  10.855 -0.2315 -0.0176 -0.1971
10987TIP3    H154376   3.355   2.981  10.882 -1.1485  0.8452 -0.6261
10987TIP3    H254377   3.380   3.120  10.825  0.9549  0.8223  0.1607
10988TIP3   OH254378   3.313   5.677   3.079  0.8488  0.3349 -0.7817
10988TIP3    H154379   3.326   5.664   2.985 -0.2222  0.8330 -1.0089
10988TIP3    H254380   3.219   5.686   3.090  0.9749  0.5242  0.3186
10989TIP3   OH254381   1.822   2.006   5.695  0.2243 -0.2714  0.1397
10989TIP3    H154382   1.739   2.011   5.743  0.6326 -0.0040  0.8379
10989TIP3    H254383   1.862   1.924   5.724  0.8025  0.2365  0.8332
10990TIP3   OH254384   5.852   6.520  12.187 -0.2022  0.0118  0.2973
10990TIP3    H154385   5.847   6.571  12.267  0.9158 -0.9031  0.9847
10990TIP3    H254386   5.792   6.447  12.201  0.9266 -0.8435  0.8642
10991TIP3   OH254387   2.523   4.984  12.383 -0.4830 -0.2780 -0.2587
10991TIP3    H154388   2.524   5.053  12.317  1.2701  0.1854  0.2111
10991TIP3    H254389   2.584   4.918  12.350 -0.7406 -0.7546  0.1985
10992TIP3   OH254390   6.514   4.134  13.806  0.3980  0.0886 -0.3170
10992TIP3    H154391   6.517   4.163  13.715  1.4836 -2.1401 -1.0603
10992TIP3    H254392   6.576   4.191  13.852 -0.9892  1.9825 -0.6776
10993TIP3   OH254393   6.524   3.055  16.058 -0.0600  0.0400  0.5174
10993TIP3    H154394   6.547   2.962  16.057 -1.1150 -0.2336 -0.0240
10993TIP3    H254395   6.602   3.099  16.092  0.5606 -1.0121  0.4925
10994TIP3   OH254396   6.767   4.765  13.796  0.1027 -0.0509  0.3385
10994TIP3    H154397   6.743   4.815  13.719  0.2995 -0.6968 -0.1542
10994TIP3    H254398   6.684   4.753  13.844  0.0668  0.7842  0.4990
10995TIP3   OH254399   5.949   0.879  14.635 -0.2475 -0.3013  0.8427
10995TIP3    H154400   6.020   0.862  14.572  0.9078  0.4599  1.8914
10995TIP3    H254401   5.945   0.974  14.641 -1.3918 -0.3410  0.7907
10996TIP3   OH254402   6.606   3.513   4.008 -0.2901 -0.1456  0.2220
10996TIP3    H154403   6.625   3.496   3.915 -0.4171 -1.2811  0.3886
10996TIP3    H254404   6.532   3.456   4.027 -0.8395  0.7448  0.8052
10997TIP3   OH254405   3.644   3.736  16.410 -0.5476 -0.5836  0.1102
10997TIP3    H154406   3.604   3.649  16.409 -1.7239 -0.0977  1.5441
10997TIP3    H254407   3.612   3.778  16.330  0.1567 -1.5051 -0.6727
10998TIP3   OH254408   2.637   5.727   2.102 -0.5740 -0.7110 -0.0085
10998TIP3    H154409   2.612   5.648   2.053 -0.5399 -1.4987  1.2023
10998TIP3    H254410   2.625   5.703   2.193 -0.5844  0.7136  0.3891
10999TIP3   OH254411   1.088   1.550  14.667 -0.1469  0.2816 -0.0471
10999TIP3    H154412   1.109   1.474  14.720  2.0964  0.0853 -1.1372
10999TIP3    H254413   1.160   1.611  14.681 -0.3157  0.8944 -1.6146
11000TIP3   OH254414   5.491   6.351   5.058  0.6517 -0.6138  0.3899
11000TIP3    H154415   5.465   6.441   5.041 -0.1494 -1.1794 -1.8725
11000TIP3    H254416   5.573   6.340   5.009 -0.2783 -1.5930 -1.0268
11001TIP3   OH254417   2.924   6.546  12.355  0.0610 -0.0816  0.4275
11001TIP3    H154418   2.870   6.614  12.313 -1.4281  1.1317  3.8745
11001TIP3    H254419   2.874   6.465  12.344  0.0929  0.0322 -0.6949
11002TIP3   OH254420   3.059   6.392   4.691 -0.5374  0.2146 -0.0767
11002TIP3    H154421   3.000   6.441   4.634  1.3365  2.8157  0.0434
11002TIP3    H254422   3.141   6.386   4.642  0.5875  0.9955  1.6122
11003TIP3   OH254423   4.169   1.823  12.012 -0.0620  0.0309 -0.0869
11003TIP3    H154424   4.092   1.781  11.973  0.3498 -0.7480 -0.0897
11003TIP3    H254425   4.134   1.900  12.057 -0.9240 -0.6148  0.3847
11004TIP3   OH254426   3.747   1.730  12.898  0.0772  0.2738 -0.1214
11004TIP3    H154427   3.694   1.804  12.869  1.1417  0.6499 -1.1779
11004TIP3    H254428   3.802   1.766  12.968  0.5072  0.4714 -0.5515
11005TIP3   OH254429   5.265   1.644  14.149 -0.8385 -0.2269 -0.1406
11005TIP3    H154430   5.313   1.561  14.152  0.1442  0.3059 -0.6018
11005TIP3    H254431   5.305   1.692  14.076 -1.3783  0.6612  0.1348
11006TIP3   OH254432   0.558   3.801   4.973 -0.3489  0.1230  0.2317
11006TIP3    H154433   0.643   3.841   4.959 -0.3299 -0.2111 -0.6925
11006TIP3    H254434   0.505   3.871   5.011  0.3506  0.3106  0.8776
11007TIP3   OH254435   3.959   4.705  16.584 -0.3651  0.5910 -0.6880
11007TIP3    H154436   3.878   4.754  16.595 -0.2705  0.8665 -1.2122
11007TIP3    H254437   3.984   4.718  16.492  1.0940  1.7772 -0.1691
11008TIP3   OH254438   4.161   1.575  13.988  0.1142  0.0590 -0.1418
11008TIP3    H154439   4.134   1.597  14.077  2.8545 -0.8663  1.0146
11008TIP3    H254440   4.114   1.493  13.969  1.8375 -1.4908  1.7896
11009TIP3   OH254441   6.085   3.920  12.650  0.6021  0.1571 -0.3135
11009TIP3    H154442   6.116   3.880  12.732 -4.3715  0.0664  1.8664
11009TIP3    H254443   6.103   4.013  12.661 -0.7413  0.2607  1.3675
11010TIP3   OH254444   1.873   5.374  13.153 -0.0162  0.2509  0.1921
11010TIP3    H154445   1.803   5.309  13.162  1.5956 -1.3894  1.6402
11010TIP3    H254446   1.931   5.338  13.085 -1.9900  3.0996 -3.3720
11011TIP3   OH254447   0.489   1.561  17.131 -0.3244 -0.2453  0.0075
11011TIP3    H154448   0.546   1.535  17.203  0.5803 -0.4191 -0.7427
11011TIP3    H254449   0.403   1.574  17.171 -0.3634 -2.4517  0.7440
11012TIP3   OH254450   3.774   3.245  11.850 -0.5343 -0.0590  0.4968
11012TIP3    H154451   3.735   3.236  11.937 -1.8774 -0.0780 -0.0672
11012TIP3    H254452   3.719   3.189  11.794  1.2760 -1.3229 -0.0951
11013TIP3   OH254453   0.483   0.213  15.454  0.3668 -0.4792 -0.1979
11013TIP3    H154454   0.437   0.148  15.506  1.4296 -0.9971  0.1211
11013TIP3    H254455   0.489   0.175  15.367  1.6420 -1.1836  0.1622
11014TIP3   OH254456   1.772   2.835  15.074 -0.0316  0.3508  0.3904
11014TIP3    H154457   1.724   2.916  15.091  1.8190  1.4288  0.7626
11014TIP3    H254458   1.756   2.782  15.152 -1.0865  0.4228  0.2394
11015TIP3   OH254459   3.055   0.388   2.813  0.2053  0.2077 -0.1095
11015TIP3    H154460   2.978   0.423   2.768  0.5187 -0.0503 -0.8554
11015TIP3    H254461   3.115   0.462   2.819 -0.2663  0.5249  0.8673
11016TIP3   OH254462   0.651   5.490   2.071 -0.1495 -0.1677  0.4262
11016TIP3    H154463   0.656   5.491   2.167 -2.7831  1.9155  0.6536
11016TIP3    H254464   0.559   5.505   2.051  0.4951  0.6900 -2.4527
11017TIP3   OH254465   4.587   1.176   3.735  0.0689  0.5039 -0.2012
11017TIP3    H154466   4.552   1.233   3.804 -0.7526  0.7536 -0.8076
11017TIP3    H254467   4.673   1.212   3.716 -0.1111  1.0472 -0.0045
11018TIP3   OH254468   0.669   4.791  16.892  0.0424  0.2879  0.1440
11018TIP3    H154469   0.640   4.839  16.969 -2.1018 -1.3127  0.4241
11018TIP3    H254470   0.615   4.713  16.890 -0.1576  0.3559 -3.1223
11019TIP3   OH254471   2.398   4.752  14.473  0.0158 -0.4974 -0.4330
11019TIP3    H154472   2.372   4.722  14.386  2.0601  1.0876 -1.6936
11019TIP3    H254473   2.483   4.711  14.488  0.0356 -0.1339  0.4847
11020TIP3   OH254474   3.574   0.046  12.630  0.4241  0.0364  0.0785
11020TIP3    H154475   3.666   0.059  12.655  0.2233 -1.0766  1.4991
11020TIP3    H254476   3.525   0.103  12.688  0.2120  0.7596 -0.7993
11021TIP3   OH254477   4.649   4.804   3.245  0.1199 -0.3779  0.0294
11021TIP3    H154478   4.561   4.775   3.271  0.1447  0.8018  1.5011
11021TIP3    H254479   4.632   4.867   3.174 -0.0980 -1.5270 -0.9691
11022TIP3   OH254480   4.655   0.439  15.131 -0.4775  0.0194  0.5030
11022TIP3    H154481   4.607   0.468  15.209 -0.2308  1.0488  0.2953
11022TIP3    H254482   4.678   0.348  15.148  0.8803  0.6482  2.3050
11023TIP3   OH254483   4.614   5.075  13.859  0.2209  0.2189 -0.3209
11023TIP3    H154484   4.531   5.119  13.873 -0.1800 -1.1076  2.0616
11023TIP3    H254485   4.665   5.136  13.805 -1.7198  1.7174 -0.5735
11024TIP3   OH254486   5.221   3.617   0.685 -0.3434 -0.6571  0.8489
11024TIP3    H154487   5.307   3.633   0.647 -0.3118  0.1842  1.2406
11024TIP3    H254488   5.164   3.602   0.610  0.3657 -2.5014  0.6348
11025TIP3   OH254489   2.476   0.569  12.944 -0.1655 -0.0029  0.0296
11025TIP3    H154490   2.412   0.607  12.883  0.2231  1.7505  0.6466
11025TIP3    H254491   2.422   0.527  13.011 -0.7580  1.8322  0.7824
11026TIP3   OH254492   4.637   1.145   0.196 -0.6836 -0.1586  0.0440
11026TIP3    H154493   4.635   1.050   0.209 -0.8210  0.0281  1.5741
11026TIP3    H254494   4.601   1.181   0.277 -1.0327  1.1973 -0.6836
11027TIP3   OH254495   3.795   3.259  17.044  0.6234 -0.2993  0.0064
11027TIP3    H154496   3.847   3.334  17.017  1.6766 -0.3794  1.6516
11027TIP3    H254497   3.724   3.296  17.096  2.0888 -0.4284  2.2814
11028TIP3   OH254498   4.723   2.026   2.310  0.6762  0.0531 -0.5236
11028TIP3    H154499   4.638   1.986   2.295  0.5619  0.1919 -0.2529
11028TIP3    H254500   4.773   1.960   2.358  0.1793  0.5653  0.7423
11029TIP3   OH254501   0.870   5.535  12.069 -0.3813  0.6627  0.5089
11029TIP3    H154502   0.934   5.488  12.015 -1.3598 -0.0954 -0.0075
11029TIP3    H254503   0.796   5.475  12.078 -0.8714  1.3729  1.4374
11030TIP3   OH254504   2.733   4.666   4.852  0.1522 -0.6229  0.3050
11030TIP3    H154505   2.819   4.641   4.817 -0.0139 -1.9402  0.7768
11030TIP3    H254506   2.697   4.584   4.888 -0.9785  0.0642  0.7909
11031TIP3   OH254507   3.715   3.521  11.106 -0.0442  0.7351  0.5022
11031TIP3    H154508   3.664   3.451  11.147 -0.0995 -0.1146 -0.9847
11031TIP3    H254509   3.803   3.486  11.099  0.0087  0.9533  0.0649
11032TIP3   OH254510   5.105   5.479   0.390 -0.3273 -0.4389  0.3609
11032TIP3    H154511   5.064   5.470   0.304  0.8347  0.6716 -0.3543
11032TIP3    H254512   5.054   5.423   0.448 -0.4109 -2.1773 -1.2973
11033TIP3   OH254513   3.721   3.217   4.959 -0.1928 -0.0999  0.5369
11033TIP3    H154514   3.719   3.283   4.889  3.5863 -0.4361 -0.1313
11033TIP3    H254515   3.646   3.161   4.942 -0.0798  0.5203 -2.6355
11034TIP3   OH254516   2.499   2.938   1.072  0.2621  0.4087 -0.1340
11034TIP3    H154517   2.403   2.935   1.071  0.2027  1.6653 -1.0278
11034TIP3    H254518   2.523   2.953   0.981  1.2807  0.6954  0.1753
11035TIP3   OH254519   5.706   0.528   6.172 -0.1299  0.3326  0.4911
11035TIP3    H154520   5.757   0.515   6.252  0.1767 -1.5795  0.0360
11035TIP3    H254521   5.660   0.446   6.159  0.9144  0.0344 -2.0167
11036TIP3   OH254522   1.347   3.503   4.738  0.4368  0.1717  0.3491
11036TIP3    H154523   1.259   3.536   4.753  0.1707 -0.5725  0.4498
11036TIP3    H254524   1.377   3.475   4.825  0.5231 -0.1737  0.2088
11037TIP3   OH254525   5.573   5.082   0.447 -0.4633 -0.1429 -0.1784
11037TIP3    H154526   5.666   5.061   0.447 -0.0449  1.5616  1.2238
11037TIP3    H254527   5.537   5.034   0.522 -0.4468  0.2938  0.1093
11038TIP3   OH254528   2.059   0.823   5.640 -1.0586 -0.4003 -0.7327
11038TIP3    H154529   2.108   0.900   5.671 -1.5113 -0.8850  1.3341
11038TIP3    H254530   2.123   0.752   5.642 -0.6607 -0.1562 -2.5762
11039TIP3   OH254531   6.167   6.002   4.395  0.1443 -0.2547  0.1519
11039TIP3    H154532   6.260   6.007   4.418  0.3464  0.8323 -0.7550
11039TIP3    H254533   6.155   5.914   4.360  0.2508 -1.2601  2.4735
11040TIP3   OH254534   3.502   4.196   5.388  0.2735 -0.2243  0.0289
11040TIP3    H154535   3.523   4.275   5.337  0.2318 -1.2115 -1.5754
11040TIP3    H254536   3.416   4.169   5.356 -0.7183  0.2443  2.0990
11041TIP3   OH254537   2.319   3.139  13.504 -0.0339 -0.5657 -0.0806
11041TIP3    H154538   2.293   3.143  13.412  0.9646 -1.0770 -0.3999
11041TIP3    H254539   2.328   3.230  13.531 -1.5452 -0.3780 -0.1144
11042TIP3   OH254540   3.395   5.672   0.460  0.1154 -0.8972 -0.3609
11042TIP3    H154541   3.452   5.720   0.400 -0.8768  0.8800  0.0552
11042TIP3    H254542   3.310   5.668   0.416 -1.2768  2.3537  1.6380
11043TIP3   OH254543   0.168   4.246  14.904 -0.0313 -0.7092  0.3092
11043TIP3    H154544   0.262   4.261  14.919  0.3373 -0.1474 -2.1134
11043TIP3    H254545   0.156   4.152  14.918  0.2406 -0.3985  3.3787
11044TIP3   OH254546   5.055   2.471  15.167 -0.5862  0.2609  0.1783
11044TIP3    H154547   5.058   2.383  15.130  1.7526 -0.0302  0.8639
11044TIP3    H254548   4.982   2.469  15.229 -0.7312 -1.1152 -0.0109
11045TIP3   OH254549   6.188   0.440  13.521 -0.2550  0.3397 -0.0531
11045TIP3    H154550   6.256   0.507  13.510 -0.6349  1.3139  2.6380
11045TIP3    H254551   6.152   0.428  13.434  2.4593  0.7574 -1.3348
11046TIP3   OH254552   6.023   0.024   1.180 -0.2659 -0.1691  0.5782
11046TIP3    H154553   6.099   0.014   1.237  0.9341  0.5844 -0.8142
11046TIP3    H254554   6.031  -0.048   1.116  0.0876  0.7305 -0.4221
11047TIP3   OH254555   4.107   3.469   1.861  0.8091 -0.6352  0.0717
11047TIP3    H154556   4.189   3.518   1.856  0.7059 -0.2597  1.5568
11047TIP3    H254557   4.041   3.529   1.827  0.9572 -0.4534  0.1038
11048TIP3   OH254558   2.180   6.613  13.813  0.1118  0.0945  0.2113
11048TIP3    H154559   2.202   6.540  13.871 -0.4836  0.3213  0.7432
11048TIP3    H254560   2.158   6.571  13.730  1.2403 -0.2183  0.0556
11049TIP3   OH254561   1.646   4.637  15.109  0.3145 -0.2115  0.4629
11049TIP3    H154562   1.562   4.680  15.094  1.1903  1.5854  0.4460
11049TIP3    H254563   1.691   4.641  15.024 -0.5139 -3.4818 -0.2582
11050TIP3   OH254564   1.727   0.089  14.842  0.2919 -0.1306 -0.5301
11050TIP3    H154565   1.663   0.051  14.902 -2.4636  2.6848 -1.4205
11050TIP3    H254566   1.777   0.150  14.896  1.1969 -1.1546 -0.1709
11051TIP3   OH254567   4.279   0.842   1.276  0.6334 -0.0907 -0.6663
11051TIP3    H154568   4.318   0.921   1.314 -0.6789 -0.3136  1.2553
11051TIP3    H254569   4.343   0.773   1.295  0.7343  0.0965 -0.3091
11052TIP3   OH254570   6.128   5.082   2.722  0.3950 -0.0219 -0.3226
11052TIP3    H154571   6.075   5.003   2.706 -0.2747  0.2041  0.6863
11052TIP3    H254572   6.164   5.104   2.636 -0.6933 -0.5243 -0.9382
11053TIP3   OH254573   6.566   2.766   4.458  0.0761  0.1539  0.3198
11053TIP3    H154574   6.475   2.792   4.445 -0.0568 -0.0148  0.8593
11053TIP3    H254575   6.611   2.847   4.483 -0.4343 -0.1579  2.4759
11054TIP3   OH254576   3.825   2.132  11.285  0.5734  0.2112 -0.2855
11054TIP3    H154577   3.817   2.115  11.379  0.4501 -0.7747 -0.4668
11054TIP3    H254578   3.843   2.046  11.247 -0.3718  0.4345 -1.2696
11055TIP3   OH254579   2.285   1.076  15.943  0.1469  0.5662 -0.2625
11055TIP3    H154580   2.205   1.028  15.923 -0.8079  1.5008  1.0892
11055TIP3    H254581   2.344   1.056  15.871 -0.7836 -1.2900 -0.5722
11056TIP3   OH254582   1.035   5.595  13.890  0.4123 -0.2310  0.0263
11056TIP3    H154583   1.073   5.519  13.846 -1.8108 -1.4491  0.0718
11056TIP3    H254584   0.976   5.558  13.955 -0.9047  1.5334 -0.0965
11057TIP3   OH254585   2.102   1.243   3.342 -0.2387 -0.3292  0.4758
11057TIP3    H154586   2.021   1.193   3.351  0.4698 -1.5544  0.2461
11057TIP3    H254587   2.171   1.178   3.350  0.7661  0.8563  1.7745
11058TIP3   OH254588   1.578   1.410  15.346 -0.0512  0.0567  0.1215
11058TIP3    H154589   1.502   1.354  15.329  0.5347 -0.6219 -0.2853
11058TIP3    H254590   1.541   1.485  15.393 -0.8128 -0.7892  0.9238
11059TIP3   OH254591   6.437   5.137  11.970  0.3399 -0.4749 -0.3050
11059TIP3    H154592   6.502   5.069  11.955  0.5083 -0.2623 -0.5490
11059TIP3    H254593   6.357   5.090  11.995  0.3117 -0.7862 -0.9708
11060TIP3   OH254594   4.614   0.267  14.852 -0.1938  0.0357 -0.2358
11060TIP3    H154595   4.629   0.175  14.830  0.8131 -0.0569  0.7407
11060TIP3    H254596   4.525   0.270  14.888 -0.7239 -0.3123 -1.4922
11061TIP3   OH254597   1.554   1.873  13.432 -0.0219 -0.6681 -0.1385
11061TIP3    H154598   1.485   1.842  13.374 -1.6361 -3.1724  2.8537
11061TIP3    H254599   1.511   1.937  13.489  0.5927 -0.8890  0.5861
11062TIP3   OH254600   4.368   6.167   1.742 -0.7987 -0.6801  0.0258
11062TIP3    H154601   4.442   6.190   1.686  0.2785 -1.2773  1.1481
11062TIP3    H254602   4.380   6.219   1.821 -1.5009 -0.8815  0.2721
11063TIP3   OH254603   4.911   2.897  12.827  0.0582 -0.2510  0.3359
11063TIP3    H154604   4.859   2.905  12.747  1.4972 -0.3286 -0.6344
11063TIP3    H254605   4.955   2.813  12.819  1.3466  0.3816  0.4982
11064TIP3   OH254606   6.065   6.498  14.185  0.1571 -0.5532 -0.5034
11064TIP3    H154607   5.973   6.490  14.210  0.5108 -0.8912  0.7301
11064TIP3    H254608   6.111   6.522  14.265  1.0202  0.6607 -1.3096
11065TIP3   OH254609   6.525   4.022   3.163  0.0432 -0.2132 -0.2514
11065TIP3    H154610   6.445   4.064   3.194 -0.0499 -0.7891  0.3178
11065TIP3    H254611   6.534   3.944   3.218  1.3584  0.1983  0.1537
11066TIP3   OH254612   6.722   1.062   5.360 -0.1521 -0.5884 -0.0811
11066TIP3    H154613   6.793   1.000   5.344  1.0622  0.5652  0.6596
11066TIP3    H254614   6.758   1.125   5.422 -2.2605 -0.7368  1.4426
11067TIP3   OH254615   4.843   3.474  13.498 -0.0286 -0.6367  0.0853
11067TIP3    H154616   4.876   3.495  13.585  1.9642  0.1945 -0.7942
11067TIP3    H254617   4.860   3.381  13.487 -2.4607 -1.3198  1.3954
11068TIP3   OH254618   5.609   3.990  16.071  0.0548  0.2280 -0.4461
11068TIP3    H154619   5.670   3.983  16.145 -3.0062 -0.4105  2.2700
11068TIP3    H254620   5.617   3.907  16.025 -0.7880 -1.1533  1.7188
11069TIP3   OH254621   1.918   1.684   2.607  0.4798 -0.1374 -0.8736
11069TIP3    H154622   1.834   1.641   2.620 -0.5070  1.4453 -1.7428
11069TIP3    H254623   1.902   1.748   2.538  1.2350  3.1438  1.7094
11070TIP3   OH254624   2.840   6.166  15.989 -0.2488 -0.2982 -0.6427
11070TIP3    H154625   2.925   6.139  16.024 -0.7624 -0.5846  0.4253
11070TIP3    H254626   2.776   6.109  16.033 -1.0873  0.5917 -0.6709
11071TIP3   OH254627   4.342   2.298   1.170  0.4023  0.3862 -0.0753
11071TIP3    H154628   4.428   2.266   1.198  0.4509  0.6686  0.1057
11071TIP3    H254629   4.357   2.390   1.148  0.1680  0.4086 -0.1444
11072TIP3   OH254630   1.827   2.936   0.675  0.4717  0.6560 -0.5450
11072TIP3    H154631   1.753   2.996   0.673  1.7705  2.3267 -2.5158
11072TIP3    H254632   1.845   2.917   0.583  1.0164 -1.6761 -0.0273
11073TIP3   OH254633   6.490   5.105  11.015 -0.2941 -0.0508 -0.2784
11073TIP3    H154634   6.491   5.099  10.919  3.0466  0.5150 -0.4009
11073TIP3    H254635   6.477   5.198  11.033  0.1815  0.0111 -0.2400
11074TIP3   OH254636   0.880   6.578  16.948  0.1564 -0.1917 -0.9379
11074TIP3    H154637   0.792   6.540  16.950 -0.2382  0.7012 -0.5931
11074TIP3    H254638   0.865   6.673  16.948  1.1306  0.0670  2.0033
11075TIP3   OH254639   4.131   4.441  12.065  0.4365 -0.1240  0.1157
11075TIP3    H154640   4.041   4.457  12.035 -0.2956 -2.7999  0.6179
11075TIP3    H254641   4.163   4.372  12.007  1.3609 -0.7323  1.3195
11076TIP3   OH254642   2.072   5.924   3.659 -0.1479 -0.0432  0.3163
11076TIP3    H154643   1.993   5.948   3.610 -0.6377  1.4102  1.7543
11076TIP3    H254644   2.144   5.962   3.607 -0.6237  1.0489  0.4200
11077TIP3   OH254645   0.761   5.068  13.955  0.4162  0.3811 -0.2962
11077TIP3    H154646   0.759   5.061  13.859 -0.1575  0.0029 -0.2576
11077TIP3    H254647   0.822   5.000  13.983  0.1014  0.0801 -0.3495
11078TIP3   OH254648   1.289   3.685  14.569  0.6908  0.3791  0.3627
11078TIP3    H154649   1.304   3.654  14.479  0.3772 -0.2885  0.5336
11078TIP3    H254650   1.200   3.655  14.590  0.2300  1.7231  0.4129
11079TIP3   OH254651   1.662   5.419   5.751  0.3754 -0.6300 -0.0485
11079TIP3    H154652   1.647   5.327   5.775  2.5105 -0.9697  0.2017
11079TIP3    H254653   1.747   5.418   5.706  0.4834  1.2423  0.0505
11080TIP3   OH254654   1.673   2.764   3.454  0.2314  0.1815 -0.0729
11080TIP3    H154655   1.745   2.826   3.463 -0.5512  1.3815 -1.6451
11080TIP3    H254656   1.647   2.770   3.362 -2.0860  0.0397  0.5185
11081TIP3   OH254657   1.174   3.269   3.142 -1.0753 -0.0562 -0.7939
11081TIP3    H154658   1.265   3.299   3.142 -0.7651 -0.9145  0.6424
11081TIP3    H254659   1.173   3.196   3.204 -2.9682  0.6130  0.0302
11082TIP3   OH254660   4.288   6.040  15.261 -0.1791  0.2189  0.2671
11082TIP3    H154661   4.368   5.999  15.292 -0.1925 -2.5826 -2.8006
11082TIP3    H254662   4.227   6.034  15.334  0.4789 -3.6307  0.6814
11083TIP3   OH254663   5.672   0.452  16.688  0.8720 -0.0213  0.1479
11083TIP3    H154664   5.668   0.517  16.758  1.1122 -0.8052  0.9071
11083TIP3    H254665   5.656   0.368  16.731  2.4789 -0.7008 -0.4549
11084TIP3   OH254666   0.804   6.568   0.501  0.1826 -0.0533  0.4763
11084TIP3    H154667   0.763   6.547   0.586  0.1807  1.0023  0.7523
11084TIP3    H254668   0.836   6.657   0.512 -1.1287  0.6634 -1.1310
11085TIP3   OH254669   1.842   5.605  16.102 -0.5065 -0.0842 -0.8910
11085TIP3    H154670   1.887   5.651  16.031  0.5262 -0.2570 -0.3648
11085TIP3    H254671   1.887   5.633  16.181  0.1022 -1.9339 -0.5523
11086TIP3   OH254672   0.335   3.942  11.913  0.0020  0.0341 -0.7274
11086TIP3    H154673   0.273   3.903  11.851 -0.2803 -0.2898 -0.2483
11086TIP3    H254674   0.421   3.924  11.875 -0.2051  1.4777 -1.9950
11087TIP3   OH254675   4.605   1.134   1.577  0.4370  0.1671 -0.0486
11087TIP3    H154676   4.516   1.152   1.608  0.4040  1.3170 -0.7651
11087TIP3    H254677   4.657   1.207   1.611  1.0339 -0.2983  0.0373
11088TIP3   OH254678   1.017   3.992  14.725  0.3445  0.2094 -0.7424
11088TIP3    H154679   1.077   3.946  14.783 -0.4967  0.8074  0.6543
11088TIP3    H254680   0.941   3.935  14.718  0.3419  0.2489 -1.0596
11089TIP3   OH254681   4.997   2.542   4.296 -0.2647  0.4754  0.1238
11089TIP3    H154682   5.022   2.460   4.253 -0.7219 -0.6507  1.9137
11089TIP3    H254683   5.064   2.555   4.363  0.0614  1.8434 -0.4299
11090TIP3   OH254684   4.194   4.946  13.024 -0.2767 -0.8526 -0.1032
11090TIP3    H154685   4.281   4.924  12.992 -0.3260 -0.5711 -0.4339
11090TIP3    H254686   4.150   4.862  13.037  0.1175 -1.0036  0.2776
11091TIP3   OH254687   4.753   4.649  15.918  0.5121  0.5530 -0.3978
11091TIP3    H154688   4.701   4.612  15.847  1.0832 -1.9819  0.3998
11091TIP3    H254689   4.700   4.637  15.997  1.8327 -1.1742  0.2773
11092TIP3   OH254690   3.427   3.290  10.654  0.3480 -0.1502  0.3370
11092TIP3    H154691   3.338   3.265  10.679 -0.5617  2.0970 -0.4408
11092TIP3    H254692   3.476   3.290  10.736 -0.5870 -0.5638  0.9100
11093TIP3   OH254693   3.120   4.680  14.874 -0.1355  0.3014  0.3381
11093TIP3    H154694   3.052   4.744  14.855  0.4312  0.8191 -0.0015
11093TIP3    H254695   3.198   4.713  14.828  0.3823 -0.1966  0.8300
11094TIP3   OH254696   4.351   1.585   2.816 -0.1003 -0.1422 -0.1292
11094TIP3    H154697   4.400   1.656   2.857 -3.2994  1.7980  0.6988
11094TIP3    H254698   4.412   1.545   2.755  1.9436  3.1766 -0.4580
11095TIP3   OH254699   0.284   5.985   4.257 -0.4938  0.8121 -0.0285
11095TIP3    H154700   0.237   5.964   4.337 -0.0528 -1.5147 -0.3242
11095TIP3    H254701   0.375   5.997   4.285 -0.2020 -0.7255 -0.2219
11096TIP3   OH254702   5.387   3.522  16.071  0.3450 -0.1898  0.3942
11096TIP3    H154703   5.314   3.533  16.132 -1.1775  3.3300 -1.7715
11096TIP3    H254704   5.441   3.600  16.085 -0.0908  0.7734 -2.6482
11097TIP3   OH254705   3.728   4.162   0.614 -0.3025  0.1179 -0.4414
11097TIP3    H154706   3.779   4.081   0.625  0.7533  0.9686  1.6371
11097TIP3    H254707   3.699   4.160   0.523  1.0945 -1.7920 -0.9212
11098TIP3   OH254708   0.536   6.455   3.769  0.0834 -0.2295  0.2037
11098TIP3    H154709   0.588   6.519   3.720 -0.6967  0.6413  0.4909
11098TIP3    H254710   0.529   6.492   3.857  0.3037 -1.1114  0.6059
11099TIP3   OH254711   4.599   0.499   4.648 -0.0757  0.0946 -0.2214
11099TIP3    H154712   4.624   0.467   4.562 -1.9993  0.3136 -0.9101
11099TIP3    H254713   4.568   0.421   4.695  2.4004 -0.3109  0.8894
11100TIP3   OH254714   0.972   4.450   5.187 -0.3548  0.0526  0.1686
11100TIP3    H154715   0.958   4.544   5.194  0.0214  0.2151 -1.0421
11100TIP3    H254716   1.037   4.430   5.255  2.3922  1.3374 -1.8826
11101TIP3   OH254717   1.607   0.610   3.662  0.2041 -0.4109  0.0002
11101TIP3    H154718   1.560   0.585   3.583  0.9483 -2.4201  0.1286
11101TIP3    H254719   1.540   0.643   3.721 -0.7378 -1.2743 -0.5556
11102TIP3   OH254720   2.182   0.273   4.314  0.0401 -0.4572  0.2976
11102TIP3    H154721   2.121   0.347   4.323 -0.0113 -0.1554 -1.8596
11102TIP3    H254722   2.145   0.205   4.369  0.2978  1.2138  2.6838
11103TIP3   OH254723   3.086   3.557  13.159 -0.2152  0.2069 -0.0289
11103TIP3    H154724   3.047   3.634  13.119  0.6792  1.3226  1.1486
11103TIP3    H254725   3.177   3.556  13.128 -0.3612 -0.7026 -0.4693
11104TIP3   OH254726   2.273   6.400  12.822 -0.5273  0.6795 -0.8844
11104TIP3    H154727   2.285   6.486  12.783 -0.3969  1.4819  0.8271
11104TIP3    H254728   2.258   6.342  12.748 -1.7021  2.3413 -2.0145
11105TIP3   OH254729   6.769   5.597   5.796  0.1457  0.2372 -0.4117
11105TIP3    H154730   6.846   5.620   5.744 -0.3502  0.9976 -0.8397
11105TIP3    H254731   6.723   5.680   5.808 -0.5720 -0.1928 -0.1124
11106TIP3   OH254732   4.392   6.207   0.708  0.1119 -0.4356 -0.1679
11106TIP3    H154733   4.486   6.228   0.714  0.3544 -1.3238 -0.6769
11106TIP3    H254734   4.367   6.236   0.620 -0.4747  1.2091  0.5052
11107TIP3   OH254735   4.028   0.882  14.129 -0.1455 -0.9259  0.5326
11107TIP3    H154736   4.062   0.905  14.215  3.2021 -2.2636 -0.2648
11107TIP3    H254737   4.067   0.946  14.070 -2.0317 -0.3009 -0.0925
11108TIP3   OH254738   5.564   4.227  15.163  0.0928  0.2542 -0.4398
11108TIP3    H154739   5.608   4.142  15.159 -1.6691 -0.6951 -0.2959
11108TIP3    H254740   5.623   4.286  15.115  1.0679 -1.1561 -1.0501
11109TIP3   OH254741   5.692   0.172   0.901  0.0557  0.1996 -0.1575
11109TIP3    H154742   5.685   0.105   0.832  0.2896  0.6440 -0.6223
11109TIP3    H254743   5.785   0.172   0.925  0.3777  1.4493 -1.2883
11110TIP3   OH254744   5.989   1.517  12.464 -0.0007 -0.0009  0.5830
11110TIP3    H154745   6.023   1.432  12.489  1.2620  0.8512  1.8941
11110TIP3    H254746   6.043   1.544  12.390 -2.9973 -2.0111 -2.6866
11111TIP3   OH254747   2.277   4.744   2.562 -0.1544  0.3227 -0.3183
11111TIP3    H154748   2.225   4.762   2.483  0.4730  0.8162 -0.6331
11111TIP3    H254749   2.354   4.801   2.553  0.6572 -0.7076 -0.0780
11112TIP3   OH254750   2.577   5.253   5.534  0.4975  0.2767  0.0050
11112TIP3    H154751   2.493   5.296   5.554  0.8911  1.2531 -0.4093
11112TIP3    H254752   2.552   5.163   5.511 -0.3914  0.4115  0.3758
11113TIP3   OH254753   0.515   3.466  11.018  0.6678 -0.6714  0.2923
11113TIP3    H154754   0.484   3.549  11.054  0.3478 -1.2040  1.2798
11113TIP3    H254755   0.573   3.430  11.084  0.0631 -1.6757  0.3081
11114TIP3   OH254756   1.151   1.098   5.537 -0.1760 -0.6358 -0.1009
11114TIP3    H154757   1.068   1.116   5.582 -1.4557 -2.3916 -1.6095
11114TIP3    H254758   1.193   1.031   5.590  0.3244  0.2630  0.6717
11115TIP3   OH254759   2.855   6.637   5.157 -0.0330  0.0756  0.1539
11115TIP3    H154760   2.903   6.662   5.078  1.0064  0.0317  0.7582
11115TIP3    H254761   2.921   6.596   5.214 -0.3847  1.6199  1.7554
11116TIP3   OH254762   1.165   6.375  11.570 -0.0666  0.1878  0.3506
11116TIP3    H154763   1.150   6.405  11.660  0.9100  1.0399  0.2440
11116TIP3    H254764   1.217   6.295  11.580  0.0180  0.2651  0.5434
11117TIP3   OH254765   4.259   1.469   4.225  0.0171  0.5689  0.2909
11117TIP3    H154766   4.347   1.442   4.250 -0.1136 -0.4931 -0.3642
11117TIP3    H254767   4.268   1.505   4.137 -0.4856 -1.3385 -0.5817
11118TIP3   OH254768   2.771   4.161   4.793  0.9103  0.5106 -0.3278
11118TIP3    H154769   2.716   4.083   4.799  0.3522  0.9376  0.2288
11118TIP3    H254770   2.712   4.230   4.764  0.5765  1.5123  2.4624
11119TIP3   OH254771   0.829   6.319  13.330  0.8071  0.3229 -0.2873
11119TIP3    H154772   0.781   6.401  13.316  1.7273  0.6691 -1.6554
11119TIP3    H254773   0.843   6.315  13.424 -1.0224  0.6964  0.0363
11120TIP3   OH254774   0.761   1.034  14.877 -0.0468 -0.5585  0.1123
11120TIP3    H154775   0.703   0.977  14.929  0.3858 -0.2371  0.9706
11120TIP3    H254776   0.716   1.044  14.793 -0.8403 -0.9758  0.4743
11121TIP3   OH254777   2.358   5.498  16.731  0.2540 -0.3954 -0.0377
11121TIP3    H154778   2.359   5.476  16.824 -1.4579  0.1352  0.1445
11121TIP3    H254779   2.350   5.594  16.729 -2.0081 -0.5364 -0.6545
11122TIP3   OH254780   5.355   1.159   0.606  0.6900 -0.1784  0.1396
11122TIP3    H154781   5.266   1.139   0.576  0.9112 -1.0807  0.0566
11122TIP3    H254782   5.356   1.131   0.697  0.0347  2.5224  1.0737
11123TIP3   OH254783   3.348   5.417   0.936 -0.3058 -0.4390 -0.1164
11123TIP3    H154784   3.440   5.444   0.944 -0.6480  1.0525 -0.9563
11123TIP3    H254785   3.331   5.369   1.017  0.7391  0.7200  0.8412
11124TIP3   OH254786   1.147   6.409  15.710  0.2043 -0.5535  0.6375
11124TIP3    H154787   1.161   6.361  15.791 -0.0344 -0.2804  0.8432
11124TIP3    H254788   1.234   6.421  15.673  0.1459 -4.5450 -1.4283
11125TIP3   OH254789   2.670   0.381  12.890 -0.5626 -0.3180  0.3028
11125TIP3    H154790   2.631   0.326  12.957 -2.6610 -2.1668 -2.2158
11125TIP3    H254791   2.628   0.466  12.902 -0.9028 -0.6095  1.2968
11126TIP3   OH254792   4.955   6.093   3.064  0.2163 -0.9538 -0.0753
11126TIP3    H154793   4.973   6.163   3.001  0.0851  1.2713  2.2143
11126TIP3    H254794   4.863   6.107   3.089  0.5757 -1.1160  1.3716
11127TIP3   OH254795   1.299   5.449   0.740 -0.0554  0.3320 -0.2332
11127TIP3    H154796   1.250   5.432   0.820  0.5619  2.4533  0.6501
11127TIP3    H254797   1.243   5.508   0.690  0.4508  0.6551 -0.4221
11128TIP3   OH254798   2.422   0.019  15.257  1.4584 -0.7330 -0.0277
11128TIP3    H154799   2.375   0.100  15.237  0.0121 -1.8234 -1.2478
11128TIP3    H254800   2.498   0.021  15.200  0.8764 -0.6921 -0.8229
11129TIP3   OH254801   5.808   4.617  14.468  0.2352 -0.1642  0.1395
11129TIP3    H154802   5.720   4.613  14.431  0.9410 -1.8312 -1.5444
11129TIP3    H254803   5.809   4.552  14.538 -0.1894  0.7093  0.9719
11130TIP3   OH254804   2.818   2.471   4.776  0.4883  0.5273  0.1760
11130TIP3    H154805   2.891   2.427   4.734  0.7543  0.7315  0.4218
11130TIP3    H254806   2.740   2.427   4.740  0.7367  0.0694  0.1876
11131TIP3   OH254807   0.520   4.744   1.190 -0.3874  0.0012  0.1462
11131TIP3    H154808   0.530   4.702   1.275  0.4285 -1.2043 -0.5118
11131TIP3    H254809   0.607   4.777   1.169 -0.9141  1.6999  0.4428
11132TIP3   OH254810   6.742   0.517  16.405 -0.2286 -0.0061  0.3805
11132TIP3    H154811   6.726   0.484  16.317 -0.5084 -1.0003  0.7928
11132TIP3    H254812   6.747   0.439  16.460  3.3207  0.3015  0.7550
11133TIP3   OH254813   4.705   6.616   3.748 -0.0381  0.5530  0.4523
11133TIP3    H154814   4.643   6.587   3.681  1.6440 -0.4866 -0.7279
11133TIP3    H254815   4.698   6.550   3.817 -0.9330  0.9945  0.8079
11134TIP3   OH254816   5.903   6.221   0.392  0.4239 -0.4009  0.3965
11134TIP3    H154817   5.852   6.284   0.340  0.1558 -0.3381  0.7296
11134TIP3    H254818   5.926   6.152   0.330  1.2646  0.3314 -0.1223
11135TIP3   OH254819   3.380   3.445  10.424 -0.3393 -0.9843  0.7325
11135TIP3    H154820   3.398   3.390  10.500  0.5059  0.0337  1.2898
11135TIP3    H254821   3.306   3.499  10.450 -1.1757 -1.8196  0.1803
11136TIP3   OH254822   4.292   3.799  11.328  0.7427  0.7183 -0.4742
11136TIP3    H154823   4.258   3.743  11.397 -0.0473 -0.5584 -1.8446
11136TIP3    H254824   4.215   3.826  11.279  1.4594 -0.9212 -2.6808
11137TIP3   OH254825   3.297   6.023  11.690 -0.7591  0.2048 -0.5002
11137TIP3    H154826   3.360   6.036  11.619 -1.1015  0.0036 -0.8425
11137TIP3    H254827   3.229   6.089  11.674  0.6533  2.2500  1.3712
11138TIP3   OH254828   5.791   1.755  16.496  0.2234 -0.0760  0.4960
11138TIP3    H154829   5.714   1.802  16.464  1.4271  1.6130 -0.0374
11138TIP3    H254830   5.831   1.717  16.418 -0.6485 -1.9620  0.9023
11139TIP3   OH254831   4.931   4.579  12.539  0.2152  0.5446 -0.3119
11139TIP3    H154832   4.898   4.587  12.629  2.0464  0.1372  0.4560
11139TIP3    H254833   4.934   4.485  12.523 -2.2522  0.6291 -1.7159
11140TIP3   OH254834   0.219   1.167  14.042 -0.5893 -0.1934 -0.1817
11140TIP3    H154835   0.252   1.084  14.076  0.4392  0.0830 -0.4585
11140TIP3    H254836   0.140   1.144  13.993  0.3623 -1.2071 -1.3031
11141TIP3   OH254837   2.665   0.055   5.182 -0.3030 -0.6552 -0.0412
11141TIP3    H154838   2.699  -0.029   5.150 -1.4352 -0.9311 -0.6161
11141TIP3    H254839   2.726   0.082   5.249  0.6261 -1.4667 -0.5317
11142TIP3   OH254840   3.543   0.356  16.066 -0.1194  0.0864 -0.4864
11142TIP3    H154841   3.486   0.347  15.989 -0.7277 -0.5861  0.0231
11142TIP3    H254842   3.571   0.267  16.085  0.7573  0.3601 -0.4496
11143TIP3   OH254843   0.399   0.171  15.882 -0.5385 -0.3115  0.6442
11143TIP3    H154844   0.451   0.251  15.883  1.6912 -1.6820  2.0814
11143TIP3    H254845   0.382   0.151  15.974 -1.4138 -1.2683  0.3001
11144TIP3   OH254846   1.353   0.055  15.884  0.1730 -0.8209  0.0269
11144TIP3    H154847   1.379   0.133  15.836  2.3911 -1.1217  0.6471
11144TIP3    H254848   1.401   0.061  15.967 -0.6549 -2.1938  0.6422
11145TIP3   OH254849   4.033   3.689   2.563  0.1955 -0.1202 -0.2321
11145TIP3    H154850   4.017   3.698   2.469 -2.8186 -0.9992  0.1054
11145TIP3    H254851   4.099   3.620   2.569 -0.5814 -1.0321 -1.6878
11146TIP3   OH254852   2.861   5.756  14.894  0.0607 -0.1020  0.7196
11146TIP3    H154853   2.889   5.775  14.805 -1.0389  0.1848  0.4184
11146TIP3    H254854   2.911   5.817  14.949  2.1470 -1.5519  0.5196
11147TIP3   OH254855   6.755   4.065  12.944 -0.2129 -0.7869 -0.2825
11147TIP3    H154856   6.820   3.994  12.942 -0.5962 -1.1427 -0.2651
11147TIP3    H254857   6.684   4.034  12.888 -0.1325 -0.1643 -0.7360
11148TIP3   OH254858   3.000   1.603  14.505 -0.2623 -0.8199 -0.1676
11148TIP3    H154859   2.949   1.543  14.560 -1.4831  1.4746  1.3766
11148TIP3    H254860   2.938   1.632  14.437 -0.4308  0.4132  0.4866
11149TIP3   OH254861   5.079   0.797  13.449  0.3640  0.2042  0.4154
11149TIP3    H154862   5.000   0.841  13.479 -0.6092 -1.3261  0.2273
11149TIP3    H254863   5.131   0.784  13.528 -0.4876 -0.5068  0.8792
11150TIP3   OH254864   4.475   2.895   1.312 -0.3572 -0.6472  0.2745
11150TIP3    H154865   4.399   2.890   1.254  0.1684 -0.0756 -0.4808
11150TIP3    H254866   4.443   2.862   1.396 -1.0288 -1.8635 -0.4342
11151TIP3   OH254867   4.571   5.179   4.279 -0.7238 -0.4086 -0.3551
11151TIP3    H154868   4.603   5.155   4.192 -0.4111 -1.7015  0.1041
11151TIP3    H254869   4.533   5.266   4.266  1.6473  0.5881 -1.2418
11152TIP3   OH254870   6.748   4.673   1.627 -0.5406 -0.0923  0.0531
11152TIP3    H154871   6.843   4.686   1.626 -0.3148 -1.5930 -0.6450
11152TIP3    H254872   6.730   4.632   1.711 -0.5757  0.1193  0.1514
11153TIP3   OH254873   6.402   4.606  15.827 -0.2038 -0.1469 -0.0650
11153TIP3    H154874   6.437   4.623  15.915  0.0689  0.4192 -0.2847
11153TIP3    H254875   6.379   4.692  15.793  0.1666 -0.3138 -0.7476
11154TIP3   OH254876   4.582   0.707  11.019  0.0690 -0.1728 -0.5690
11154TIP3    H154877   4.576   0.613  11.002 -0.3759 -0.4060  0.7631
11154TIP3    H254878   4.670   0.719  11.055  0.3918  0.0515 -1.4055
11155TIP3   OH254879   0.049   6.144  13.568 -0.4765  0.1018  0.0185
11155TIP3    H154880  -0.034   6.108  13.600  1.7781 -1.9995  4.4008
11155TIP3    H254881   0.083   6.076  13.510 -0.8651 -0.0297 -0.0633
11156TIP3   OH254882   4.017   3.103  12.819 -0.0185  0.8620 -0.1484
11156TIP3    H154883   4.024   3.119  12.913  0.5751  0.3792 -0.1074
11156TIP3    H254884   3.933   3.057  12.809  1.2317 -1.7341  0.5305
11157TIP3   OH254885   1.369   5.547   5.720  0.0808  0.7119 -0.3538
11157TIP3    H154886   1.304   5.495   5.673 -0.0886  0.3417  0.2648
11157TIP3    H254887   1.319   5.618   5.760 -0.0325  0.1634  0.5060
11158TIP3   OH254888   2.745   4.348  16.923 -0.1237 -0.2629  0.5322
11158TIP3    H154889   2.783   4.263  16.945  1.0163 -0.0392 -0.5134
11158TIP3    H254890   2.818   4.401  16.893 -0.7860  1.1811  1.3442
11159TIP3   OH254891   4.623   1.137  13.338  0.1690  0.2008  0.1932
11159TIP3    H154892   4.578   1.107  13.259  0.3324  0.3277  0.0494
11159TIP3    H254893   4.585   1.086  13.409  1.3710 -1.3245 -0.2049
11160TIP3   OH254894   4.913   4.060   2.448  0.3981  0.2807  0.2612
11160TIP3    H154895   4.823   4.029   2.449  0.5431 -0.2137 -0.5522
11160TIP3    H254896   4.943   4.043   2.358  1.8286 -1.0704  0.9606
11161TIP3   OH254897   2.648   0.157  17.012 -0.5694 -0.2279 -0.3726
11161TIP3    H154898   2.600   0.209  17.078 -0.9326 -0.5175 -0.4073
11161TIP3    H254899   2.737   0.193  17.014 -1.0235  0.9818 -1.0033
11162TIP3   OH254900   0.237   4.928  13.135 -0.2790  0.7404  0.4821
11162TIP3    H154901   0.217   4.878  13.056 -0.1876 -2.3801  2.2533
11162TIP3    H254902   0.165   4.991  13.142 -0.8601  0.3696 -1.4766
11163TIP3   OH254903   0.051   2.038   3.244 -0.0446  0.4622 -0.0565
11163TIP3    H154904  -0.014   2.103   3.218 -1.2257 -0.2131  1.0873
11163TIP3    H254905   0.132   2.067   3.202 -0.7937  2.0215 -0.5074
11164TIP3   OH254906   6.411   4.972   6.572 -0.1421  0.1070  0.4878
11164TIP3    H154907   6.448   5.041   6.517  0.7301 -0.7754 -0.0667
11164TIP3    H254908   6.322   4.961   6.540 -0.9800  2.2904  1.8689
11165TIP3   OH254909   3.273   0.572   1.292 -0.1073 -0.2307  0.2559
11165TIP3    H154910   3.320   0.609   1.218  0.2320  1.8061  1.4141
11165TIP3    H254911   3.340   0.521   1.339  0.1602  0.0499  0.1838
11166TIP3   OH254912   3.572   4.392  14.055  0.2733 -0.4726  0.5145
11166TIP3    H154913   3.567   4.335  14.132  0.3711 -0.0483  0.8408
11166TIP3    H254914   3.570   4.481  14.091 -2.7604 -0.1777 -0.0783
11167TIP3   OH254915   1.188   4.178   3.398  0.4359 -0.4474  0.4855
11167TIP3    H154916   1.123   4.108   3.397 -1.3074  1.0903  1.2358
11167TIP3    H254917   1.143   4.253   3.360  2.4643  0.1482 -0.9300
11168TIP3   OH254918   5.557   1.241  11.498  0.1266 -0.1842 -0.2314
11168TIP3    H154919   5.511   1.170  11.542  1.5376 -2.0389 -1.5593
11168TIP3    H254920   5.525   1.239  11.408 -0.4390  1.4749 -0.0991
11169TIP3   OH254921   5.686   0.713   1.009  0.0042 -0.4906 -0.5711
11169TIP3    H154922   5.708   0.626   0.976  1.6287 -0.0310 -0.8245
11169TIP3    H254923   5.656   0.698   1.098 -1.4175 -1.4519 -1.1755
11170TIP3   OH254924   0.446   4.329  11.578 -0.6048 -0.4120  0.5883
11170TIP3    H154925   0.373   4.313  11.637 -1.1037  0.2986  0.1829
11170TIP3    H254926   0.429   4.416  11.542  1.4178  0.6167  1.9139
11171TIP3   OH254927   2.778   6.357  17.008 -0.5034  0.1179  0.0223
11171TIP3    H154928   2.682   6.350  17.005 -0.5067 -1.5730  1.8087
11171TIP3    H254929   2.794   6.427  17.071 -0.6032 -0.4391  0.6863
11172TIP3   OH254930   5.881   5.689  13.757 -0.0899  0.7127  0.0231
11172TIP3    H154931   5.878   5.749  13.682  0.7369  0.4786 -0.2041
11172TIP3    H254932   5.789   5.679  13.783 -0.3839  0.8186 -0.9365
11173TIP3   OH254933   0.525   6.088   4.321 -0.0928 -0.5507 -0.3979
11173TIP3    H154934   0.566   6.052   4.241 -1.3536 -0.1244 -1.2603
11173TIP3    H254935   0.560   6.177   4.327  0.2334 -0.6825 -0.2983
11174TIP3   OH254936   3.443   1.071   4.386 -0.3923 -0.3610  0.5754
11174TIP3    H154937   3.465   0.981   4.361 -0.3337 -0.4467  0.9418
11174TIP3    H254938   3.351   1.080   4.361 -0.2867 -0.3866  0.1552
11175TIP3   OH254939   6.254   5.977  14.775 -0.2961  0.1627  0.1442
11175TIP3    H154940   6.264   6.072  14.762  0.3014  0.1252  0.3098
11175TIP3    H254941   6.341   5.947  14.800 -0.6712 -0.2980  0.9265
11176TIP3   OH254942   3.160   6.690  15.682  0.6630  0.0985  0.5016
11176TIP3    H154943   3.216   6.698  15.759  2.2221 -1.0980 -0.4303
11176TIP3    H254944   3.202   6.621  15.630 -0.4082  0.7741 -1.3382
11177TIP3   OH254945   1.112   3.415   1.613  0.3424 -0.3407 -0.1343
11177TIP3    H154946   1.119   3.476   1.539 -1.6063  1.3528  0.9505
11177TIP3    H254947   1.043   3.353   1.586 -1.7777  1.4245  0.8644
11178TIP3   OH254948   0.184   6.678  13.495  0.5297  0.0640 -0.2579
11178TIP3    H154949   0.205   6.594  13.537 -0.8235 -0.2336 -0.1239
11178TIP3    H254950   0.101   6.662  13.451  0.1413  1.3983 -0.0549
11179TIP3   OH254951   3.997   4.284   3.464 -0.1246  0.5364  0.3154
11179TIP3    H154952   3.907   4.255   3.475 -0.3892  0.3303 -1.9507
11179TIP3    H254953   4.043   4.207   3.430 -0.4481  2.0035 -4.0948
11180TIP3   OH254954   3.120   1.360  14.742  0.3486  0.6236 -0.1943
11180TIP3    H154955   3.080   1.365  14.829  1.4969  5.2385  0.3279
11180TIP3    H254956   3.046   1.358  14.681 -0.5637  1.3058  0.8699
11181TIP3   OH254957   3.880   0.636  14.808  0.1621 -0.3245  0.9221
11181TIP3    H154958   3.882   0.582  14.729  0.3894 -0.3397  0.9361
11181TIP3    H254959   3.942   0.593  14.867  1.9231  1.0633  0.1839
11182TIP3   OH254960   0.065   1.628  11.738 -0.3816 -0.0509 -0.1380
11182TIP3    H154961  -0.001   1.673  11.789  0.2063 -0.2435  0.8229
11182TIP3    H254962   0.076   1.544  11.782 -2.0179 -1.5258 -2.3264
11183TIP3   OH254963   2.411   2.042   1.317  0.7685 -0.5139  0.0510
11183TIP3    H154964   2.411   2.122   1.370  0.4455 -1.3591  1.3495
11183TIP3    H254965   2.350   2.061   1.246 -0.2723 -0.0438  1.0445
11184TIP3   OH254966   5.304   3.919   4.996  0.2780  0.3584  0.4354
11184TIP3    H154967   5.362   3.853   4.957 -0.3287  1.6189 -2.9186
11184TIP3    H254968   5.221   3.909   4.951 -0.6085  1.8293  1.6283
11185TIP3   OH254969   1.630   5.253  16.277 -0.0000  0.4573  0.2941
11185TIP3    H154970   1.665   5.336  16.307  0.3501  0.5254 -0.2807
11185TIP3    H254971   1.707   5.200  16.256 -0.2226  0.0602  0.4772
11186TIP3   OH254972   6.567   5.577  11.316  0.5124  0.4191 -0.2310
11186TIP3    H154973   6.533   5.586  11.227  1.3324 -3.2502 -1.0960
11186TIP3    H254974   6.636   5.511  11.308  1.2561  0.6482  3.0151
11187TIP3   OH254975   3.934   3.364   3.858  0.5098  0.1091  0.1059
11187TIP3    H154976   4.008   3.386   3.913  0.5561  2.0219 -0.6635
11187TIP3    H254977   3.882   3.303   3.911  1.1135  1.0266  1.8167
11188TIP3   OH254978   2.823   5.794  15.865  0.0022  0.1666 -0.3247
11188TIP3    H154979   2.811   5.866  15.802 -0.1585  0.8827  0.5126
11188TIP3    H254980   2.774   5.721  15.827 -0.7017  0.8106 -0.6791
11189TIP3   OH254981   2.774   1.445   1.774  0.0455  0.3114  0.2282
11189TIP3    H154982   2.714   1.511   1.739  0.1505 -0.2666 -1.0829
11189TIP3    H254983   2.724   1.403   1.844 -0.8195  0.3563 -0.3413
11190TIP3   OH254984   3.279   6.659  15.907  0.5620 -0.1040 -0.2708
11190TIP3    H154985   3.335   6.672  15.984  1.8472  0.3768 -1.2649
11190TIP3    H254986   3.311   6.578  15.868 -0.5916 -0.7611  0.0900
11191TIP3   OH254987   3.320   2.857  11.216  0.4463  0.5104  0.0705
11191TIP3    H154988   3.313   2.783  11.276 -0.1565 -0.0550 -0.6691
11191TIP3    H254989   3.399   2.903  11.243  1.5787 -1.1420 -0.2478
11192TIP3   OH254990   2.467   0.843   3.301 -0.2272  0.6403  0.0160
11192TIP3    H154991   2.403   0.804   3.242  1.0553 -1.1875 -0.2281
11192TIP3    H254992   2.434   0.824   3.388 -0.6901  0.8962 -0.0990
11193TIP3   OH254993   6.253   0.940   1.297 -0.2735  0.7167  0.1486
11193TIP3    H154994   6.312   1.014   1.286  1.2692 -0.6478 -1.2201
11193TIP3    H254995   6.259   0.918   1.390  0.4766  1.3185  0.2526
11194TIP3   OH254996   2.622   5.225   2.415  0.0968  0.1128  0.1080
11194TIP3    H154997   2.550   5.240   2.477 -0.9765 -2.6246 -0.3218
11194TIP3    H254998   2.637   5.131   2.419  4.2411  0.6260  0.6766
11195TIP3   OH254999   4.741   2.781   5.021  0.1414 -0.4981 -0.0967
11195TIP3    H155000   4.649   2.764   5.005  0.2727 -1.5896  0.2170
11195TIP3    H255001   4.743   2.833   5.101 -0.2681  0.9470 -0.9877
11196TIP3   OH255002   5.130   0.404   0.898 -0.0919 -0.2557 -0.2994
11196TIP3    H155003   5.093   0.370   0.980  0.6141 -0.3698 -0.0225
11196TIP3    H255004   5.060   0.393   0.834 -0.8788  0.4206  0.4215
11197TIP3   OH255005   3.672   2.027   3.418  0.9619  0.1868 -0.6340
11197TIP3    H155006   3.746   2.020   3.478  1.5748  0.2857 -1.3649
11197TIP3    H255007   3.691   2.104   3.365 -1.0133  1.8800  0.9561
11198TIP3   OH255008   1.230   4.336  11.861  0.4679  0.0069 -0.2451
11198TIP3    H155009   1.183   4.255  11.883  1.6505 -0.4755  0.5984
11198TIP3    H255010   1.193   4.402  11.920 -0.7566  0.1925 -1.1856
11199TIP3   OH255011   5.816   1.112   3.799 -0.2984  0.2540 -0.0958
11199TIP3    H155012   5.781   1.147   3.716  0.8121 -0.2538 -0.7965
11199TIP3    H255013   5.889   1.169   3.820  0.1119 -0.2798 -0.0554
11200TIP3   OH255014   2.496   2.063  10.632 -0.0739 -0.0642 -0.2151
11200TIP3    H155015   2.487   2.120  10.709 -1.9100  3.1078 -2.5303
11200TIP3    H255016   2.553   2.111  10.573  2.4863 -3.0814 -0.4770
11201TIP3   OH255017   2.202   5.657   1.127  1.0177 -0.1517  0.4697
11201TIP3    H155018   2.249   5.623   1.050  2.1535 -0.8460  1.4373
11201TIP3    H255019   2.258   5.727   1.160 -0.4414  1.5358 -0.4588
11202TIP3   OH255020   1.390   1.931   5.588  0.0391  0.3007 -0.4938
11202TIP3    H155021   1.385   2.002   5.651 -1.3366  0.3658 -0.6389
11202TIP3    H255022   1.346   1.966   5.510 -0.5875 -0.6637 -0.5904
11203TIP3   OH255023   1.820   0.317   3.352 -0.0500 -0.4657  0.0356
11203TIP3    H155024   1.836   0.224   3.336  0.1509 -0.3850 -0.2390
11203TIP3    H255025   1.747   0.339   3.293  0.3925 -0.2759 -0.4549
11204TIP3   OH255026   2.672   4.399  15.793 -0.3252 -0.0386 -0.6690
11204TIP3    H155027   2.629   4.479  15.824  1.8280  2.2082 -3.0124
11204TIP3    H255028   2.757   4.399  15.837 -0.2192 -0.9063 -0.8647
11205TIP3   OH255029   6.425   1.187  14.665  0.2783  0.6202 -0.4187
11205TIP3    H155030   6.482   1.245  14.715 -1.1152  1.3875  0.3318
11205TIP3    H255031   6.394   1.241  14.592  1.3307 -0.1299 -1.4812
11206TIP3   OH255032   3.597   5.255  11.036  0.0047 -0.4847  0.0645
11206TIP3    H155033   3.666   5.202  10.995  1.9162  0.2323  2.1572
11206TIP3    H255034   3.644   5.313  11.095 -2.3936  0.5049  1.0995
11207TIP3   OH255035   3.139   1.530  12.096 -0.5189  0.5351 -0.0058
11207TIP3    H155036   3.101   1.534  12.009 -0.9360 -0.1109  0.1416
11207TIP3    H255037   3.174   1.618  12.111 -0.0976  0.5424 -0.9750
11208TIP3   OH255038   3.481   6.766  15.161 -0.5840 -0.1746 -0.5629
11208TIP3    H155039   3.423   6.838  15.139 -1.2676 -1.3502 -2.9002
11208TIP3    H255040   3.539   6.801  15.228 -0.8522  2.5353 -1.6598
11209TIP3   OH255041   6.732   0.232   1.049  0.0760 -0.2648  0.2166
11209TIP3    H155042   6.815   0.278   1.060  0.6691 -1.2250 -0.1029
11209TIP3    H255043   6.680   0.258   1.125 -0.1043  1.8884 -0.5547
11210TIP3   OH255044   5.741   4.404  15.053 -0.0395  0.0002 -0.1042
11210TIP3    H155045   5.821   4.430  15.006 -1.0574 -0.8534 -2.4577
11210TIP3    H255046   5.689   4.485  15.056 -0.7596 -0.3146 -2.2538
11211TIP3   OH255047   5.546   3.761  16.781  0.1007 -0.2378 -0.0097
11211TIP3    H155048   5.616   3.809  16.825 -0.2521 -0.1292  0.4437
11211TIP3    H255049   5.587   3.678  16.754 -0.3962 -1.7627  3.3849
11212TIP3   OH255050   4.565   2.388  13.904  0.0865 -0.3427  0.4854
11212TIP3    H155051   4.547   2.339  13.824 -0.1650 -0.9903  0.9360
11212TIP3    H255052   4.656   2.414  13.896 -0.2378  0.5929 -0.5401
11213TIP3   OH255053   2.870   1.193   5.119  0.5269  0.4390  0.5348
11213TIP3    H155054   2.865   1.120   5.180  1.2949  0.2564  0.3947
11213TIP3    H255055   2.950   1.239   5.143  0.9159  0.2864 -0.4119
11214TIP3   OH255056   5.290   0.859  15.150  0.1411 -1.0679  0.2159
11214TIP3    H155057   5.337   0.780  15.176  0.8198 -0.3542  1.2099
11214TIP3    H255058   5.342   0.931  15.185 -0.0100 -0.1230 -1.3887
11215TIP3   OH255059   5.258   2.433   1.426 -0.3200 -0.5983 -0.7558
11215TIP3    H155060   5.173   2.391   1.437 -0.3538 -0.4407 -0.4071
11215TIP3    H255061   5.236   2.521   1.396 -0.2345 -0.9834 -1.9832
11216TIP3   OH255062   0.729   1.506   4.000  0.5490 -0.4987  0.7389
11216TIP3    H155063   0.749   1.585   3.950 -0.8863  0.2781  1.3115
11216TIP3    H255064   0.646   1.475   3.963 -0.2816 -0.1888  2.2417
11217TIP3   OH255065   4.353   2.640   3.645  0.4902 -0.0179  0.1511
11217TIP3    H155066   4.391   2.726   3.627 -0.8545  0.4458 -0.6093
11217TIP3    H255067   4.272   2.638   3.593 -0.1611 -1.2355  1.1536
11218TIP3   OH255068   2.454   1.559   3.176 -0.4404  0.5788 -0.0348
11218TIP3    H155069   2.362   1.554   3.149 -0.1832 -0.4409 -0.8088
11218TIP3    H255070   2.494   1.617   3.111  0.2834 -2.2679 -2.3730
11219TIP3   OH255071   1.167   0.936  14.397 -0.6882  0.3118  0.3192
11219TIP3    H155072   1.124   0.927  14.483  0.5011  1.4233  1.0589
11219TIP3    H255073   1.184   0.846  14.370 -2.2314 -0.1122  0.6300
11220TIP3   OH255074   4.562   3.031   1.909  0.0664  0.1603  0.5196
11220TIP3    H155075   4.592   2.946   1.939 -1.0538 -0.6830 -0.6391
11220TIP3    H255076   4.485   3.012   1.856  0.6427  1.7493 -0.9932
11221TIP3   OH255077   4.720   1.119  12.506 -0.5298  0.5442  1.0490
11221TIP3    H155078   4.740   1.207  12.476  0.4202  0.3383  1.0323
11221TIP3    H255079   4.783   1.103  12.577  0.0555 -0.5174  0.3095
11222TIP3   OH255080   0.729   5.530  12.730 -0.1487 -0.0660  0.1175
11222TIP3    H155081   0.652   5.552  12.679 -0.7874  0.5673  1.2932
11222TIP3    H255082   0.744   5.437  12.713 -0.5888  0.0317 -0.8636
11223TIP3   OH255083   3.672   5.394   1.335  0.5822  0.0191  0.0840
11223TIP3    H155084   3.739   5.377   1.269  1.7685 -0.7053  1.4436
11223TIP3    H255085   3.642   5.307   1.362  0.6752  0.2806  1.0562
11224TIP3   OH255086   5.095   3.469   5.723  0.7343 -0.2160  0.6707
11224TIP3    H155087   5.168   3.407   5.727 -0.3942 -1.5460  1.7468
11224TIP3    H255088   5.084   3.487   5.630  0.6354 -2.2472  0.2425
11225TIP3   OH255089   4.736   0.062  15.131 -0.3474  0.8430  0.4131
11225TIP3    H155090   4.676   0.111  15.187 -0.3169 -0.2734  1.4654
11225TIP3    H255091   4.823   0.094  15.155 -0.3097  0.1165  1.2771
11226TIP3   OH255092   1.420   4.243   5.568 -0.1110 -0.0200 -0.5937
11226TIP3    H155093   1.485   4.312   5.556 -0.7135  0.6128 -0.2474
11226TIP3    H255094   1.463   4.164   5.534  0.9373  0.3271 -0.1063
11227TIP3   OH255095   6.211   2.728   5.375 -0.4142  0.4354 -0.4617
11227TIP3    H155096   6.144   2.681   5.326 -0.3882  1.1185 -1.1700
11227TIP3    H255097   6.182   2.724   5.466 -0.6415 -0.5527 -0.5688
11228TIP3   OH255098   0.483   6.262  14.212 -0.3353 -0.2014  0.0514
11228TIP3    H155099   0.555   6.204  14.238 -0.9265 -0.3586  1.4596
11228TIP3    H255100   0.488   6.335  14.274 -0.5430  0.4852 -0.7314
11229TIP3   OH255101   3.928   0.379  13.950  0.0744  0.3592 -0.1198
11229TIP3    H155102   3.985   0.336  14.014  0.3263  0.2415 -0.4218
11229TIP3    H255103   3.966   0.466  13.939 -0.3608  0.6243  0.3949
11230TIP3   OH255104   2.966   0.229  10.129  0.4266 -0.7690 -0.2900
11230TIP3    H155105   2.996   0.157  10.185  1.8374 -0.5408 -0.7313
11230TIP3    H255106   3.041   0.287  10.122 -0.6995  0.7896  0.0723
11231TIP3   OH255107   4.697   3.868   5.539 -0.2182 -0.4247  0.4292
11231TIP3    H155108   4.682   3.889   5.631 -3.6105 -0.5534  0.0286
11231TIP3    H255109   4.667   3.778   5.530  1.2621 -0.8448 -0.6037
11232TIP3   OH255110   2.761   4.863   3.462 -0.2824 -0.0975 -0.2079
11232TIP3    H155111   2.810   4.939   3.493  0.6678 -0.1721 -1.4152
11232TIP3    H255112   2.673   4.875   3.497  1.0558 -1.2036  4.1624
11233TIP3   OH255113   5.236   5.973  11.968  0.3587 -0.3818  0.1905
11233TIP3    H155114   5.260   6.063  11.946  1.0803 -0.3640  1.0127
11233TIP3    H255115   5.294   5.919  11.915  0.1984 -0.3584 -0.0082
11234TIP3   OH255116   5.349   6.214  12.209 -0.3220  0.2150  0.0594
11234TIP3    H155117   5.262   6.184  12.235  0.0688 -0.3442  0.7563
11234TIP3    H255118   5.343   6.224  12.114 -0.9915 -0.3541  0.0287
11235TIP3   OH255119   0.384   6.421   2.544  0.6470 -0.8209 -0.6081
11235TIP3    H155120   0.350   6.397   2.630  0.6079  2.0235  0.2764
11235TIP3    H255121   0.466   6.371   2.537  1.3380 -0.1716  1.6891
11236TIP3   OH255122   2.618   1.531  14.206 -0.4370 -0.2912  0.7080
11236TIP3    H155123   2.695   1.586  14.192 -0.9377 -0.0826 -1.5897
11236TIP3    H255124   2.556   1.587  14.252 -0.2947  0.5040 -0.0520
11237TIP3   OH255125   6.589   2.153   4.389 -0.2235 -0.8096 -0.2400
11237TIP3    H155126   6.584   2.167   4.295  2.5831 -0.6088 -0.4475
11237TIP3    H255127   6.584   2.058   4.400  2.2751 -1.1158 -0.9689
11238TIP3   OH255128   2.947   3.673  14.330  0.0770  0.6243  0.2614
11238TIP3    H155129   3.025   3.643  14.283  1.4179  3.1452  0.6544
11238TIP3    H255130   2.959   3.639  14.419  0.1110  0.0067  0.0252
11239TIP3   OH255131   1.238   2.836   3.195  0.5046 -0.4175 -0.1648
11239TIP3    H155132   1.329   2.862   3.211  0.5375  0.0496 -1.0734
11239TIP3    H255133   1.240   2.795   3.109  0.0880 -1.6594  0.3938
11240TIP3   OH255134   4.899   5.410   4.436 -0.4750  0.0422 -0.1939
11240TIP3    H155135   4.914   5.439   4.526 -1.5159 -0.3929  0.1420
11240TIP3    H255136   4.838   5.475   4.401  0.0590  0.3023 -0.6394
11241TIP3   OH255137   4.549   1.055   2.959  0.2696 -0.0221 -0.1478
11241TIP3    H155138   4.545   0.960   2.943  0.2405 -0.1962  0.8445
11241TIP3    H255139   4.461   1.087   2.937  0.1650 -0.2832 -0.1139
11242TIP3   OH255140   5.512   5.592  11.305 -0.1318 -0.3767 -0.3612
11242TIP3    H155141   5.467   5.593  11.221  1.9555 -1.4345 -1.5478
11242TIP3    H255142   5.450   5.550  11.365 -0.5318 -2.3147 -2.0594
11243TIP3   OH255143   1.603   5.874   1.544 -0.3334  0.2218 -0.5472
11243TIP3    H155144   1.644   5.943   1.492  1.9137 -1.1126 -0.6908
11243TIP3    H255145   1.634   5.793   1.504 -1.2274 -0.8776  0.8808
11244TIP3   OH255146   1.035   0.706  16.546 -0.2229 -0.5438  0.1348
11244TIP3    H155147   0.971   0.666  16.605 -0.1817 -0.5450  0.1782
11244TIP3    H255148   1.010   0.799  16.544 -0.0338 -0.4874  0.3989
11245TIP3   OH255149   1.015   3.655   0.750 -0.0760  0.2102  0.6427
11245TIP3    H155150   0.958   3.632   0.677  0.0240 -1.0120  0.9267
11245TIP3    H255151   1.099   3.678   0.710 -0.4501  0.9951  0.2919
11246TIP3   OH255152   1.665   1.882   5.007 -0.5710  0.4289  0.3432
11246TIP3    H155153   1.734   1.857   4.946 -0.7180 -1.5468  0.9301
11246TIP3    H255154   1.588   1.895   4.951 -0.1066  1.1789 -0.1456
11247TIP3   OH255155   5.411   4.832  14.190 -0.0300 -0.0906  0.9763
11247TIP3    H155156   5.332   4.823  14.137 -0.8398 -2.9332  2.4365
11247TIP3    H255157   5.468   4.761  14.162  0.3819 -0.3987  2.4802
11248TIP3   OH255158   5.981   3.685  12.570  0.5338 -0.5303  0.2826
11248TIP3    H155159   6.011   3.760  12.622  0.2673 -0.5941  0.5368
11248TIP3    H255160   5.887   3.700  12.560  0.4269 -0.9889  0.5961
11249TIP3   OH255161   2.484   0.934  11.486  0.2236 -0.1100 -0.1234
11249TIP3    H155162   2.515   0.974  11.567 -1.2690  0.4523  0.2037
11249TIP3    H255163   2.532   0.852  11.480  0.6158  0.0017  1.1567
11250TIP3   OH255164   5.368   2.803   0.126 -0.1084 -0.0318 -0.5772
11250TIP3    H155165   5.416   2.869   0.076 -0.7352 -0.0537 -1.2202
11250TIP3    H255166   5.288   2.848   0.153 -0.6077 -0.5622 -1.1448
11251TIP3   OH255167   2.168   2.567   5.279 -0.6032 -0.0438 -0.1753
11251TIP3    H155168   2.202   2.637   5.336 -0.1454  0.1059 -0.6169
11251TIP3    H255169   2.076   2.588   5.268 -0.4943  0.4344 -0.2137
11252TIP3   OH255170   0.852   2.252  12.367  0.1249 -0.3435  0.1332
11252TIP3    H155171   0.820   2.163  12.356  1.7747 -0.9606 -0.0277
11252TIP3    H255172   0.828   2.276  12.456  0.2286 -1.2088  0.4045
11253TIP3   OH255173   3.684   5.466  12.519 -0.5920  0.7887 -0.2412
11253TIP3    H155174   3.724   5.420  12.593 -0.2183  3.3401  1.2780
11253TIP3    H255175   3.740   5.444  12.444  0.8819  0.5363  0.8884
11254TIP3   OH255176   1.078   4.695   1.280  0.6091 -0.6279 -0.2256
11254TIP3    H155177   1.061   4.606   1.309 -2.1761  0.0520  0.5544
11254TIP3    H255178   1.000   4.720   1.231  0.8092  1.7233  0.5046
11255TIP3   OH255179   4.111   1.754   0.630 -0.0104  0.3283  0.2417
11255TIP3    H155180   4.107   1.751   0.534  0.6350  0.5004  0.2026
11255TIP3    H255181   4.194   1.711   0.652  0.9822  2.2835  0.5896
11256TIP3   OH255182   6.131   5.398   4.600 -0.4972  0.1265 -0.1324
11256TIP3    H155183   6.124   5.493   4.594  0.8044  0.1423 -2.4803
11256TIP3    H255184   6.046   5.370   4.635 -0.6755  2.1525  1.2284
11257TIP3   OH255185   6.312   2.764  12.304  0.0002  0.5868  0.2461
11257TIP3    H155186   6.223   2.730  12.313 -0.0495  0.8745  0.9132
11257TIP3    H255187   6.300   2.859  12.297  0.0999  0.4841 -2.0839
11258TIP3   OH255188   5.727   3.405  12.341  0.2195  0.3587 -0.4115
11258TIP3    H155189   5.753   3.380  12.430 -0.1036  1.2932 -0.0377
11258TIP3    H255190   5.673   3.332  12.310 -1.9530  1.1597  1.2018
11259TIP3   OH255191   3.214   2.613  15.558  0.5520  0.2189  0.2465
11259TIP3    H155192   3.176   2.664  15.487  3.5470  5.1175  1.7091
11259TIP3    H255193   3.306   2.604  15.536  0.9823 -0.7143  2.1822
11260TIP3   OH255194   1.789   2.258   6.178 -0.5649  0.1013 -0.1551
11260TIP3    H155195   1.721   2.320   6.206 -0.2348 -0.0146  0.9517
11260TIP3    H255196   1.871   2.297   6.208 -0.1932 -0.0179 -1.0122
11261TIP3   OH255197   1.069   1.994   5.844 -0.2460  0.0220  0.3982
11261TIP3    H155198   0.976   1.999   5.863 -0.1771  1.5988  0.4708
11261TIP3    H255199   1.080   1.913   5.795 -1.8301  0.3486 -0.5551
11262TIP3   OH255200   2.587   3.586  13.505 -0.1450 -0.3609  0.1284
11262TIP3    H155201   2.651   3.566  13.573  0.2437  1.2455  0.2674
11262TIP3    H255202   2.525   3.644  13.547 -0.1979  0.2259 -0.7443
11263TIP3   OH255203   1.904   1.299  11.772  0.5770 -0.0530 -0.4477
11263TIP3    H155204   1.893   1.205  11.760  1.0845 -0.3406  1.1146
11263TIP3    H255205   1.855   1.319  11.851 -0.0330  1.1254 -1.0991
11264TIP3   OH255206   5.926   4.607   4.554  0.3073 -0.6999  0.0658
11264TIP3    H155207   5.918   4.695   4.519 -2.4313 -1.5853 -1.8957
11264TIP3    H255208   5.841   4.565   4.534  1.4146 -3.7064  1.0528
11265TIP3   OH255209   6.359   1.358   1.995 -0.5083  0.3299 -0.2950
11265TIP3    H155210   6.396   1.279   2.035  1.0425  0.8284 -0.6847
11265TIP3    H255211   6.332   1.329   1.907  1.7443  0.5847 -1.1405
11266TIP3   OH255212   0.358   0.040  16.130  0.2583  0.4502 -0.0988
11266TIP3    H155213   0.403   0.003  16.207  1.3162  2.6388  0.4026
11266TIP3    H255214   0.267   0.050  16.158 -0.3734 -2.6121 -0.6153
11267TIP3   OH255215   4.048   0.757   3.455 -0.1652  0.1239 -0.8954
11267TIP3    H155216   4.050   0.688   3.389  0.4771  0.0994 -0.8513
11267TIP3    H255217   4.136   0.794   3.454 -0.0951  0.0122  0.0634
11268TIP3   OH255218   1.489   1.421  17.049  0.0609  0.3395 -0.2430
11268TIP3    H155219   1.471   1.452  16.961 -1.4745 -1.3837 -0.6021
11268TIP3    H255220   1.403   1.410  17.089  0.7145  0.6708  1.3266
11269TIP3   OH255221   6.400   5.973   2.088  0.5956  0.2030 -0.2692
11269TIP3    H155222   6.355   5.973   2.003 -0.9430  0.4709  0.5001
11269TIP3    H255223   6.375   5.889   2.128  0.9611  0.2652  0.0896
11270TIP3   OH255224   6.644   5.340  11.891  0.4612 -0.0019  0.3417
11270TIP3    H155225   6.690   5.319  11.810  0.9084 -2.6608  1.2155
11270TIP3    H255226   6.552   5.344  11.866  0.6066 -0.6859 -0.3153
11271TIP3   OH255227   3.927   2.330   2.968 -0.2432 -0.1625 -0.3470
11271TIP3    H155228   3.967   2.279   2.897  1.1157 -0.4804  0.6233
11271TIP3    H255229   3.876   2.266   3.017  0.1241 -0.2678 -0.0990
11272TIP3   OH255230   5.681   3.169  12.896 -0.3381  0.8025 -0.0693
11272TIP3    H155231   5.702   3.111  12.969  0.0073  0.2781 -0.5787
11272TIP3    H255232   5.723   3.129  12.821 -1.3327  0.9320 -0.7073
11273TIP3   OH255233   1.218   0.947  12.808 -0.4129 -0.0997 -0.4536
11273TIP3    H155234   1.150   0.883  12.827 -0.9476 -0.6294 -3.6100
11273TIP3    H255235   1.172   1.031  12.802  0.0456  0.4250  2.0522
11274TIP3   OH255236   3.733   6.102  11.402 -0.2559 -0.6232 -0.2464
11274TIP3    H155237   3.789   6.166  11.358 -0.6419 -0.8818 -1.1490
11274TIP3    H255238   3.780   6.078  11.481  0.0672  0.4973 -0.0833
11275TIP3   OH255239   6.739   4.589   1.886  0.5129 -0.1989 -0.1924
11275TIP3    H155240   6.650   4.558   1.899  0.3510  0.5837  0.6117
11275TIP3    H255241   6.787   4.513   1.853 -0.1455 -0.9666  0.6139
11276TIP3   OH255242   1.080   2.890  15.866 -0.3012 -0.4301  0.0563
11276TIP3    H155243   1.063   2.796  15.868  0.7762 -0.7061 -1.6177
11276TIP3    H255244   1.175   2.898  15.871 -0.3360  0.5177 -0.5146
11277TIP3   OH255245   4.251   5.564   1.799 -0.0572  0.2692  0.1727
11277TIP3    H155246   4.159   5.547   1.815 -0.0709  1.1902  1.1731
11277TIP3    H255247   4.280   5.491   1.744 -1.1363 -0.5504  0.6687
11278TIP3   OH255248   2.198   4.491  16.325  0.3521 -0.0245 -0.3819
11278TIP3    H155249   2.196   4.440  16.244 -0.6910 -0.2172 -0.2378
11278TIP3    H255250   2.110   4.485  16.360  0.5251  0.9069  0.2545
11279TIP3   OH255251   4.333   1.208   3.964 -0.6397 -0.1139  0.3574
11279TIP3    H155252   4.252   1.208   4.015 -0.5079 -1.6615  0.6251
11279TIP3    H255253   4.394   1.156   4.017  0.4409  0.7553  0.0081
11280TIP3   OH255254   5.969   5.438  15.750 -0.0100  0.6613  0.0084
11280TIP3    H155255   5.947   5.364  15.806  0.1560  0.7662  0.2137
11280TIP3    H255256   5.964   5.404  15.661  1.3923  0.0438  0.1419
11281TIP3   OH255257   1.975   2.342   0.750 -0.0001  0.0861 -0.6092
11281TIP3    H155258   1.981   2.357   0.656  2.6753 -1.8789 -0.8583
11281TIP3    H255259   2.030   2.411   0.789 -0.3449  0.3322 -0.5579
11282TIP3   OH255260   0.736   3.837   1.081 -0.3060 -0.2096  0.2552
11282TIP3    H155261   0.748   3.926   1.047  0.5405 -0.2311  0.4814
11282TIP3    H255262   0.734   3.781   1.003 -0.5689 -0.0238  0.1272
11283TIP3   OH255263   5.449   0.824  15.920  0.6202 -0.5585  0.7183
11283TIP3    H155264   5.523   0.816  15.981  0.6857 -2.8205  0.4158
11283TIP3    H255265   5.403   0.740  15.927  0.5652 -0.8784 -2.2340
11284TIP3   OH255266   4.130   1.705  11.603  0.3147  0.1453 -0.0551
11284TIP3    H155267   4.187   1.771  11.562  0.5524  0.5001  0.8240
11284TIP3    H255268   4.176   1.680  11.683  0.0750 -0.8806 -0.2219
11285TIP3   OH255269   2.345   0.584  14.752 -0.0735 -0.5212  0.5117
11285TIP3    H155270   2.321   0.677  14.752 -1.5809 -0.7963 -2.1613
11285TIP3    H255271   2.264   0.539  14.778 -0.2739 -1.1674 -1.1316
11286TIP3   OH255272   5.880   5.860   4.638 -0.2150  0.3633  0.0731
11286TIP3    H155273   5.913   5.933   4.586  1.0225  0.1006  0.4620
11286TIP3    H255274   5.922   5.783   4.600  0.6962  0.1623  1.4166
11287TIP3   OH255275   3.868   1.062  15.622 -0.3025  0.1264 -0.0354
11287TIP3    H155276   3.962   1.052  15.609 -0.5198 -1.1511 -0.8159
11287TIP3    H255277   3.843   0.990  15.681 -0.9810 -0.4001 -0.9277
11288TIP3   OH255278   6.077   4.094   2.649 -0.1306 -0.1924 -0.2882
11288TIP3    H155279   5.995   4.075   2.694 -0.1340 -0.2058 -0.3002
11288TIP3    H255280   6.075   4.038   2.571 -0.2093 -0.0324 -0.4020
11289TIP3   OH255281   5.185   4.509   2.504  0.1059 -0.0415 -0.3426
11289TIP3    H155282   5.277   4.536   2.498  0.5435 -1.5777 -0.7783
11289TIP3    H255283   5.169   4.499   2.598  0.5027 -0.1639 -0.2862
11290TIP3   OH255284   3.369   4.646  11.542 -0.5293 -0.0159  0.0084
11290TIP3    H155285   3.289   4.594  11.546  0.6995 -1.9561  2.5437
11290TIP3    H255286   3.348   4.728  11.587 -1.6747  0.5069 -1.4194
11291TIP3   OH255287   2.442   2.703  11.917  0.3701  0.3341  0.8357
11291TIP3    H155288   2.478   2.752  11.843 -0.1142  0.3199  0.5861
11291TIP3    H255289   2.394   2.631  11.877  0.6873 -0.0838  1.1883
11292TIP3   OH255290   4.369   2.116  16.142  0.1457 -0.5443  0.2431
11292TIP3    H155291   4.356   2.207  16.169  0.4299 -0.3168 -0.3689
11292TIP3    H255292   4.370   2.119  16.046 -0.0903 -1.2262  0.2095
11293TIP3   OH255293   3.624   5.829  16.108  0.2797 -0.1637 -0.4558
11293TIP3    H155294   3.635   5.923  16.099  1.0031 -0.1470  0.5276
11293TIP3    H255295   3.683   5.791  16.042  1.1771  0.0467  0.2177
11294TIP3   OH255296   5.563   5.129  12.423 -0.0491 -0.2849  0.3760
11294TIP3    H155297   5.487   5.110  12.368  0.0546 -2.8555  0.9644
11294TIP3    H255298   5.626   5.170  12.364 -1.9258  2.1825 -0.0537
11295TIP3   OH255299   1.598   0.657  12.087  0.2914 -0.1187  1.1630
11295TIP3    H155300   1.529   0.624  12.029 -0.6451  1.4734  1.3210
11295TIP3    H255301   1.637   0.578  12.124 -1.6195 -1.0876  1.2580
11296TIP3   OH255302   5.845   6.296  15.067 -0.1257 -0.3014 -0.2991
11296TIP3    H155303   5.869   6.343  15.147 -0.9095 -0.9498  0.3348
11296TIP3    H255304   5.761   6.255  15.088 -0.6295  0.0068 -1.6710
11297TIP3   OH255305   2.201   4.312   2.271  0.2355 -0.0325 -0.0595
11297TIP3    H155306   2.186   4.236   2.214  0.6351 -0.1080 -0.0692
11297TIP3    H255307   2.280   4.353   2.236 -0.2325  0.6566 -0.3364
11298TIP3   OH255308   5.532   2.521   1.387 -0.2463 -0.4639 -0.7296
11298TIP3    H155309   5.447   2.485   1.411 -0.9086  1.6488  0.3915
11298TIP3    H255310   5.595   2.455   1.415 -1.3960 -0.9331  0.9004
11299TIP3   OH255311   0.241   0.461   1.957  0.7007  0.5395 -0.0498
11299TIP3    H155312   0.260   0.371   1.930  0.4961  0.2412  0.7540
11299TIP3    H255313   0.169   0.452   2.020  1.5922  1.1148  1.0885
11300TIP3   OH255314   4.587   5.696  11.716  0.5458 -0.0647 -0.1091
11300TIP3    H155315   4.638   5.677  11.795  1.2002  0.6305 -0.3555
11300TIP3    H255316   4.650   5.734  11.655 -0.2087  0.5410 -0.5264
11301TIP3   OH255317   5.384   2.227  16.002 -0.3604  0.0315  0.3061
11301TIP3    H155318   5.401   2.312  15.961  0.8485 -0.2045  0.2955
11301TIP3    H255319   5.394   2.243  16.096 -1.4074  0.1736  0.4119
11302TIP3   OH255320   5.780   4.710  16.981  0.0096  0.3057  0.6523
11302TIP3    H155321   5.804   4.683  17.070  0.1306  1.7336  1.0724
11302TIP3    H255322   5.689   4.738  16.988 -0.4743 -0.9821 -0.0229
11303TIP3   OH255323   4.744   5.124   2.764 -0.5628 -0.0961  0.9639
11303TIP3    H155324   4.763   5.167   2.848 -0.6599 -1.5701  1.7690
11303TIP3    H255325   4.764   5.032   2.779  0.4073 -0.2458 -0.9650
11304TIP3   OH255326   2.381   4.985  11.843 -0.3195 -0.4534 -0.1971
11304TIP3    H155327   2.463   4.936  11.833 -0.0194  0.4336 -2.7949
11304TIP3    H255328   2.313   4.917  11.840  0.2185 -1.0377  0.3195
11305TIP3   OH255329   3.163   1.326  11.510  0.7779  0.4619  0.2000
11305TIP3    H155330   3.101   1.310  11.581  1.6399 -2.3047  0.4348
11305TIP3    H255331   3.113   1.309  11.430  0.5851  0.7324  0.2606
11306TIP3   OH255332   3.371   0.385  15.378 -0.4256 -0.3856 -0.1520
11306TIP3    H155333   3.324   0.311  15.415 -1.0274  0.6956  1.3673
11306TIP3    H255334   3.367   0.372  15.283 -2.9927 -0.8361 -0.0434
11307TIP3   OH255335   6.240   4.314  15.144  0.0957 -0.3443  0.0754
11307TIP3    H155336   6.171   4.380  15.144  1.5113  1.2140  1.3115
11307TIP3    H255337   6.193   4.231  15.140 -1.8979  0.6310  1.4720
11308TIP3   OH255338   6.684   5.010  16.934  0.0532 -0.0838 -0.0480
11308TIP3    H155339   6.763   4.974  16.974  0.3258 -0.2766 -0.7534
11308TIP3    H255340   6.692   5.105  16.949 -0.0638 -0.1829  0.7223
11309TIP3   OH255341   5.488   4.685   2.023 -0.0478  0.1831  0.2403
11309TIP3    H155342   5.473   4.752   1.955 -1.0633 -0.3323 -0.0676
11309TIP3    H255343   5.573   4.647   2.001 -1.1160 -1.2104 -1.8805
11310TIP3   OH255344   4.465   4.117   5.556 -0.3558  0.2180 -0.1454
11310TIP3    H155345   4.408   4.076   5.621 -0.8102  0.6469 -0.2691
11310TIP3    H255346   4.552   4.080   5.573 -0.7173 -0.6377 -0.1291
11311TIP3   OH255347   6.704   3.025  12.290 -0.2750  0.5918 -0.0346
11311TIP3    H155348   6.743   3.085  12.227  0.7663  0.8313  0.8155
11311TIP3    H255349   6.729   3.060  12.375  0.4296 -1.0777  0.4843
11312TIP3   OH255350   0.350   2.863   4.634 -0.2838 -0.2284 -0.0342
11312TIP3    H155351   0.355   2.929   4.703  0.6309  0.6074 -0.8759
11312TIP3    H255352   0.379   2.782   4.677 -1.4735 -0.1288  1.0233
11313TIP3   OH255353   4.025   5.900  11.430 -0.1878  0.3421 -0.1380
11313TIP3    H155354   3.992   5.810  11.436 -0.6647  0.5220 -0.0716
11313TIP3    H255355   3.979   5.938  11.356  2.1770 -0.3718 -2.1334
11314TIP3   OH255356   3.716   5.860   5.940 -0.8357  0.1750  0.0127
11314TIP3    H155357   3.635   5.861   5.992 -0.8836  0.2042 -0.0638
11314TIP3    H255358   3.781   5.902   5.997 -0.8443  0.0395  0.1240
11315TIP3   OH255359   3.028   0.072   3.471  0.5318  0.0638 -0.1986
11315TIP3    H155360   3.114   0.073   3.514  0.3085  3.7138  0.5266
11315TIP3    H255361   2.966   0.057   3.543  0.4485 -0.2807 -0.3415
11316TIP3   OH255362   5.790   2.582   6.616  0.2575  0.4210 -0.0227
11316TIP3    H155363   5.822   2.527   6.544 -1.8010  1.2075 -1.6246
11316TIP3    H255364   5.818   2.671   6.593 -0.9219  0.7654 -0.2006
11317TIP3   OH255365   1.964   1.114   0.661  0.2224 -0.4836 -0.0697
11317TIP3    H155366   1.905   1.188   0.644 -0.8245 -0.9881  1.1892
11317TIP3    H255367   2.048   1.155   0.681  0.0014  0.3093 -0.7130
11318TIP3   OH255368   2.947   6.078  16.696  0.0570  0.0678  0.2679
11318TIP3    H155369   2.896   6.017  16.643 -1.6604  0.7745  1.0362
11318TIP3    H255370   2.962   6.153  16.637  0.4138 -0.2368 -0.0316
11319TIP3   OH255371   6.187   2.656   6.298  0.0128  0.5653 -0.0205
11319TIP3    H155372   6.130   2.668   6.374  0.1903 -0.1083  0.2256
11319TIP3    H255373   6.130   2.617   6.231 -0.2651  1.6083 -0.4101
11320TIP3   OH255374   0.997   0.429   6.042 -0.3456 -0.3235 -0.1202
11320TIP3    H155375   0.949   0.460   5.965  1.2616  1.4892 -0.4830
11320TIP3    H255376   0.976   0.492   6.110  1.4302  0.4938 -0.2843
11321TIP3   OH255377   0.682   4.444   0.361 -0.3394 -0.2612  0.2645
11321TIP3    H155378   0.703   4.492   0.441  0.7739  0.6004 -0.5120
11321TIP3    H255379   0.592   4.472   0.340 -0.4817 -0.1660  0.9749
11322TIP3   OH255380   5.910   2.447   2.334 -0.3690  0.4476 -0.2729
11322TIP3    H155381   5.879   2.533   2.304  1.0845  1.4981  1.1042
11322TIP3    H255382   5.964   2.415   2.262 -1.5937  0.2781 -1.1450
11323TIP3   OH255383   0.452   0.090   3.520  0.2909 -0.1405 -0.3601
11323TIP3    H155384   0.475   0.182   3.535  0.8807 -0.4737  0.8757
11323TIP3    H255385   0.363   0.094   3.485  0.6451  0.9379 -1.2223
11324TIP3   OH255386   0.217   0.001   1.167  0.3383  0.1860 -0.4087
11324TIP3    H155387   0.297   0.026   1.213 -0.0867  0.5763  0.1236
11324TIP3    H255388   0.168   0.083   1.159 -1.1291 -0.4489  1.4538
11325TIP3   OH255389   2.447   4.415   2.183 -0.6565  0.4320 -0.4716
11325TIP3    H155390   2.516   4.435   2.120 -1.5637  2.1265 -0.9944
11325TIP3    H255391   2.449   4.487   2.246 -0.3835 -0.7578  0.9329
11326TIP3   OH255392   0.348   5.398  11.326 -0.6274 -0.5755 -0.2677
11326TIP3    H155393   0.275   5.408  11.386  0.1307 -0.2510  0.6321
11326TIP3    H255394   0.339   5.310  11.291  0.0586 -1.5687  1.9128
11327TIP3   OH255395   5.890   4.397  15.707 -0.6275  0.2467 -0.2206
11327TIP3    H155396   5.912   4.463  15.772 -1.5262  1.1311 -0.7839
11327TIP3    H255397   5.813   4.353  15.743  0.2609 -0.8644  0.3885
11328TIP3   OH255398   2.381   4.091   1.574  0.2907 -0.1408  0.2056
11328TIP3    H155399   2.400   4.149   1.500  0.0102 -0.6997 -0.3069
11328TIP3    H255400   2.434   4.013   1.557 -0.3504 -0.5784  0.2002
11329TIP3   OH255401   3.046   0.655   1.422 -0.3723  0.2563  0.2593
11329TIP3    H155402   2.985   0.589   1.452 -1.3511  1.1643  0.3173
11329TIP3    H255403   3.131   0.611   1.419 -0.8426 -0.7236  1.1993
11330TIP3   OH255404   1.435   4.602  14.012 -0.0602  0.2197 -0.0982
11330TIP3    H155405   1.511   4.543  14.010 -0.7463 -0.6999  0.1576
11330TIP3    H255406   1.464   4.678  14.062  0.9539  0.2659 -0.7213
11331TIP3   OH255407   4.462   0.048   3.725 -0.0750 -0.4965 -0.0164
11331TIP3    H155408   4.396   0.108   3.760 -0.4291 -0.2454 -1.0706
11331TIP3    H255409   4.411  -0.022   3.684  0.3196 -2.2893  2.3726
11332TIP3   OH255410   5.265   6.585  15.647  0.6816 -0.0652  0.1707
11332TIP3    H155411   5.203   6.563  15.717 -0.6088 -1.7261 -1.3765
11332TIP3    H255412   5.266   6.507  15.591  3.4102  0.3240 -0.4616
11333TIP3   OH255413   1.943   6.351  11.746  0.6368  0.2621  0.1713
11333TIP3    H155414   1.925   6.445  11.741 -1.5270 -0.1242 -0.6231
11333TIP3    H255415   2.000   6.334  11.671 -0.0352  0.7445 -0.4681
11334TIP3   OH255416   2.815   0.415   2.985 -0.5703 -0.0368  0.3078
11334TIP3    H155417   2.895   0.427   3.036  1.7487  0.2529 -3.0276
11334TIP3    H255418   2.806   0.320   2.978 -1.5537 -0.1005  2.0752
11335TIP3   OH255419   6.630   2.049  11.924  0.3854  0.2215 -0.3097
11335TIP3    H155420   6.637   2.017  12.014  0.5903 -0.9397 -0.7284
11335TIP3    H255421   6.540   2.080  11.917 -0.8281 -3.0210 -0.7355
11336TIP3   OH255422   2.297   6.303   3.136 -0.3423  0.4519 -0.1812
11336TIP3    H155423   2.360   6.239   3.169 -0.4248  0.0758 -0.7462
11336TIP3    H255424   2.211   6.265   3.156 -0.3961  0.8733  0.4123
11337TIP3   OH255425   1.711   0.345   1.254 -0.1564  0.0252  0.2929
11337TIP3    H155426   1.711   0.312   1.165  2.1074  0.8877 -0.0968
11337TIP3    H255427   1.779   0.294   1.299  1.9081  2.5003  0.2415
11338TIP3   OH255428   2.700   3.607  16.185  0.5054  0.9231 -0.0149
11338TIP3    H155429   2.729   3.600  16.094  1.0797  1.0366  0.1570
11338TIP3    H255430   2.626   3.546  16.191  2.0584 -1.0482  0.0799
11339TIP3   OH255431   5.638   5.423  17.171 -0.1591  0.4593  0.2870
11339TIP3    H155432   5.646   5.511  17.207  0.0135  1.1509 -1.3286
11339TIP3    H255433   5.544   5.413  17.155 -0.4640 -0.5125  2.4145
11340TIP3   OH255434   2.880   0.691  13.997 -0.3525 -0.4090 -0.4385
11340TIP3    H155435   2.900   0.700  13.904  1.3762 -0.8181 -0.1412
11340TIP3    H255436   2.847   0.777  14.023  0.2672  0.0605 -1.1713
11341TIP3   OH255437   3.702   2.629  16.076 -0.5224 -0.5584  0.6798
11341TIP3    H155438   3.695   2.723  16.058 -1.9416 -0.9351 -1.0159
11341TIP3    H255439   3.766   2.596  16.013 -2.1731 -1.1516 -0.7723
11342TIP3   OH255440   5.577   3.289   1.344  0.0227 -0.2250  0.6322
11342TIP3    H155441   5.516   3.248   1.405 -0.3302 -1.0172 -0.2258
11342TIP3    H255442   5.663   3.256   1.370 -0.0326  0.0305  1.1548
11343TIP3   OH255443   1.953   6.010   1.386 -0.2188 -0.0464  0.3536
11343TIP3    H155444   2.007   5.939   1.420  0.5078  0.9312  1.3218
11343TIP3    H255445   2.015   6.067   1.339 -0.4609  0.8642  1.1079
11344TIP3   OH255446   6.413   2.407   1.571 -0.5401 -0.4967 -0.8726
11344TIP3    H155447   6.431   2.498   1.548  2.9815 -1.2774 -1.7262
11344TIP3    H255448   6.417   2.359   1.488  0.3382 -1.7649 -0.1440
11345TIP3   OH255449   0.264   4.689  13.840  0.8253 -0.1087 -0.1830
11345TIP3    H155450   0.318   4.697  13.761  1.0462  0.7789  0.0458
11345TIP3    H255451   0.176   4.712  13.812  1.4315  3.6738  0.4493
11346TIP3   OH255452   5.615   4.057  12.102 -0.5012 -0.2679 -0.4676
11346TIP3    H155453   5.707   4.040  12.080 -0.5913  0.3051 -1.3591
11346TIP3    H255454   5.610   4.153  12.109 -1.1613 -0.2463 -1.0801
11347TIP3   OH255455   1.821   1.551  16.612 -0.4494  0.2138  0.4857
11347TIP3    H155456   1.862   1.635  16.630 -0.8049  0.2384  1.2335
11347TIP3    H255457   1.739   1.573  16.567 -0.4406  0.2584  0.4913
11348TIP3   OH255458   1.555   5.494  16.035 -0.2094  0.2051 -0.2768
11348TIP3    H155459   1.640   5.531  16.061 -0.0112  0.7355 -1.6002
11348TIP3    H255460   1.490   5.553  16.072 -0.0094 -0.1036  0.5951
11349TIP3   OH255461   0.722   4.386   0.811 -0.1328 -0.2172  0.2716
11349TIP3    H155462   0.723   4.316   0.877  0.5281 -0.1790  0.3078
11349TIP3    H255463   0.643   4.436   0.831 -0.1263 -0.4144  0.8205
11350TIP3   OH255464   4.167   6.207  16.846 -0.7272  0.6688  0.1710
11350TIP3    H155465   4.230   6.267  16.807 -0.6113  0.2930 -0.2348
11350TIP3    H255466   4.096   6.263  16.878 -0.3140  1.0705  0.3869
11351TIP3   OH255467   2.002   4.789  13.253  0.1082 -0.1435  0.3295
11351TIP3    H155468   2.015   4.863  13.193  1.0368 -0.2850  0.3376
11351TIP3    H255469   1.995   4.713  13.195 -1.5270 -0.0014  0.2801
11352TIP3   OH255470   2.503   6.108  16.698 -0.0595 -0.4799 -0.7118
11352TIP3    H155471   2.417   6.149  16.705  0.5345  0.6026  0.5742
11352TIP3    H255472   2.515   6.062  16.781  1.6126  1.4990  0.2329
11353TIP3   OH255473   5.681   2.235  11.246  0.0491 -0.1354  0.2663
11353TIP3    H155474   5.690   2.142  11.224 -0.6506  0.1772 -1.4876
11353TIP3    H255475   5.767   2.272  11.227  0.1262 -0.2871  0.3106
11354TIP3   OH255476   3.389   4.289  13.187  0.3762  0.0280 -0.1508
11354TIP3    H155477   3.471   4.335  13.204 -1.3784  2.8155  1.5902
11354TIP3    H255478   3.386   4.218  13.251  1.7979 -0.7204 -0.8715
11355TIP3   OH255479   6.105   4.272  12.378 -0.8068 -0.1952  0.3138
11355TIP3    H155480   6.019   4.277  12.421 -0.3473 -0.2822  1.2901
11355TIP3    H255481   6.089   4.298  12.288 -1.2846  3.3633  1.2556
11356TIP3   OH255482   0.253   4.834   4.466  0.3142  0.0062  0.1521
11356TIP3    H155483   0.236   4.904   4.403  0.5152 -0.0956 -0.0178
11356TIP3    H255484   0.316   4.871   4.528  1.1403 -0.3180 -0.4710
11357TIP3   OH255485   5.438   5.903   0.950 -0.2046 -0.3799 -0.3175
11357TIP3    H155486   5.523   5.873   0.917 -1.0830 -1.1440 -2.0526
11357TIP3    H255487   5.428   5.991   0.914 -0.0145 -0.1781  0.1291
11358TIP3   OH255488   3.711   0.422   4.846  0.7569 -0.4771  0.0975
11358TIP3    H155489   3.699   0.515   4.864  1.0729 -0.0134 -1.8909
11358TIP3    H255490   3.770   0.392   4.916  2.0869  1.2377 -0.2067
11359TIP3   OH255491   0.153   4.033   4.005 -0.0796 -0.3259 -0.1410
11359TIP3    H155492   0.134   3.996   3.919 -0.7988 -0.7814  0.2043
11359TIP3    H255493   0.214   3.971   4.045 -0.5156 -0.6322  0.0556
11360TIP3   OH255494   5.493   0.775   3.844 -0.3687 -0.1494 -0.2623
11360TIP3    H155495   5.483   0.727   3.926 -0.2949 -0.4648 -0.4394
11360TIP3    H255496   5.549   0.850   3.867 -0.1208 -0.3870 -0.0850
11361TIP3   OH255497   0.278   3.236  14.868  0.2716 -0.4467 -0.0710
11361TIP3    H155498   0.255   3.279  14.951  0.3497 -2.3184  0.9622
11361TIP3    H255499   0.257   3.302  14.801  0.2748  1.1443  1.4124
11362TIP3   OH255500   4.969   0.098  14.030  0.0659 -0.4556 -0.4081
11362TIP3    H155501   5.031   0.056  14.089 -0.9882 -0.6560  0.5829
11362TIP3    H255502   4.954   0.033  13.961  1.2384 -0.2465 -0.9035
11363TIP3   OH255503   6.742   3.797   1.555  0.6512  0.2495  0.0106
11363TIP3    H155504   6.717   3.712   1.590 -0.2106  0.4285 -0.1438
11363TIP3    H255505   6.774   3.847   1.630  0.7627 -0.0681  0.1729
11364TIP3   OH255506   5.265   5.451  14.831 -0.4500  0.4297  0.3347
11364TIP3    H155507   5.355   5.419  14.837 -1.0645 -1.6047 -0.5764
11364TIP3    H255508   5.271   5.527  14.771  0.1757 -2.3217 -3.4691
11365TIP3   OH255509   2.167   2.149  14.027 -0.2459 -0.3331  0.7347
11365TIP3    H155510   2.094   2.210  14.015 -0.2205 -0.3685  0.3908
11365TIP3    H255511   2.129   2.063  14.006  1.0418  0.0344 -4.7128
11366TIP3   OH255512   6.489   1.683   1.345  0.5540 -0.0159 -0.3117
11366TIP3    H155513   6.416   1.695   1.284  0.8913  1.4981 -0.4593
11366TIP3    H255514   6.519   1.772   1.364  2.0882 -0.5914  0.0916
11367TIP3   OH255515   6.217   1.787   4.098  0.0759 -0.6496 -0.3438
11367TIP3    H155516   6.200   1.858   4.037 -2.4912 -0.3712  0.5697
11367TIP3    H255517   6.153   1.799   4.168  3.5821 -0.2047  3.1640
11368TIP3   OH255518   6.049   1.367   2.079  0.2232  0.1641 -0.3875
11368TIP3    H155519   5.959   1.365   2.110 -0.1115 -1.6119 -1.3112
11368TIP3    H255520   6.077   1.458   2.091 -0.8437  0.2471  2.2112
11369TIP3   OH255521   0.669   3.340   2.481 -0.1447 -0.1269 -0.4017
11369TIP3    H155522   0.574   3.340   2.481 -0.1613 -0.9617  0.2465
11369TIP3    H255523   0.694   3.428   2.452 -1.1191  1.1704  2.3906
11370TIP3   OH255524   0.286   6.536  13.801 -0.7314 -0.1774 -0.9561
11370TIP3    H155525   0.235   6.472  13.751 -2.0705 -0.6495  0.8930
11370TIP3    H255526   0.365   6.489  13.826 -0.8246 -0.4739 -1.2081
11371TIP3   OH255527   2.843   3.542  14.921 -0.3874 -0.0764  0.1085
11371TIP3    H155528   2.806   3.490  14.850  1.8882 -0.5282 -0.8514
11371TIP3    H255529   2.818   3.495  15.001  0.6035 -2.0557 -0.6767
11372TIP3   OH255530   2.359   3.029  16.832  0.3097  0.2807  0.1913
11372TIP3    H155531   2.280   3.070  16.796  0.4956  0.0799 -0.4511
11372TIP3    H255532   2.397   2.982  16.758  0.4371 -0.5408  0.7721
11373TIP3   OH255533   1.129   4.795  12.436 -0.0591  0.3846 -0.2053
11373TIP3    H155534   1.128   4.811  12.341 -1.2551  0.1842 -0.2360
11373TIP3    H255535   1.154   4.703  12.444 -0.9009  0.1325 -0.3817
11374TIP3   OH255536   5.481   5.253  15.387 -0.4996  0.0576  0.2647
11374TIP3    H155537   5.460   5.342  15.358  0.0597 -0.0308 -0.4190
11374TIP3    H255538   5.400   5.204  15.372 -2.1275  1.1853  4.0392
11375TIP3   OH255539   1.306   1.194  11.528  0.4758  0.0080  0.3185
11375TIP3    H155540   1.394   1.156  11.527  0.1320 -0.8224 -0.7134
11375TIP3    H255541   1.280   1.191  11.620  1.4221  0.0234  0.6013
11376TIP3   OH255542   1.266   3.981  13.939  0.4316  0.3489  0.0893
11376TIP3    H155543   1.328   4.025  13.881  0.9769 -0.9219 -0.3229
11376TIP3    H255544   1.183   3.986  13.893  0.8938 -0.8067 -0.9339
11377TIP3   OH255545   4.474   3.635   0.021 -0.2492  0.0500 -0.4128
11377TIP3    H155546   4.432   3.712   0.059  0.0051 -1.1448  2.5810
11377TIP3    H255547   4.402   3.588  -0.023 -1.4139 -0.2374  1.6681
11378TIP3   OH255548   4.379   5.374  13.372 -0.0494  0.1201  0.0504
11378TIP3    H155549   4.390   5.440  13.303 -0.0561 -0.5992 -0.6422
11378TIP3    H255550   4.386   5.290  13.327 -0.1539 -0.3616  0.9132
11379TIP3   OH255551   6.534   2.951  14.741 -0.3445  0.5484  0.5433
11379TIP3    H155552   6.601   3.003  14.784  0.7726  0.4169 -0.9702
11379TIP3    H255553   6.581   2.901  14.675 -1.8998  0.2556 -0.3911
11380TIP3   OH255554   1.438   1.877   4.832 -0.0326  0.1101 -0.7393
11380TIP3    H155555   1.441   1.969   4.809  0.4656  0.4907  0.7377
11380TIP3    H255556   1.377   1.873   4.906  0.7078 -0.5731 -0.1429
11381TIP3   OH255557   3.274   0.722  13.067 -0.2539 -0.0312 -0.0076
11381TIP3    H155558   3.249   0.682  13.150 -1.8382 -0.8191 -0.8366
11381TIP3    H255559   3.282   0.649  13.007 -2.5886  0.7696 -1.4009
11382TIP3   OH255560   6.003   0.533   0.765 -0.2453 -0.3994 -0.1813
11382TIP3    H155561   5.945   0.489   0.826  1.5006 -1.8029  0.5795
11382TIP3    H255562   6.001   0.625   0.790 -0.4762 -0.7739  1.2305
11383TIP3   OH255563   6.507   1.017   4.920  0.5812  0.1898 -0.2284
11383TIP3    H155564   6.463   0.937   4.948 -0.4726  1.2556  1.3221
11383TIP3    H255565   6.594   0.988   4.892  0.5611 -1.3835  1.1957
11384TIP3   OH255566   4.433   3.036  11.952  0.6265  0.0154 -0.1910
11384TIP3    H155567   4.504   3.002  11.898  0.6120  0.1502 -0.2956
11384TIP3    H255568   4.387   3.097  11.895 -1.2183 -2.0427 -1.0570
11385TIP3   OH255569   0.559   0.664  12.898  0.2638 -0.2130  0.3551
11385TIP3    H155570   0.602   0.749  12.910 -0.0605 -0.1622  1.1495
11385TIP3    H255571   0.535   0.663  12.805 -0.9792  1.1681  0.6241
11386TIP3   OH255572   0.313   3.147   5.974 -0.1453 -0.3155  0.3737
11386TIP3    H155573   0.364   3.228   5.983  2.7492 -2.0520  0.6273
11386TIP3    H255574   0.267   3.139   6.057  0.0324  0.7213  0.5914
11387TIP3   OH255575   3.708   1.920  14.782 -0.6486  0.3616 -0.1961
11387TIP3    H155576   3.612   1.917  14.780 -0.6544  0.6866 -0.5482
11387TIP3    H255577   3.734   1.833  14.809 -1.0738  0.5359  0.8138
11388TIP3   OH255578   4.659   0.396   4.404 -0.2440 -0.2588  0.1694
11388TIP3    H155579   4.664   0.473   4.348  0.5628 -0.3572  0.0977
11388TIP3    H255580   4.750   0.373   4.422 -0.4827 -0.8615  0.6503
11389TIP3   OH255581   3.392   1.546   1.845 -0.2217 -0.0937 -0.6064
11389TIP3    H155582   3.480   1.553   1.883 -0.3058  1.0996 -0.5723
11389TIP3    H255583   3.402   1.487   1.771 -0.1261 -2.8061  1.4328
11390TIP3   OH255584   5.628   3.700   5.979 -0.6049 -0.0540  0.7016
11390TIP3    H155585   5.715   3.731   5.953 -0.0767 -1.8165  0.2274
11390TIP3    H255586   5.639   3.672   6.070 -0.7441 -0.0512  0.7197
11391TIP3   OH255587   5.290   6.713   6.149  0.3570  0.1786 -0.0276
11391TIP3    H155588   5.374   6.667   6.161  0.5731  0.7940  0.9067
11391TIP3    H255589   5.230   6.667   6.208  0.0813 -0.1427 -0.5571
11392TIP3   OH255590   2.159   4.811  14.963 -0.3998 -0.3564  0.4424
11392TIP3    H155591   2.174   4.841  15.052 -0.8442 -1.1329  0.7894
11392TIP3    H255592   2.075   4.850  14.938  0.2109  0.7070 -0.0325
11393TIP3   OH255593   4.043   3.578   2.890  0.1263  0.3387  0.0198
11393TIP3    H155594   3.993   3.505   2.853 -0.6876  0.8200  0.1494
11393TIP3    H255595   4.011   3.655   2.842 -0.1524  0.8174  0.9555
11394TIP3   OH255596   0.968   0.760  13.155  0.5759 -0.4632 -0.2614
11394TIP3    H155597   0.920   0.843  13.163  1.9518  0.2819  0.8417
11394TIP3    H255598   0.915   0.697  13.203  0.9431  0.4905  1.4989
11395TIP3   OH255599   2.429   0.133  16.779 -0.3605 -0.0880 -0.5613
11395TIP3    H155600   2.503   0.078  16.807  0.2862  0.4527 -1.1706
11395TIP3    H255601   2.379   0.148  16.859 -0.2979 -1.1777 -0.3002
11396TIP3   OH255602   3.245   1.349  13.470 -0.1482  0.4602  0.6191
11396TIP3    H155603   3.293   1.381  13.394 -0.5949  1.1823  0.6349
11396TIP3    H255604   3.243   1.254  13.459 -1.7397  0.6566 -1.1884
11397TIP3   OH255605   6.093   1.851   2.353  0.4770 -0.3751  0.4657
11397TIP3    H155606   6.107   1.866   2.447  0.0640 -2.6336  0.9289
11397TIP3    H255607   6.005   1.884   2.336  0.8543  0.7921  0.6546
11398TIP3   OH255608   3.966   2.847  16.369  0.0399  0.3259  0.5433
11398TIP3    H155609   4.031   2.829  16.436 -1.0745  0.3867  1.6788
11398TIP3    H255610   3.883   2.852  16.417 -1.4701 -3.5802 -1.1876
11399TIP3   OH255611   5.714   3.382  11.486 -0.1407  0.0928  0.0768
11399TIP3    H155612   5.688   3.335  11.407 -0.5610 -1.1883  0.9392
11399TIP3    H255613   5.797   3.342  11.513  0.4850  1.1547 -0.2113
11400TIP3   OH255614   2.331   5.423  10.141 -0.2256  0.1040 -0.0474
11400TIP3    H155615   2.338   5.516  10.166 -0.2500  0.5994 -1.7532
11400TIP3    H255616   2.387   5.378  10.204  0.0066  1.3070  0.6524
11401TIP3   OH255617   0.817   4.348   0.105  0.1974  0.1377  0.0333
11401TIP3    H155618   0.787   4.417   0.164  0.5942  1.0329 -0.7864
11401TIP3    H255619   0.738   4.322   0.057  0.3251  1.1608 -0.7787
11402TIP3   OH255620   5.936   6.513  14.894  0.0448  0.0186 -0.7389
11402TIP3    H155621   5.926   6.423  14.926 -1.0130  0.1001 -0.8041
11402TIP3    H255622   5.965   6.562  14.971  1.0792 -0.4530 -0.8146
11403TIP3   OH255623   1.689   6.312   0.430 -0.0662  0.1132  0.0151
11403TIP3    H155624   1.729   6.343   0.511  0.7897  0.2925 -0.4629
11403TIP3    H255625   1.761   6.312   0.366  0.3150 -3.9207  0.2179
11404TIP3   OH255626   5.720   2.992  14.428 -0.2734 -0.2825 -0.1672
11404TIP3    H155627   5.647   3.050  14.405 -0.2803  1.1105  2.8669
11404TIP3    H255628   5.685   2.904  14.415 -2.1960  0.3643  0.2884
11405TIP3   OH255629   1.294   2.027   3.418  0.2393  0.5970  0.2404
11405TIP3    H155630   1.213   1.976   3.421 -0.2462  1.3729  2.7938
11405TIP3    H255631   1.343   1.991   3.344 -0.8399 -2.3482  0.8565
11406TIP3   OH255632   6.453   2.362  11.621 -0.5041 -0.4867 -0.1410
11406TIP3    H155633   6.370   2.325  11.651 -0.4589 -1.1278 -0.7809
11406TIP3    H255634   6.433   2.397  11.534 -0.2121 -0.2516 -0.1126
11407TIP3   OH255635   1.791   4.516   5.396 -0.4096 -0.8882  0.6865
11407TIP3    H155636   1.813   4.609   5.393 -1.0283 -0.7687 -1.1155
11407TIP3    H255637   1.862   4.473   5.349 -1.0169 -1.1207 -0.0342
11408TIP3   OH255638   3.617   4.195   3.072 -0.0713 -0.3319  0.1083
11408TIP3    H155639   3.700   4.234   3.097  0.6671 -1.9922  0.3737
11408TIP3    H255640   3.557   4.217   3.143 -0.4196  2.3777 -0.8948
11409TIP3   OH255641   4.802   5.840   1.417 -0.1212  0.0095  0.6381
11409TIP3    H155642   4.848   5.792   1.486  0.7416  0.6218  0.5132
11409TIP3    H255643   4.726   5.786   1.396  1.1082 -1.6001  0.1010
11410TIP3   OH255644   0.301   1.113  14.629  1.0037 -0.1172  0.6129
11410TIP3    H155645   0.247   1.085  14.703  0.9278 -1.4085  0.0896
11410TIP3    H255646   0.317   1.033  14.579  1.7384  0.5940 -0.3287
11411TIP3   OH255647   4.469   4.334  13.952 -0.3338 -0.0062 -0.1984
11411TIP3    H155648   4.504   4.408  13.903 -3.1327  0.5944 -1.4915
11411TIP3    H255649   4.535   4.265  13.941  1.1849  1.5100 -1.0501
11412TIP3   OH255650   6.169   2.897  14.937  0.2645  0.0186 -0.3217
11412TIP3    H155651   6.169   2.819  14.992 -0.6682  1.4678  1.9133
11412TIP3    H255652   6.141   2.867  14.851 -0.8482 -1.9861  0.6806
11413TIP3   OH255653   2.515   6.028   1.023  0.0121  0.2606  0.1070
11413TIP3    H155654   2.461   6.099   1.058  0.5257  0.8983 -0.3907
11413TIP3    H255655   2.602   6.066   1.014  0.3332 -0.4863  0.0047
11414TIP3   OH255656   6.001   2.709   4.580 -0.1022 -0.1085 -0.2912
11414TIP3    H155657   6.031   2.717   4.670  1.1890 -1.0768 -0.5971
11414TIP3    H255658   5.949   2.787   4.565 -0.4420  0.0117  1.3241
11415TIP3   OH255659   2.055   4.103   0.353 -0.1010 -0.1926 -0.0677
11415TIP3    H155660   2.050   4.127   0.261  1.0232 -0.3507 -0.1807
11415TIP3    H255661   2.039   4.009   0.355 -0.7064 -0.0980 -0.0228
11416TIP3   OH255662   4.552   0.650  16.853  0.5787  0.0511  0.1540
11416TIP3    H155663   4.531   0.725  16.908  0.5858  0.1087  0.0792
11416TIP3    H255664   4.646   0.636  16.867  0.5896  0.0922  0.1263
11417TIP3   OH255665   2.496   3.450  15.881 -0.1357  0.2374  0.4510
11417TIP3    H155666   2.497   3.480  15.972  0.1694  3.8599 -0.5604
11417TIP3    H255667   2.582   3.408  15.868  0.1635  0.4574  1.6068
11418TIP3   OH255668   3.889   2.232  11.947  0.6287 -0.3224  0.3832
11418TIP3    H155669   3.913   2.319  11.915 -2.8451  0.3860 -0.7526
11418TIP3    H255670   3.863   2.247  12.038 -1.8329  0.3818 -0.3373
11419TIP3   OH255671   3.940   5.572  13.299  0.1542 -1.1070 -0.3369
11419TIP3    H155672   3.971   5.562  13.389 -0.2736  0.8447  0.0586
11419TIP3    H255673   3.888   5.652  13.299  0.8470 -0.5813 -2.5143
11420TIP3   OH255674   5.345   5.519  16.031  0.1623  0.2396  1.0109
11420TIP3    H155675   5.339   5.609  16.064 -2.6302  0.0824  1.2238
11420TIP3    H255676   5.371   5.529  15.939 -0.6121  1.3522  0.8820
11421TIP3   OH255677   5.650   2.329   5.843  0.4723 -0.0788  0.1068
11421TIP3    H155678   5.576   2.284   5.802  1.5250 -1.8023  0.0171
11421TIP3    H255679   5.609   2.389   5.906 -1.0369 -2.3599  1.4815
11422TIP3   OH255680   6.622   1.806  14.150 -0.1437  0.3377  0.0437
11422TIP3    H155681   6.591   1.791  14.239 -1.2491  3.0236  0.2177
11422TIP3    H255682   6.717   1.792  14.155 -0.5205 -2.9464  0.7321
11423TIP3   OH255683   3.999   1.405  11.952  0.1725  0.0853 -0.2309
11423TIP3    H155684   4.014   1.395  12.046 -0.9405 -0.2840 -0.0690
11423TIP3    H255685   4.069   1.355  11.911  0.4943 -0.0043  0.4032
11424TIP3   OH255686   0.193   3.564  15.561 -0.3672 -0.1684  0.0391
11424TIP3    H155687   0.266   3.597  15.613  0.3531 -0.3829 -0.8101
11424TIP3    H255688   0.225   3.568  15.471 -1.5899  0.2068 -0.3976
11425TIP3   OH255689   0.917   3.824  13.609 -0.1386  0.1278 -0.4402
11425TIP3    H155690   0.977   3.755  13.581 -1.2151 -2.0975  2.2294
11425TIP3    H255691   0.866   3.844  13.530  0.1038 -2.3091 -1.3056
11426TIP3   OH255692   5.763   1.013   5.155  0.1988  0.3707 -0.2158
11426TIP3    H155693   5.779   1.100   5.118 -0.4054  1.4153  1.7959
11426TIP3    H255694   5.784   1.023   5.248 -0.2990 -1.5356  0.1401
11427TIP3   OH255695   5.803   4.671   3.128  0.3413  0.4476  0.6808
11427TIP3    H155696   5.800   4.656   3.034  1.5285 -0.4781  0.7684
11427TIP3    H255697   5.767   4.591   3.166 -0.6922  1.0509  1.0225
11428TIP3   OH255698   1.207   5.121  14.372 -0.1358 -0.3382 -0.2777
11428TIP3    H155699   1.183   5.196  14.317  1.4643  0.3144 -0.1164
11428TIP3    H255700   1.183   5.044  14.319 -0.8089  0.2695 -0.8755
11429TIP3   OH255701   5.431   5.297  10.933 -0.4063  0.5597 -0.0369
11429TIP3    H155702   5.524   5.291  10.955 -0.6082  0.6155  0.8560
11429TIP3    H255703   5.427   5.272  10.841  0.3444 -0.5389  0.2161
11430TIP3   OH255704   4.356   0.661  14.005 -0.5775  0.2619 -0.2677
11430TIP3    H155705   4.334   0.745  14.045 -1.4098 -0.0410 -0.0786
11430TIP3    H255706   4.341   0.597  14.075  2.7692  0.1839  0.5331
11431TIP3   OH255707   6.172   0.055   5.016  0.4617 -0.5758 -0.0037
11431TIP3    H155708   6.266   0.072   5.009  0.0076  3.1994  0.8398
11431TIP3    H255709   6.138   0.075   4.929  0.3646 -1.6910 -0.2368
11432TIP3   OH255710   2.598   0.442  14.459 -0.4865  0.4848 -0.2469
11432TIP3    H155711   2.629   0.434  14.369 -1.1613 -2.0227 -0.3200
11432TIP3    H255712   2.548   0.524  14.460  1.4228  1.7307 -1.5135
11433TIP3   OH255713   1.867   0.380   4.225  0.3469 -0.2999 -0.3983
11433TIP3    H155714   1.848   0.287   4.214  0.4354 -0.2946 -0.5979
11433TIP3    H255715   1.892   0.388   4.317  0.8564 -0.5641 -0.5127
11434TIP3   OH255716   0.641   6.187  12.142  0.2914 -0.2673  0.3432
11434TIP3    H155717   0.559   6.139  12.130  0.3685 -0.1042 -1.0416
11434TIP3    H255718   0.615   6.279  12.144  0.3956 -0.2380  0.3467
11435TIP3   OH255719   6.703   2.412   2.070  0.2625 -0.6806 -0.1321
11435TIP3    H155720   6.683   2.463   2.149  1.1779 -0.8599  0.2381
11435TIP3    H255721   6.737   2.329   2.104 -0.8646 -1.3986 -0.7293
11436TIP3   OH255722   0.468   0.759   5.083 -0.3500 -0.4303 -0.5214
11436TIP3    H155723   0.562   0.768   5.097 -0.3276  3.1711 -1.9584
11436TIP3    H255724   0.434   0.731   5.168  1.6942  1.7685  1.1707
11437TIP3   OH255725   0.859   4.735  11.415 -0.4287 -0.3443  0.0524
11437TIP3    H155726   0.946   4.771  11.397 -1.1880  2.7593  1.7974
11437TIP3    H255727   0.836   4.686  11.336  3.0488 -1.7396 -0.2633
11438TIP3   OH255728   4.178   6.266  10.789 -0.1617  0.1748  0.2361
11438TIP3    H155729   4.112   6.280  10.720  0.0905  1.2823  0.2075
11438TIP3    H255730   4.261   6.287  10.747  0.1080 -0.2330  0.5637
11439TIP3   OH255731   0.775   4.072  16.908 -0.3516 -0.3761 -0.4747
11439TIP3    H155732   0.755   4.012  16.980 -3.4175  0.5672 -0.4154
11439TIP3    H255733   0.847   4.125  16.942 -1.3198 -0.3548  1.7159
11440TIP3   OH255734   4.428   5.764   4.073  0.2156 -0.4340  0.4397
11440TIP3    H155735   4.499   5.819   4.039 -0.1430 -0.3803 -0.2404
11440TIP3    H255736   4.471   5.684   4.101  0.4151 -0.9029 -1.1112
11441TIP3   OH255737   5.709   5.446  11.474 -0.2833  0.4273 -0.9528
11441TIP3    H155738   5.694   5.397  11.393 -0.6326 -2.2805  0.6149
11441TIP3    H255739   5.794   5.487  11.462  0.2924 -1.0240 -2.2187
11442TIP3   OH255740   2.280   2.275   5.416 -0.1857 -0.3322  0.0525
11442TIP3    H155741   2.189   2.256   5.442 -0.1201 -0.3270  0.2868
11442TIP3    H255742   2.298   2.361   5.453 -0.3580  0.0405 -0.6969
11443TIP3   OH255743   0.847   0.305   4.303 -0.2102 -0.7079  0.9895
11443TIP3    H155744   0.851   0.374   4.370 -1.5078  1.0253 -0.5931
11443TIP3    H255745   0.758   0.270   4.311 -0.7089  0.1668 -0.3726
11444TIP3   OH255746   4.337   1.161  13.949  0.5374 -0.1161 -0.1427
11444TIP3    H155747   4.377   1.084  13.989 -0.1845  0.5594  2.0057
11444TIP3    H255748   4.352   1.232  14.012 -2.0736  0.6353 -0.2317
11445TIP3   OH255749   3.524   3.463  11.584  0.0894  0.3331 -0.3943
11445TIP3    H155750   3.593   3.398  11.598  0.4139  0.3494 -1.7351
11445TIP3    H255751   3.558   3.519  11.514 -0.9274  0.8642 -0.4893
11446TIP3   OH255752   4.055   0.821  15.865  0.1297  0.1366 -0.2258
11446TIP3    H155753   4.111   0.855  15.795 -0.3409 -0.4064 -0.8773
11446TIP3    H255754   4.116   0.801  15.936  0.5279  1.3875 -0.1965
11447TIP3   OH255755   5.083   0.413   3.003  0.2892 -0.2494 -0.4943
11447TIP3    H155756   5.035   0.357   3.064  0.2791  1.6443  1.3487
11447TIP3    H255757   5.175   0.397   3.023  0.3276  2.6937  2.4911
11448TIP3   OH255758   6.171   0.971   3.325  0.5682 -0.0300  0.3669
11448TIP3    H155759   6.194   1.051   3.372 -0.5209  0.1338  0.6486
11448TIP3    H255760   6.160   1.000   3.234 -0.4604  0.2779  0.5802
11449TIP3   OH255761   1.404   5.008  15.149 -0.6111  0.0548 -0.0751
11449TIP3    H155762   1.422   4.967  15.234  0.2284  0.4642 -0.0392
11449TIP3    H255763   1.445   5.094  15.156 -0.6316  0.1268 -0.8565
11450TIP3   OH255764   1.806   4.112   4.707 -0.1146 -0.1230  0.4535
11450TIP3    H155765   1.737   4.178   4.710 -0.1365 -0.0036 -1.4926
11450TIP3    H255766   1.758   4.029   4.696  0.0004 -0.2178  0.6613
11451TIP3   OH255767   3.328   1.617  14.862 -0.5024  0.4766  0.6466
11451TIP3    H155768   3.261   1.657  14.807  2.5770  0.3516 -3.7856
11451TIP3    H255769   3.331   1.525  14.833  1.8079  0.5994  0.3265
11452TIP3   OH255770   5.460   1.031   5.994  0.2128 -0.1557 -0.3209
11452TIP3    H155771   5.378   1.050   6.040 -1.1205  0.2848 -2.6715
11452TIP3    H255772   5.469   0.936   5.999  0.1115 -0.1157  0.8138
11453TIP3   OH255773   5.772   6.691  14.111 -0.0909 -0.5649 -0.5588
11453TIP3    H155774   5.734   6.668  14.196  1.1655  0.4957  0.3434
11453TIP3    H255775   5.720   6.643  14.047 -1.6600 -0.6808  0.7388
11454TIP3   OH255776   3.269   2.599  15.137 -0.3999 -0.3806  0.2553
11454TIP3    H155777   3.175   2.592  15.125 -0.4559 -0.4219  0.6988
11454TIP3    H255778   3.295   2.516  15.178 -0.2336 -0.2201  0.4838
11455TIP3   OH255779   4.179   1.710  15.146 -0.1226  0.5976 -0.0052
11455TIP3    H155780   4.210   1.619  15.144  0.0439  0.6659 -0.4679
11455TIP3    H255781   4.244   1.759  15.098  0.2263  1.1107  0.9683
11456TIP3   OH255782   5.844   2.062   5.135 -0.4517 -0.9930  0.6351
11456TIP3    H155783   5.937   2.075   5.154 -0.7668 -1.4140  2.6530
11456TIP3    H255784   5.825   1.975   5.169 -2.3571  0.4362  3.6799
11457TIP3   OH255785   1.641   1.035   2.142 -0.3808 -0.6590  0.1360
11457TIP3    H155786   1.633   1.019   2.236  0.8072  1.1795  0.5820
11457TIP3    H255787   1.712   0.976   2.114 -0.1857 -0.6223  0.5465
11458TIP3   OH255788   3.394   5.481   3.580 -0.3807  0.3360  0.0481
11458TIP3    H155789   3.467   5.489   3.518 -1.9635  0.4874 -1.8942
11458TIP3    H255790   3.373   5.571   3.605 -0.4192  0.3417 -0.0056
11459TIP3   OH255791   4.046   0.258  11.428  0.0632 -0.3034 -0.4636
11459TIP3    H155792   4.011   0.191  11.370 -0.8053  0.2425 -0.5867
11459TIP3    H255793   4.080   0.209  11.504 -1.0831 -0.8468 -0.2877
11460TIP3   OH255794   5.632   3.456   2.911  0.1283 -0.5865 -0.0842
11460TIP3    H155795   5.665   3.381   2.861  0.8627 -0.3765  0.0895
11460TIP3    H255796   5.693   3.527   2.892 -0.4474 -0.0795 -0.0843
11461TIP3   OH255797   3.225   2.593   2.083 -0.1498 -0.3128 -0.4759
11461TIP3    H155798   3.278   2.538   2.141  2.3760  1.4008 -1.0095
11461TIP3    H255799   3.151   2.620   2.137  1.7847  0.7183  1.8697
11462TIP3   OH255800   2.116   4.453  16.906  0.1480  0.8501  0.2983
11462TIP3    H155801   2.166   4.449  16.987  0.5197  0.9564  0.0769
11462TIP3    H255802   2.092   4.545  16.896 -0.6446  0.6963  0.7321
11463TIP3   OH255803   5.811   1.472   2.338  0.1924  0.1863 -0.4059
11463TIP3    H155804   5.728   1.428   2.355  1.5303 -3.0615 -1.4397
11463TIP3    H255805   5.816   1.478   2.242  0.9059  0.9135 -0.3369
11464TIP3   OH255806   0.547   5.799  13.142 -0.1967  0.0077 -0.3853
11464TIP3    H155807   0.567   5.893  13.145  1.7708 -0.3350  3.0092
11464TIP3    H255808   0.566   5.773  13.052  0.6974  2.6051 -1.0292
11465TIP3   OH255809   5.454   5.724  16.661 -0.1018 -0.0110  0.2052
11465TIP3    H155810   5.409   5.796  16.617  0.8114 -0.3548 -1.3826
11465TIP3    H255811   5.429   5.646  16.610  0.0380 -0.6135  1.0365
11466TIP3   OH255812   3.863   3.542  11.817 -0.0074  0.7427  0.2264
11466TIP3    H155813   3.879   3.565  11.908  2.0960 -1.1251  0.4219
11466TIP3    H255814   3.860   3.446  11.816  0.6755  0.6794 -1.7350
11467TIP3   OH255815   1.316   0.472   5.308  0.3336 -0.1124 -0.4307
11467TIP3    H155816   1.411   0.477   5.308  0.4428 -1.5457  0.6925
11467TIP3    H255817   1.288   0.551   5.263  2.0251  0.7947  0.0271
11468TIP3   OH255818   5.621   6.751  15.514  0.3775  0.3609 -0.1111
11468TIP3    H155819   5.712   6.732  15.537 -0.2296 -1.2757  1.1396
11468TIP3    H255820   5.610   6.843  15.538  1.3834  0.2556  0.8937
11469TIP3   OH255821   4.872   5.743  15.503  0.0883  0.2842 -0.0225
11469TIP3    H155822   4.889   5.699  15.420  0.7253 -1.1582  0.8407
11469TIP3    H255823   4.957   5.749  15.546 -0.4458 -0.4130  1.1902
11470TIP3   OH255824   5.102   5.470  14.323  0.0615 -0.0791 -0.5937
11470TIP3    H155825   5.120   5.407  14.393 -2.0170 -1.1484 -0.9608
11470TIP3    H255826   5.125   5.555  14.361 -1.1404 -0.6086  1.4736
11471TIP3   OH255827   5.717   5.339   2.282 -0.2259  0.2777 -0.1577
11471TIP3    H155828   5.724   5.252   2.242 -0.1439 -0.2635  0.9774
11471TIP3    H255829   5.634   5.337   2.329 -1.4435  1.7146 -2.1253
11472TIP3   OH255830   1.462   5.296   5.042 -0.4774  0.2266  0.3550
11472TIP3    H155831   1.376   5.336   5.056 -1.0380 -0.9073  0.2916
11472TIP3    H255832   1.484   5.257   5.127  1.5258  3.2748  1.3777
11473TIP3   OH255833   3.358   2.635   0.678  0.1920  0.3079  0.6342
11473TIP3    H155834   3.359   2.717   0.728  1.6341 -0.2006  1.4854
11473TIP3    H255835   3.380   2.662   0.588 -0.4677  0.9692  0.6531
11474TIP3   OH255836   4.808   2.663  12.097 -0.4903  0.3878  0.1554
11474TIP3    H155837   4.873   2.602  12.062 -0.1588  1.0295 -0.3764
11474TIP3    H255838   4.784   2.626  12.182  1.5469  0.7860  0.9865
11475TIP3   OH255839   4.945   4.701  12.889 -0.2769 -0.1842  0.2457
11475TIP3    H155840   4.972   4.623  12.936 -1.4029 -1.0025 -0.4198
11475TIP3    H255841   5.021   4.724  12.835  0.5034 -0.0723  1.3569
11476TIP3   OH255842   2.604   5.443   0.946 -0.1757 -0.5326 -0.4803
11476TIP3    H155843   2.695   5.451   0.972 -0.5174 -1.4013  1.1633
11476TIP3    H255844   2.556   5.497   1.008 -1.0892 -3.2229  1.3774
11477TIP3   OH255845   5.089   0.851   1.184  0.8474  0.4256  0.7263
11477TIP3    H155846   5.068   0.791   1.256 -0.9814  1.0421  0.7644
11477TIP3    H255847   5.107   0.935   1.227  0.9601  0.4974  0.5392
11478TIP3   OH255848   0.717   0.145  12.794  0.5089  0.2500  0.2918
11478TIP3    H155849   0.748   0.218  12.740  0.6614 -0.0299 -0.0043
11478TIP3    H255850   0.631   0.172  12.825 -0.6821 -0.5399 -2.0603
11479TIP3   OH255851   3.590   0.678   3.678 -0.4451  0.1703 -0.1360
11479TIP3    H155852   3.650   0.605   3.661  1.8267  1.9319 -0.2684
11479TIP3    H255853   3.582   0.721   3.593 -1.7017  0.1581 -0.0405
11480TIP3   OH255854   3.856   4.878  12.534 -0.0355  0.3774 -0.0261
11480TIP3    H155855   3.868   4.973  12.538  0.6844  0.3819 -1.6988
11480TIP3    H255856   3.903   4.844  12.610 -0.1849  1.3330  0.5055
11481TIP3   OH255857   3.958   6.482   3.569 -0.0715 -0.2744  0.2036
11481TIP3    H155858   3.906   6.488   3.650 -0.7436 -0.7582 -0.1892
11481TIP3    H255859   3.986   6.572   3.553 -0.5524 -0.0477  0.5794
11482TIP3   OH255860   2.927   0.199  14.821 -0.2503  0.4707  0.1531
11482TIP3    H155861   2.865   0.257  14.776 -0.1369 -0.3569 -1.1341
11482TIP3    H255862   3.010   0.214  14.777 -0.0240 -0.0076  0.4124
11483TIP3   OH255863   3.501   4.351   1.077  0.1533  0.6329  0.0715
11483TIP3    H155864   3.448   4.362   0.998  0.6237 -2.4214 -0.7712
11483TIP3    H255865   3.591   4.346   1.045  0.6648  2.1437  1.1456
11484TIP3   OH255866   3.647   5.382  11.977  1.0804 -0.0872  0.1592
11484TIP3    H155867   3.675   5.297  12.010  1.0617 -0.6108 -1.0878
11484TIP3    H255868   3.671   5.380  11.884 -0.7578  0.4324 -0.3848
11485TIP3   OH255869   0.154   5.560  17.004  0.3936 -0.4465  0.6305
11485TIP3    H155870   0.171   5.519  17.088  0.7904  2.2205  1.9753
11485TIP3    H255871   0.240   5.586  16.972  0.1496 -0.4820 -0.0634
11486TIP3   OH255872   4.494   0.083  12.968  0.1580  0.0982  0.2105
11486TIP3    H155873   4.428   0.140  12.930 -0.6777 -1.4757 -0.8225
11486TIP3    H255874   4.549   0.057  12.894  0.3488 -0.6426  0.6006
11487TIP3   OH255875   6.437   6.726  17.160 -0.2560  0.6091  0.2071
11487TIP3    H155876   6.433   6.798  17.223  0.5557  1.6848 -0.9328
11487TIP3    H255877   6.351   6.685  17.165 -0.6348  1.4753  1.0840
11488TIP3   OH255878   4.835   1.461  13.759  0.2537 -0.0871  0.5199
11488TIP3    H155879   4.827   1.543  13.807  2.8261 -0.3052  1.5259
11488TIP3    H255880   4.925   1.462  13.726 -0.4342 -1.4185 -1.5767
11489TIP3   OH255881   1.038   4.740  15.671 -0.1223 -0.0004  0.3219
11489TIP3    H155882   1.038   4.832  15.696 -1.3218 -0.3624  1.8107
11489TIP3    H255883   0.970   4.700  15.725 -1.3522 -1.3230 -2.0585
11490TIP3   OH255884   3.577   4.299   1.976  0.8570  0.0907  0.0239
11490TIP3    H155885   3.657   4.352   1.967  1.0094 -0.0736  0.3598
11490TIP3    H255886   3.519   4.352   2.031  0.7228  0.2228 -0.2440
11491TIP3   OH255887   4.334   6.496  14.209 -0.3071  0.6307 -0.5923
11491TIP3    H155888   4.388   6.493  14.129 -0.0927 -0.1369 -0.4236
11491TIP3    H255889   4.373   6.566  14.261 -0.2393  0.9096 -1.0123
11492TIP3   OH255890   3.603   1.084   4.612  0.4029  0.3059  0.5443
11492TIP3    H155891   3.539   1.083   4.541 -0.3522 -1.4664  1.1971
11492TIP3    H255892   3.612   1.176   4.635  0.3328  0.8836 -1.5197
11493TIP3   OH255893   6.655   2.351  11.790  0.8419  0.4115 -0.6075
11493TIP3    H155894   6.712   2.406  11.736  0.7346  0.1309 -1.0167
11493TIP3    H255895   6.569   2.359  11.750  0.4753  1.2577  0.3338
11494TIP3   OH255896   3.702   5.969   2.148 -0.3107  0.0362  0.3927
11494TIP3    H155897   3.701   5.884   2.105 -0.5754 -0.0311  0.5342
11494TIP3    H255898   3.699   6.032   2.075  1.4670 -0.0410  0.1986
11495TIP3   OH255899   4.251   0.193   3.873 -0.0527  0.0413 -0.2430
11495TIP3    H155900   4.261   0.197   3.968 -0.7334  0.9672 -0.1919
11495TIP3    H255901   4.156   0.194   3.859  0.0423 -0.0255 -0.9321
11496TIP3   OH255902   4.048   4.211   1.554 -0.2827 -0.2242  0.7221
11496TIP3    H155903   4.036   4.176   1.642 -1.2070 -1.1213  0.2671
11496TIP3    H255904   4.030   4.136   1.496  1.7881 -0.0532 -0.2109
11497TIP3   OH255905   3.995   1.147  14.330 -0.1265  0.0050 -0.2975
11497TIP3    H155906   3.982   1.211  14.400  0.4494 -0.4062  0.1932
11497TIP3    H255907   4.012   1.065  14.375  2.1330  0.0867 -0.8781
11498TIP3   OH255908   3.169   6.168  10.829  0.3356  0.5853 -0.4586
11498TIP3    H155909   3.095   6.117  10.862 -0.0453  1.5832  0.2862
11498TIP3    H255910   3.182   6.137  10.740  0.3810 -1.0893  0.0869
11499TIP3   OH255911   3.243   1.879  16.120  0.7037  0.2963 -0.7800
11499TIP3    H155912   3.233   1.970  16.149  0.9933  0.0236  0.2075
11499TIP3    H255913   3.234   1.883  16.024 -0.9203  1.1333 -0.6266
11500TIP3   OH255914   2.858   4.452   0.123 -0.0909  0.1883 -0.1142
11500TIP3    H155915   2.830   4.537   0.088 -0.9289 -0.0534 -0.0579
11500TIP3    H255916   2.838   4.458   0.217  3.9765  1.6063  0.8741
11501TIP3   OH255917   5.763   4.763  15.352  0.0882 -0.2624 -0.3333
11501TIP3    H155918   5.818   4.840  15.345 -0.3850  0.4436  2.7178
11501TIP3    H255919   5.799   4.713  15.425 -1.4691 -1.3744 -0.2723
11502TIP3   OH255920   5.164   5.772   4.580 -0.1796 -0.1093 -0.2187
11502TIP3    H155921   5.240   5.714   4.569 -0.8955 -1.1156 -0.0745
11502TIP3    H255922   5.118   5.736   4.656 -0.2169  1.1618  0.3743
11503TIP3   OH255923   0.365   1.535  15.706 -0.6003 -0.6294 -0.0299
11503TIP3    H155924   0.418   1.611  15.729 -2.1981  0.6857 -0.4931
11503TIP3    H255925   0.344   1.494  15.790 -0.3208 -0.1429  0.2831
11504TIP3   OH255926   4.328   6.633  10.920 -0.4783 -0.2473 -0.4455
11504TIP3    H155927   4.319   6.689  10.997 -0.1855 -0.8365  0.0273
11504TIP3    H255928   4.359   6.691  10.851 -0.3655  0.2088 -0.0177
11505TIP3   OH255929   4.715   5.147   4.047  0.4976 -0.1758 -0.7106
11505TIP3    H155930   4.784   5.202   4.011 -0.5639  0.1643 -2.3438
11505TIP3    H255931   4.719   5.066   3.996  0.3359 -0.5471 -0.1438
11506TIP3   OH255932   2.335   3.459   2.597  0.1621  0.2423  0.1393
11506TIP3    H155933   2.301   3.417   2.676 -0.4934  0.4779 -0.0136
11506TIP3    H255934   2.397   3.524   2.629  2.2561 -1.7373  0.3442
11507TIP3   OH255935   0.169   5.919   5.669 -0.2826 -0.5005  0.0007
11507TIP3    H155936   0.194   5.827   5.664  1.7102 -0.2162  2.6890
11507TIP3    H255937   0.189   5.945   5.759  2.8547  3.4756 -1.5272
11508TIP3   OH255938   2.389   4.927  14.739 -0.0734 -0.4453 -0.1755
11508TIP3    H155939   2.371   4.862  14.670 -0.7144 -0.7364  0.2547
11508TIP3    H255940   2.333   4.900  14.812 -0.3443  0.5930  0.0138
11509TIP3   OH255941   1.024   1.285  16.905  0.5289 -0.1688  0.7551
11509TIP3    H155942   0.937   1.296  16.867  1.4228 -1.1509 -1.8067
11509TIP3    H255943   1.014   1.214  16.968 -0.3137 -1.2146 -0.4991
11510TIP3   OH255944   5.671   3.971   5.843  0.7113 -0.1779  0.1096
11510TIP3    H155945   5.620   3.907   5.892  2.7403 -2.0851 -0.1148
11510TIP3    H255946   5.759   3.967   5.881  0.8724  2.7574  0.2915
11511TIP3   OH255947   5.834   1.240   4.741  0.1491  0.3582 -0.3554
11511TIP3    H155948   5.869   1.321   4.704  1.8768  0.3271  1.1300
11511TIP3    H255949   5.838   1.177   4.668 -0.3934  1.3448 -1.2680
11512TIP3   OH255950   6.689   1.487   4.085 -0.5203 -0.2303  0.2984
11512TIP3    H155951   6.636   1.449   4.155  0.1506 -0.3734  0.7430
11512TIP3    H255952   6.626   1.532   4.029 -1.4650 -2.6722 -0.7324
11513TIP3   OH255953   4.254   5.499  16.263  0.1441 -0.3430  0.7634
11513TIP3    H155954   4.237   5.575  16.320 -1.6145 -1.1643  1.4089
11513TIP3    H255955   4.323   5.529  16.204  0.2460  1.4012  1.6828
11514TIP3   OH255956   0.625   1.493   0.146  0.0695 -0.6509  0.0645
11514TIP3    H155957   0.596   1.413   0.190 -1.0936  0.5521  1.6100
11514TIP3    H255958   0.635   1.557   0.216  1.4074  0.4686 -1.0802
11515TIP3   OH255959   1.610   3.014  13.453  0.7962  0.4832 -0.4784
11515TIP3    H155960   1.680   2.950  13.463  0.0979  0.0094  2.1901
11515TIP3    H255961   1.556   2.980  13.382  1.7530 -0.6073 -0.7058
11516TIP3   OH255962   4.293   4.350  11.378  0.1443  0.2314  0.0128
11516TIP3    H155963   4.199   4.368  11.376  0.2154  1.3818  2.5130
11516TIP3    H255964   4.330   4.406  11.310 -1.0231 -0.8109 -1.5273
11517TIP3   OH255965   2.376   2.609  15.348  0.5781  0.1735  0.1285
11517TIP3    H155966   2.413   2.697  15.348 -0.0759  0.4518 -0.0365
11517TIP3    H255967   2.295   2.617  15.298  0.3574 -0.4546  0.3801
11518TIP3   OH255968   1.158   5.604  16.956  0.1408  1.0751  0.5420
11518TIP3    H155969   1.187   5.524  16.913 -0.6690  1.1165 -0.1064
11518TIP3    H255970   1.101   5.647  16.891 -1.1868  1.0884  1.6658
11519TIP3   OH255971   6.366   3.322  12.447 -0.0737  0.2940 -0.4210
11519TIP3    H155972   6.419   3.265  12.392  0.1235  0.4919 -0.4382
11519TIP3    H255973   6.357   3.403  12.397 -1.1196 -0.0324 -0.8009
11520TIP3   OH255974   0.809   2.323  12.627 -0.5640 -0.2923 -0.1048
11520TIP3    H155975   0.742   2.391  12.630  1.7599  2.1354  2.0554
11520TIP3    H255976   0.769   2.248  12.671 -2.7168  0.1073 -1.2649
11521TIP3   OH255977   4.334   4.965   2.331  0.3761  0.7896 -0.3104
11521TIP3    H155978   4.305   4.996   2.246 -3.3038 -0.6593  0.2055
11521TIP3    H255979   4.354   4.872   2.318  0.0626  0.6255  0.2915
11522TIP3   OH255980   2.458   0.674   1.393  0.2253 -0.0195  0.3060
11522TIP3    H155981   2.530   0.713   1.443  0.5246  0.0206 -0.1375
11522TIP3    H255982   2.409   0.622   1.456  0.4069  0.2850  0.7003
11523TIP3   OH255983   1.568   3.702  13.984 -0.2212  0.3684 -0.1937
11523TIP3    H155984   1.603   3.616  14.007 -0.3632 -0.0145 -1.3512
11523TIP3    H255985   1.646   3.755  13.965 -0.1792 -0.2003 -1.7875
11524TIP3   OH255986   0.682   0.347   0.999 -0.2849  0.5101 -0.0763
11524TIP3    H155987   0.670   0.426   1.051  2.3814  1.8210 -1.2616
11524TIP3    H255988   0.731   0.376   0.923  1.5139 -2.4275 -0.1791
11525TIP3   OH255989   6.020   4.738   5.869  0.0673  0.3654  0.6069
11525TIP3    H155990   6.003   4.651   5.833 -1.9522  1.1324 -0.4667
11525TIP3    H255991   5.966   4.743   5.947  0.3278  0.5840  0.7732
11526TIP3   OH255992   1.683   4.339  11.604 -0.0373 -0.4338  0.2415
11526TIP3    H155993   1.767   4.380  11.623 -0.5640 -0.1832  2.3418
11526TIP3    H255994   1.640   4.398  11.542  0.6476  0.3525  0.5028
11527TIP3   OH255995   4.153   2.168  11.279  0.3036 -0.1097 -0.0474
11527TIP3    H155996   4.158   2.138  11.370  0.5766 -1.8784 -0.6074
11527TIP3    H255997   4.070   2.134  11.247 -0.2076  1.2630 -0.2297
11528TIP3   OH255998   1.189   0.347  14.680  0.2879 -0.5834  0.3191
11528TIP3    H155999   1.279   0.322  14.703  0.8236  0.1351 -0.8905
11528TIP3    H256000   1.199   0.423  14.622 -1.1123 -0.3978  0.2808
11529TIP3   OH256001   4.183   6.261  15.732  0.0628 -0.3446 -0.5928
11529TIP3    H156002   4.153   6.316  15.659  0.2284  2.3270  1.1769
11529TIP3    H256003   4.109   6.260  15.793 -0.1798 -2.7707 -0.8474
11530TIP3   OH256004   2.241   1.559  14.144 -0.4917 -0.2112 -0.5156
11530TIP3    H156005   2.218   1.474  14.106  1.9969 -1.3795  0.3808
11530TIP3    H256006   2.256   1.616  14.069  1.4877 -1.6549 -1.2931
11531TIP3   OH256007   4.385   6.504   2.590 -0.4920  0.2912  0.2259
11531TIP3    H156008   4.412   6.413   2.578  0.7820  0.4657  1.4633
11531TIP3    H256009   4.294   6.499   2.619 -0.6279 -0.5499 -0.3336
11532TIP3   OH256010   0.274   0.026  16.445 -0.3808  0.1707  1.0005
11532TIP3    H156011   0.303   0.029  16.536  0.4646  0.6077  0.7277
11532TIP3    H256012   0.190   0.073  16.445 -1.6639 -1.9842  1.9777
11533TIP3   OH256013   0.643   4.398  15.624 -0.4470  0.5510  0.2358
11533TIP3    H156014   0.727   4.424  15.586 -0.1912 -0.6736 -0.0905
11533TIP3    H256015   0.596   4.357  15.552 -1.1341  0.7943  0.5387
11534TIP3   OH256016   1.574   0.698  12.577 -0.2590  0.4180  0.4155
11534TIP3    H156017   1.500   0.673  12.521 -1.5485  0.1784  2.1377
11534TIP3    H256018   1.586   0.623  12.636  1.0756  0.6424  0.4519
11535TIP3   OH256019   3.896   0.224  14.792  0.1876 -0.4408 -0.3929
11535TIP3    H156020   3.820   0.221  14.850  1.0982 -0.0961  0.8778
11535TIP3    H256021   3.933   0.136  14.797 -0.8828 -1.0216 -2.1097
11536TIP3   OH256022   3.485   6.594   1.964  0.2108  0.2834  0.7620
11536TIP3    H156023   3.526   6.669   2.005 -0.4114 -0.1329  2.2054
11536TIP3    H256024   3.516   6.518   2.013  0.8214 -0.4304 -0.6593
11537TIP3   OH256025   4.339   2.109   0.355  0.5264 -0.2637 -0.0725
11537TIP3    H156026   4.287   2.174   0.308 -1.8904 -2.3338 -0.5040
11537TIP3    H256027   4.409   2.086   0.294 -0.2927 -0.1096 -1.1040
11538TIP3   OH256028   5.665   3.294  10.830 -0.4246 -0.0294  0.3778
11538TIP3    H156029   5.601   3.222  10.828 -1.4293  0.8128  1.4984
11538TIP3    H256030   5.724   3.272  10.902  1.3508 -1.3984 -1.3507
11539TIP3   OH256031   5.373   1.319   5.096 -0.0892 -0.2215 -0.3578
11539TIP3    H156032   5.385   1.224   5.100 -1.7125 -0.5608 -2.1098
11539TIP3    H256033   5.390   1.341   5.005 -2.4268  0.7158 -0.6277
11540TIP3   OH256034   4.787   3.925  13.794  0.2365  0.2680  0.5374
11540TIP3    H156035   4.846   3.850  13.784  0.5520  0.3990  1.3483
11540TIP3    H256036   4.707   3.887  13.831 -0.7479 -0.1387 -1.8717
11541TIP3   OH256037   5.844   1.513  15.608 -0.3739 -0.4376  0.0510
11541TIP3    H156038   5.909   1.512  15.537  0.1947  1.0897  0.4933
11541TIP3    H256039   5.851   1.427  15.649 -1.1655 -1.5818 -2.1037
11542TIP3   OH256040   3.528   5.960  11.920  0.3793  0.2721 -0.1376
11542TIP3    H156041   3.465   5.977  11.850  1.1786  0.9602 -0.7119
11542TIP3    H256042   3.546   6.045  11.959  1.8306  0.2954 -0.7749
11543TIP3   OH256043   4.144   2.449  14.444 -0.5599 -0.1796  0.6991
11543TIP3    H156044   4.116   2.381  14.505  0.7347 -1.6514 -0.2947
11543TIP3    H256045   4.240   2.446  14.447 -0.4794  0.2866 -0.7887
11544TIP3   OH256046   4.845   1.237  10.549 -0.3918  0.3815  0.4432
11544TIP3    H156047   4.780   1.168  10.558  1.1708 -1.5084 -1.6709
11544TIP3    H256048   4.826   1.277  10.464  2.0250 -1.3102 -1.0403
11545TIP3   OH256049   6.055   5.337  15.373  0.9294 -0.2694  0.5771
11545TIP3    H156050   5.961   5.321  15.366  0.6245  1.5174  0.1532
11545TIP3    H256051   6.093   5.250  15.389 -0.6548 -1.2007 -0.4914
11546TIP3   OH256052   6.368   2.743  16.523 -0.0884  0.9574  0.3210
11546TIP3    H156053   6.308   2.809  16.490  0.1367  1.6800  1.2897
11546TIP3    H256054   6.339   2.661  16.483 -2.5301  1.0428  1.6859
11547TIP3   OH256055   1.601   1.864   5.829  0.0185 -0.0762  0.6531
11547TIP3    H156056   1.579   1.771   5.829 -0.7880  0.0993  0.2343
11547TIP3    H256057   1.519   1.908   5.853  0.6331  0.4864  1.8228
11548TIP3   OH256058   6.086   1.055  11.226 -0.3781 -0.1850 -0.3013
11548TIP3    H156059   6.070   0.996  11.152 -0.9519 -0.3442 -0.0617
11548TIP3    H256060   6.077   1.143  11.189 -0.3672 -0.2616 -0.4868
11549TIP3   OH256061   2.515   1.119   4.647 -0.1382 -0.5838 -0.3200
11549TIP3    H156062   2.495   1.053   4.580 -0.1963 -1.4865  0.5664
11549TIP3    H256063   2.538   1.068   4.724 -1.7299  0.4104  0.8717
11550TIP3   OH256064   5.063   2.007  14.655 -0.6483 -0.0211 -0.5660
11550TIP3    H156065   5.076   1.922  14.614  0.2136 -1.2070  1.9195
11550TIP3    H256066   5.141   2.058  14.633  1.4503 -1.8040  2.0734
11551TIP3   OH256067   1.346   3.073   4.264 -0.7720  0.3522  0.6272
11551TIP3    H156068   1.281   3.116   4.208 -1.1010  0.3100  0.9759
11551TIP3    H256069   1.411   3.039   4.202 -0.5514  1.2630  0.3352
11552TIP3   OH256070   4.321   5.636   5.499  0.2717 -0.2900  0.9545
11552TIP3    H156071   4.406   5.640   5.456 -0.5410  0.7963 -0.6626
11552TIP3    H256072   4.259   5.616   5.428 -0.8110 -1.2693  2.1208
11553TIP3   OH256073   5.766   3.256   2.256 -0.2835 -0.2688 -0.4071
11553TIP3    H156074   5.744   3.342   2.292  0.2033 -0.7358  1.0708
11553TIP3    H256075   5.712   3.195   2.306 -0.1621 -0.8788 -1.0148
11554TIP3   OH256076   6.035   1.356  11.790  0.2603  0.1833 -0.2693
11554TIP3    H156077   5.973   1.324  11.725 -0.7789  1.0821  0.2616
11554TIP3    H256078   6.038   1.287  11.857 -1.2865  0.7487  0.4253
11555TIP3   OH256079   0.378   1.103   4.791 -0.1202 -0.0945 -0.6417
11555TIP3    H156080   0.416   1.158   4.722  0.4077 -0.1833 -0.4292
11555TIP3    H256081   0.454   1.067   4.837 -0.4669 -0.5033 -0.3843
11556TIP3   OH256082   4.262   0.323   0.339 -0.3934 -0.0218  0.3437
11556TIP3    H156083   4.195   0.372   0.290 -1.4063 -0.0330  1.6475
11556TIP3    H256084   4.221   0.238   0.356  0.6228 -0.6567 -0.2573
11557TIP3   OH256085   5.417   5.359   1.594 -0.2111  1.0097 -0.0989
11557TIP3    H156086   5.426   5.454   1.579  0.4515  0.7812 -1.2408
11557TIP3    H256087   5.499   5.333   1.635 -1.2299  1.2660  2.2977
11558TIP3   OH256088   3.306   6.206   0.128  0.0570 -0.4586 -0.5918
11558TIP3    H156089   3.243   6.278   0.127  0.4892 -0.0689 -0.2677
11558TIP3    H256090   3.289   6.159   0.047 -1.4555 -1.0749  0.0441
11559TIP3   OH256091   0.787   3.843  14.714  0.1753  0.1323 -0.1964
11559TIP3    H156092   0.722   3.787  14.672  0.0822  0.4935 -0.5353
11559TIP3    H256093   0.749   3.931  14.711  0.9056  0.4308 -0.8762
11560TIP3   OH256094   4.758   0.432  13.243 -0.0592  0.6944 -0.4383
11560TIP3    H156095   4.823   0.362  13.241  0.2670  0.7369  2.6988
11560TIP3    H256096   4.680   0.395  13.203  0.4523 -1.1149  0.1686
11561TIP3   OH256097   1.919   4.485  13.193  0.1788 -0.0629 -0.1655
11561TIP3    H156098   1.885   4.428  13.262  0.5968 -0.2606 -0.1199
11561TIP3    H256099   1.876   4.453  13.113 -2.4478  1.9036  0.3318
11562TIP3   OH256100   3.694   4.844  13.948 -0.4369 -0.2635 -0.1077
11562TIP3    H156101   3.658   4.772  13.896 -1.7375  0.1903  0.1277
11562TIP3    H256102   3.673   4.923  13.897  0.6786 -0.0101 -0.1994
11563TIP3   OH256103   0.155   5.681   2.785 -0.3791 -0.5464  0.0168
11563TIP3    H156104   0.145   5.624   2.861  0.6138  0.8403  1.2592
11563TIP3    H256105   0.072   5.728   2.779 -0.6238 -0.9828 -0.0336
11564TIP3   OH256106   5.927   6.413   5.645 -0.0154 -0.8268  0.0770
11564TIP3    H156107   5.947   6.456   5.562  0.5236 -0.2704  0.4821
11564TIP3    H256108   5.855   6.353   5.625 -1.5530  1.0423 -0.3180
11565TIP3   OH256109   3.019   2.729  10.627  0.1518  0.3151 -0.4243
11565TIP3    H156110   3.019   2.782  10.547  1.4658  0.5863 -0.2655
11565TIP3    H256111   3.082   2.659  10.609  1.0818  0.8546  0.6601
11566TIP3   OH256112   1.212   5.627  13.502 -0.0158  0.6671 -0.0694
11566TIP3    H156113   1.278   5.571  13.542 -0.6356  0.1100  0.1878
11566TIP3    H256114   1.154   5.566  13.456  0.2942  1.2330 -1.2611
11567TIP3   OH256115   0.055   0.650  15.360 -0.0558 -0.2006 -0.0968
11567TIP3    H156116   0.094   0.728  15.397 -1.6277  1.1524 -1.1435
11567TIP3    H256117   0.122   0.612  15.304  0.1784  1.3648 -0.9052
11568TIP3   OH256118   4.917   2.065  13.075  0.5599 -0.2141 -0.2392
11568TIP3    H156119   4.981   2.006  13.114 -0.3799 -0.8840  0.3262
11568TIP3    H256120   4.926   2.052  12.981 -0.3122 -2.0222 -0.1042
11569TIP3   OH256121   1.850   4.193   3.788 -0.1048  0.5339  0.2607
11569TIP3    H156122   1.829   4.227   3.701  0.7308  1.4428  0.3935
11569TIP3    H256123   1.781   4.228   3.844  0.2787  1.3331  0.2467
11570TIP3   OH256124   4.839   5.273   6.350 -0.3659 -0.1917  0.2347
11570TIP3    H156125   4.922   5.316   6.367  0.0446 -0.7351 -0.3107
11570TIP3    H256126   4.848   5.187   6.392 -0.0679 -0.8119 -1.0225
11571TIP3   OH256127   4.871   2.503  15.842  0.3383  0.5750 -0.1286
11571TIP3    H156128   4.792   2.558  15.835 -0.1513 -0.1462 -0.4129
11571TIP3    H256129   4.838   2.413  15.836  0.7787  0.0904  3.0357
11572TIP3   OH256130   2.927   6.783  16.869 -0.5890 -0.4966  0.1488
11572TIP3    H156131   2.889   6.757  16.953 -0.8205 -2.4469 -0.5042
11572TIP3    H256132   3.002   6.838  16.893 -1.3839  0.0071  1.5764
11573TIP3   OH256133   5.246   5.050   1.340 -0.1502  0.4847 -0.1934
11573TIP3    H156134   5.335   5.015   1.336 -0.7949 -1.3216  0.0696
11573TIP3    H256135   5.190   4.973   1.329 -1.6877  1.2484  1.7616
11574TIP3   OH256136   3.093   3.134   1.018 -0.4134 -0.3284  0.4033
11574TIP3    H156137   3.070   3.201   0.954  0.5424  1.6615  2.0544
11574TIP3    H256138   3.185   3.116   1.002 -0.0330  0.5646  1.5282
11575TIP3   OH256139   0.481   4.332   5.411  0.0960  0.5344  0.5762
11575TIP3    H156140   0.551   4.397   5.413 -0.0376  0.6649  1.0675
11575TIP3    H256141   0.421   4.362   5.342  1.2029 -0.2999 -0.8152
11576TIP3   OH256142   5.180   3.208  13.982  0.6173  0.0290  0.1866
11576TIP3    H156143   5.231   3.262  13.921  2.8344 -0.4776  1.4830
11576TIP3    H256144   5.201   3.118  13.957 -3.2984 -0.4359 -2.1684
11577TIP3   OH256145   0.182   1.710  10.580  0.4935 -0.6234  0.4951
11577TIP3    H156146   0.120   1.638  10.579  0.5588 -0.8555  3.5511
11577TIP3    H256147   0.129   1.789  10.570 -0.1556 -0.9003  1.6141
11578TIP3   OH256148   0.499   3.164  15.153 -0.1538 -0.0935 -0.1624
11578TIP3    H156149   0.429   3.223  15.127  0.3086 -0.8139 -3.5224
11578TIP3    H256150   0.467   3.077  15.130  0.7037 -0.7414  0.9980
11579TIP3   OH256151   2.148   2.144  16.016 -0.2875  0.8100  0.0909
11579TIP3    H156152   2.170   2.185  15.933 -0.4133 -0.9606 -0.8540
11579TIP3    H256153   2.224   2.159  16.072  0.3121  0.9397 -0.7517
11580TIP3   OH256154   4.140   4.457  15.400  0.1899  0.5243  0.0952
11580TIP3    H156155   4.149   4.547  15.370  2.1089  0.1289 -0.6552
11580TIP3    H256156   4.177   4.458  15.489  0.3481  0.4557  0.0308
11581TIP3   OH256157   6.667   1.552  12.888 -0.1151 -0.6193  0.5136
11581TIP3    H156158   6.745   1.604  12.909 -1.2669  1.2264  0.4597
11581TIP3    H256159   6.628   1.596  12.812 -1.8363 -0.7707  1.2587
11582TIP3   OH256160   6.636   3.129  13.152  0.0277  0.2771  0.6313
11582TIP3    H156161   6.584   3.074  13.211  1.4208 -1.2961  0.4628
11582TIP3    H256162   6.693   3.179  13.211  0.9059 -0.7607  0.7056
11583TIP3   OH256163   4.936   3.171   0.791  0.6059  1.0223  0.8161
11583TIP3    H156164   4.870   3.212   0.735  1.1416  1.4528  0.4877
11583TIP3    H256165   4.886   3.129   0.860 -0.1119  0.1285 -0.2066
11584TIP3   OH256166   4.567   3.087  11.533 -0.4828 -0.3846 -0.0962
11584TIP3    H156167   4.490   3.109  11.585  0.1236 -0.5715  0.9101
11584TIP3    H256168   4.534   3.078  11.444 -1.1195  2.6787 -0.3075
11585TIP3   OH256169   3.442   0.634  12.369  0.6270  0.3557  0.1013
11585TIP3    H156170   3.403   0.568  12.427  1.3857 -0.0704  0.1487
11585TIP3    H256171   3.375   0.650  12.302 -0.7691  1.7583  1.7329
11586TIP3   OH256172   3.291   4.560  10.696  0.4115  0.1082 -0.9026
11586TIP3    H156173   3.308   4.654  10.697  1.1067  0.0498 -2.6277
11586TIP3    H256174   3.361   4.521  10.747 -0.4702  0.5723  0.7105
11587TIP3   OH256175   0.662   4.523   3.863 -0.0037  0.1069  0.0582
11587TIP3    H156176   0.595   4.530   3.931 -0.4467 -0.4265 -0.3189
11587TIP3    H256177   0.742   4.501   3.910  0.0125  1.1806  0.5600
11588TIP3   OH256178   4.287   4.806  14.526  0.1294 -0.6474  0.1316
11588TIP3    H156179   4.303   4.731  14.470  0.8033 -0.4007 -0.0172
11588TIP3    H256180   4.370   4.821  14.571 -0.3218 -0.6606  0.9720
11589TIP3   OH256181   6.721   0.813  12.286  0.0081 -0.4122  0.7682
11589TIP3    H156182   6.797   0.852  12.242  0.3207 -1.2783  0.5282
11589TIP3    H256183   6.657   0.799  12.215 -0.6268  0.8364  1.0504
11590TIP3   OH256184   3.309   4.144  13.837  0.0963  0.6181  0.3223
11590TIP3    H156185   3.380   4.191  13.792 -0.2935 -0.0697 -1.0641
11590TIP3    H256186   3.346   4.119  13.921  1.1130  1.2830  0.0904
11591TIP3   OH256187   5.982   5.095  12.767 -0.1537 -0.2834  0.0667
11591TIP3    H156188   5.901   5.044  12.765  0.4217 -1.3788  1.9576
11591TIP3    H256189   6.025   5.068  12.848  2.4693 -0.2951 -1.2346
11592TIP3   OH256190   0.289   3.273  11.450 -0.1215  0.0455  0.3480
11592TIP3    H156191   0.269   3.360  11.418  0.9758  0.4131  0.6236
11592TIP3    H256192   0.349   3.236  11.385  0.0958 -0.1702  0.6648
11593TIP3   OH256193   4.743   4.413  11.879 -0.3764  0.5689 -0.1383
11593TIP3    H156194   4.697   4.431  11.961 -2.2379 -0.3803 -0.9077
11593TIP3    H256195   4.795   4.491  11.862 -0.9471  1.2886  1.3060
11594TIP3   OH256196   6.199   6.123   0.746 -0.3421  0.1901  0.3600
11594TIP3    H156197   6.171   6.186   0.812 -1.3731  2.2859 -1.8979
11594TIP3    H256198   6.272   6.165   0.701 -0.6110 -0.4858 -0.7786
11595TIP3   OH256199   0.467   4.296  13.478 -0.6896 -0.1239 -0.5543
11595TIP3    H156200   0.373   4.305  13.464 -0.4043  0.6953 -2.1003
11595TIP3    H256201   0.507   4.357  13.416  0.9379 -2.0972 -1.5656
11596TIP3   OH256202   0.904   6.611   5.503 -0.7177  0.3241  0.0925
11596TIP3    H156203   0.866   6.635   5.587  0.3960  0.0260  0.6963
11596TIP3    H256204   0.863   6.670   5.440  0.8867  2.8939  1.3042
11597TIP3   OH256205   6.752   4.706  14.680  0.0303  0.2676 -0.3963
11597TIP3    H156206   6.823   4.718  14.743 -0.0418 -2.9603  0.4671
11597TIP3    H256207   6.689   4.650  14.725 -1.3157  0.0179 -2.4430
11598TIP3   OH256208   4.484   6.519  16.613  0.5892  0.0021 -0.3427
11598TIP3    H156209   4.540   6.590  16.645  1.3696 -0.5634 -0.4131
11598TIP3    H256210   4.544   6.446  16.600  0.2593  0.0467 -2.6470
11599TIP3   OH256211   3.642   3.541   0.385 -0.5236 -0.2327  0.4944
11599TIP3    H156212   3.589   3.547   0.464 -1.4656  0.0008 -0.1339
11599TIP3    H256213   3.607   3.465   0.338  0.5970 -0.8926  0.6943
11600TIP3   OH256214   0.922   3.079   3.516  0.7301 -0.1695 -0.5416
11600TIP3    H156215   0.842   3.126   3.541 -0.2852 -0.2043 -3.3110
11600TIP3    H256216   0.895   2.988   3.509  1.6886 -0.5881  0.9210
11601TIP3   OH256217   5.851   1.308   4.307 -0.3685  0.6373  0.3714
11601TIP3    H156218   5.812   1.221   4.317  0.5145  0.3086  1.0614
11601TIP3    H256219   5.811   1.343   4.227 -0.0548 -0.7850 -0.4536
11602TIP3   OH256220   6.491   2.824   2.188  0.1329 -0.0706 -0.3636
11602TIP3    H156221   6.574   2.778   2.172 -0.0793 -1.1817  1.4597
11602TIP3    H256222   6.491   2.841   2.282 -1.9359 -0.5894 -0.2150
11603TIP3   OH256223   4.964   5.075   0.022  0.3402  0.2862  0.3359
11603TIP3    H156224   4.914   5.156   0.010 -0.6699 -0.3997 -0.3030
11603TIP3    H256225   4.982   5.046  -0.067 -1.1897 -1.2920  0.4910
11604TIP3   OH256226   1.221   5.222   2.105  0.1193 -0.7927 -0.1372
11604TIP3    H156227   1.277   5.281   2.156  1.5370 -2.1686 -0.0584
11604TIP3    H256228   1.143   5.212   2.160 -0.2676  1.1342 -0.2477
11605TIP3   OH256229   3.798   6.311   0.826 -0.1750  0.7340 -0.3242
11605TIP3    H156230   3.864   6.379   0.843  2.0840 -1.4733  0.4256
11605TIP3    H256231   3.813   6.286   0.735  0.9194 -0.5774  0.1801
11606TIP3   OH256232   3.523   2.798   0.132 -0.1341  0.2764  0.4268
11606TIP3    H156233   3.532   2.885   0.093 -1.4819 -0.3507 -1.3776
11606TIP3    H256234   3.608   2.782   0.172  0.8550  1.5600 -1.0230
11607TIP3   OH256235   5.859   4.821   5.160 -0.2200 -0.5952  0.4206
11607TIP3    H156236   5.875   4.871   5.240  0.5214 -1.0873  0.5956
11607TIP3    H256237   5.847   4.731   5.190 -1.2596 -0.5787  0.0852
11608TIP3   OH256238   5.559   5.597  14.247  0.3250 -0.4581 -0.1384
11608TIP3    H156239   5.491   5.534  14.267 -2.1627  1.0827 -2.9874
11608TIP3    H256240   5.547   5.667  14.312 -0.5127 -0.4186 -0.3258
11609TIP3   OH256241   4.987   6.280   2.846  0.3343  0.7214 -0.3956
11609TIP3    H156242   4.978   6.374   2.828 -0.9248  0.4592 -1.2700
11609TIP3    H256243   5.038   6.247   2.771 -4.3482 -0.2552 -3.5802
11610TIP3   OH256244   2.990   4.786  11.389 -0.3449 -0.0479 -0.3202
11610TIP3    H156245   2.965   4.865  11.436 -1.0869  0.4314 -1.4572
11610TIP3    H256246   3.076   4.806  11.352  0.4688 -0.6118  1.1922
11611TIP3   OH256247   5.720   3.199   6.024  0.1626 -0.2173 -0.5353
11611TIP3    H156248   5.816   3.195   6.027  0.1557 -1.2635 -1.3489
11611TIP3    H256249   5.701   3.263   5.956  0.2747  0.2162 -0.1655
11612TIP3   OH256250   2.771   1.266  11.765 -0.2797  0.1032  0.1940
11612TIP3    H156251   2.725   1.183  11.776 -1.3601  0.7803  0.8774
11612TIP3    H256252   2.856   1.252  11.807  0.1348 -1.1157 -0.9786
11613TIP3   OH256253   1.741   3.553   6.089  0.3065  0.0497  0.0950
11613TIP3    H156254   1.834   3.541   6.073  0.3707 -0.0135  0.5035
11613TIP3    H256255   1.699   3.475   6.052  0.5493 -0.5871  1.1180
11614TIP3   OH256256   5.513   3.258   4.806 -0.1513 -0.5141  0.1927
11614TIP3    H156257   5.495   3.294   4.719  0.8355 -0.0587  0.1600
11614TIP3    H256258   5.439   3.288   4.860  0.7656  1.8937  0.2414
11615TIP3   OH256259   2.182   3.364   0.964  0.7154 -0.0593 -0.2097
11615TIP3    H156260   2.161   3.455   0.946  0.9775  0.0695  0.1130
11615TIP3    H256261   2.113   3.335   1.025  1.4301  0.3556  0.8288
11616TIP3   OH256262   0.478   1.689  15.163 -0.7357 -0.2090  0.4881
11616TIP3    H156263   0.504   1.706  15.072  2.2347 -1.7616  0.9004
11616TIP3    H256264   0.400   1.742  15.176  0.3153  2.2782 -2.1248
11617TIP3   OH256265   4.742   2.068  13.428 -0.5001  0.4679 -0.1039
11617TIP3    H156266   4.829   2.106  13.438  0.1408 -1.2547  1.3754
11617TIP3    H256267   4.759   1.981  13.391 -1.4642 -0.3285  1.2521
11618TIP3   OH256268   3.406   4.555  16.512  0.0356 -0.0059 -0.0448
11618TIP3    H156269   3.421   4.583  16.421 -1.4271  0.9263 -0.0328
11618TIP3    H256270   3.489   4.571  16.556  0.0930  1.7069 -0.7014
11619TIP3   OH256271   0.478   2.329   3.378  0.4223  0.0974  0.6837
11619TIP3    H156272   0.449   2.268   3.445  0.0900 -1.9579 -1.2353
11619TIP3    H256273   0.399   2.379   3.355 -0.0587 -0.9042  0.1125
11620TIP3   OH256274   6.675   0.477  16.753 -1.0705  0.2109 -0.4553
11620TIP3    H156275   6.670   0.383  16.769 -0.8415  0.1950 -0.4696
11620TIP3    H256276   6.728   0.512  16.825 -0.0969  0.1468 -1.1192
11621TIP3   OH256277   0.194   3.094  12.784  0.0440 -0.3484 -0.8275
11621TIP3    H156278   0.250   3.131  12.852  0.0017 -1.4724 -0.1587
11621TIP3    H256279   0.108   3.084  12.825  0.1244 -1.4375 -0.8960
11622TIP3   OH256280   3.553   0.692  10.078 -0.1074 -0.5750  0.0838
11622TIP3    H156281   3.555   0.662  10.168 -1.2006 -1.0841 -0.0525
11622TIP3    H256282   3.645   0.696  10.052  0.1538 -1.6635  0.8058
11623TIP3   OH256283   0.575   3.808  11.869 -0.7788  0.3213 -0.1916
11623TIP3    H156284   0.612   3.748  11.933 -0.8595  2.1646  1.7048
11623TIP3    H256285   0.554   3.753  11.793  2.5393 -1.3741 -0.0509
11624TIP3   OH256286   3.463   3.557  12.186  0.2988  0.1944 -0.3017
11624TIP3    H156287   3.504   3.490  12.241  0.8896  0.6796 -0.1456
11624TIP3    H256288   3.408   3.507  12.125  0.7471 -0.4311 -0.2054
11625TIP3   OH256289   0.475   4.353   5.112 -0.3991  0.2420  0.5068
11625TIP3    H156290   0.565   4.325   5.130 -0.7804 -1.1900  0.3653
11625TIP3    H256291   0.480   4.394   5.026  0.1969  0.5736  0.6948
11626TIP3   OH256292   3.199   0.554  12.554 -0.5033  0.0019 -0.1685
11626TIP3    H156293   3.119   0.532  12.602  0.3337  1.5375  2.0698
11626TIP3    H256294   3.244   0.471  12.542 -2.8752 -1.0922 -2.5159
11627TIP3   OH256295   2.953   6.259  12.131 -0.4551 -0.3554  0.4648
11627TIP3    H156296   3.043   6.237  12.153 -0.5494  0.9757  2.3325
11627TIP3    H256297   2.905   6.176  12.141  0.8571 -1.7740 -3.1239
11628TIP3   OH256298   0.371   4.241   0.441  0.3458  0.4892  0.0552
11628TIP3    H156299   0.366   4.247   0.537 -0.7623  0.5329  0.0131
11628TIP3    H256300   0.456   4.201   0.424  0.1986 -0.3378  1.1071
11629TIP3   OH256301   3.661   2.933  11.051  0.4159  0.1132 -0.3695
11629TIP3    H156302   3.651   2.854  11.105  1.9350  1.2683  1.7397
11629TIP3    H256303   3.571   2.961  11.033 -0.1384 -1.7969 -0.7423
11630TIP3   OH256304   3.445   2.337  16.868  0.0395 -0.2590 -0.3187
11630TIP3    H156305   3.480   2.361  16.954  1.2021  0.3472 -0.9322
11630TIP3    H256306   3.355   2.368  16.871 -0.2147 -1.0396  0.9865
11631TIP3   OH256307   4.754   4.538  12.315  0.9737  0.0006 -0.3516
11631TIP3    H156308   4.708   4.621  12.324  0.7689 -0.2598  1.2641
11631TIP3    H256309   4.815   4.536  12.389  2.1993 -0.5393 -1.3291
11632TIP3   OH256310   0.775   6.140   3.683 -0.7139  0.1385 -0.6081
11632TIP3    H156311   0.784   6.203   3.611  0.3775 -1.3443 -1.8212
11632TIP3    H256312   0.681   6.138   3.700 -0.8268  1.7898 -0.7907
11633TIP3   OH256313   0.951   3.147   5.030  0.1739  0.8932  0.4552
11633TIP3    H156314   1.039   3.114   5.011 -0.1071 -1.8121  3.1159
11633TIP3    H256315   0.962   3.200   5.109 -0.5418  0.8523  0.5889
11634TIP3   OH256316   2.701   2.535   5.191  0.1995 -0.8153 -0.1287
11634TIP3    H156317   2.709   2.440   5.204 -0.3455 -0.7050  1.1221
11634TIP3    H256318   2.636   2.563   5.256  0.8851  0.5320  0.0119
11635TIP3   OH256319   1.761   0.853   0.596 -0.3543  0.3800 -0.4764
11635TIP3    H156320   1.853   0.860   0.574 -0.3329 -0.7118 -0.7874
11635TIP3    H256321   1.722   0.935   0.563  0.2574  0.2423 -1.5912
11636TIP3   OH256322   5.689   0.928  11.979 -0.7247  0.4690 -0.1689
11636TIP3    H156323   5.699   0.853  11.920 -0.3107 -1.0422  1.7058
11636TIP3    H256324   5.710   1.004  11.925 -0.0805 -0.8506 -1.8844
11637TIP3   OH256325   2.844   4.649  12.758 -0.7362 -0.8890 -0.5459
11637TIP3    H156326   2.909   4.677  12.693 -1.0403 -0.8790 -0.8473
11637TIP3    H256327   2.815   4.730  12.799  0.6291 -1.0073  0.7457
11638TIP3   OH256328   4.467   1.322   0.728 -0.8986 -0.1385  1.0273
11638TIP3    H156329   4.541   1.379   0.706  1.0671 -1.9484  2.5227
11638TIP3    H256330   4.424   1.367   0.801 -1.6260  1.1740 -0.1738
11639TIP3   OH256331   4.079   5.106  11.718 -0.3564  0.2273 -0.0189
11639TIP3    H156332   4.129   5.124  11.638  0.6684 -0.4409  0.4622
11639TIP3    H256333   4.124   5.157  11.786  2.0578 -3.1924  1.1986
11640TIP3   OH256334   2.641   1.685   5.292 -0.3697  0.2491  0.2361
11640TIP3    H156335   2.660   1.640   5.210 -2.1104  1.3384 -0.8339
11640TIP3    H256336   2.621   1.615   5.354  1.6548 -0.6237 -0.0343
11641TIP3   OH256337   5.164   3.611  16.225  0.6510 -0.3330 -0.1026
11641TIP3    H156338   5.164   3.588  16.318  1.4585  0.2437  0.0519
11641TIP3    H256339   5.085   3.570  16.190 -1.3016  1.8185  1.4334
11642TIP3   OH256340   5.835   3.276   2.836 -0.2650  0.0663 -0.4161
11642TIP3    H156341   5.916   3.274   2.889 -0.5505  0.6550  0.0579
11642TIP3    H256342   5.820   3.185   2.811 -0.8309 -0.4510  1.6264
11643TIP3   OH256343   5.865   6.340   4.436 -0.1703  0.0704 -0.3198
11643TIP3    H156344   5.791   6.383   4.479 -0.3243  2.0978 -2.3854
11643TIP3    H256345   5.882   6.395   4.359  1.6222 -1.9795 -1.4736
11644TIP3   OH256346   3.340   5.382  11.068 -0.8446 -0.6598  0.1005
11644TIP3    H156347   3.435   5.393  11.070 -1.1145  3.2379 -0.2101
11644TIP3    H256348   3.320   5.357  10.978 -0.1265 -2.0842  0.3166
11645TIP3   OH256349   3.418   5.099   5.701 -0.7080  0.0729 -0.7989
11645TIP3    H156350   3.490   5.132   5.648 -0.6028  1.1440 -0.0059
11645TIP3    H256351   3.455   5.087   5.788 -1.7635  1.8853 -0.0459
11646TIP3   OH256352   2.092   1.532  12.170  0.1457 -0.5705 -1.1045
11646TIP3    H156353   2.053   1.536  12.082  1.9555 -2.0991 -2.0446
11646TIP3    H256354   2.157   1.462  12.164  0.8508 -0.1924  1.2674
11647TIP3   OH256355   2.819   6.303   1.479 -0.5141  0.1753 -0.4366
11647TIP3    H156356   2.855   6.377   1.429 -1.6372  1.6752  0.8776
11647TIP3    H256357   2.885   6.234   1.469  0.7051  1.4194 -1.5168
11648TIP3   OH256358   1.482   3.684  10.720 -0.2861  0.4585  0.0712
11648TIP3    H156359   1.398   3.724  10.743  0.3867  0.5443  2.7619
11648TIP3    H256360   1.471   3.591  10.741  0.8749  0.8117  2.6535
11649TIP3   OH256361   4.739   2.909   1.219  0.7598 -0.4573  0.4745
11649TIP3    H156362   4.766   2.821   1.247  1.5273 -0.3441  0.1220
11649TIP3    H256363   4.648   2.916   1.246  0.6585 -1.4078  0.4172
11650TIP3   OH256364   3.846   3.141  13.527 -0.8464 -0.4088 -0.0180
11650TIP3    H156365   3.843   3.224  13.479  1.2957 -0.2732 -0.0529
11650TIP3    H256366   3.780   3.150  13.595 -1.0163  1.1312 -0.3455
11651TIP3   OH256367   1.349   2.428   5.510 -0.3185  0.3260  0.6460
11651TIP3    H156368   1.278   2.387   5.460  0.2876  2.3547 -2.1120
11651TIP3    H256369   1.313   2.512   5.539  0.0588  0.1136  1.7736
11652TIP3   OH256370   4.423   5.086  16.300 -0.1558  0.4496  0.2470
11652TIP3    H156371   4.417   5.154  16.234 -0.1168  0.0655 -0.1575
11652TIP3    H256372   4.491   5.117  16.361 -0.4803  0.9911  0.3370
11653TIP3   OH256373   2.775   0.940  15.506  0.4376 -0.7097 -0.0035
11653TIP3    H156374   2.827   0.995  15.563 -0.7012  0.0032  0.3875
11653TIP3    H256375   2.705   0.998  15.474  0.4727 -1.3534 -1.3240
11654TIP3   OH256376   4.965   5.513   4.699 -0.1690  0.0619 -0.5526
11654TIP3    H156377   5.031   5.567   4.744 -0.2110  1.2700 -1.8729
11654TIP3    H256378   4.954   5.437   4.756 -0.5469  1.7176  1.7309
11655TIP3   OH256379   3.728   2.285   1.181 -0.2705  0.5824  0.2282
11655TIP3    H156380   3.646   2.305   1.228 -1.3189 -2.0625 -0.3427
11655TIP3    H256381   3.708   2.304   1.090 -0.3886 -0.3937  0.0433
11656TIP3   OH256382   4.877   6.522  14.651 -0.3277 -0.3259  0.7250
11656TIP3    H156383   4.954   6.571  14.680  0.4526  0.3577 -2.1493
11656TIP3    H256384   4.803   6.574  14.682  0.4721  2.1932 -1.2186
11657TIP3   OH256385   3.108   0.468   5.220 -0.1903  0.1612  0.0276
11657TIP3    H156386   3.174   0.530   5.250 -0.1791  1.5429 -2.5262
11657TIP3    H256387   3.136   0.445   5.131 -1.7877 -1.2082 -0.1695
11658TIP3   OH256388   3.264   0.864   1.373 -0.6036  0.0648  0.1385
11658TIP3    H156389   3.294   0.873   1.283 -1.1301  2.2467  0.1192
11658TIP3    H256390   3.208   0.787   1.372 -0.0069 -0.3856 -1.2172
11659TIP3   OH256391   6.330   3.368   4.721 -0.6624  0.3815 -0.4277
11659TIP3    H156392   6.244   3.345   4.686 -1.7207  0.4452  1.9199
11659TIP3    H256393   6.339   3.314   4.800  2.1526 -0.7452 -1.4177
11660TIP3   OH256394   0.498   2.811   1.417  0.3743 -0.1355  0.5342
11660TIP3    H156395   0.584   2.838   1.385 -0.1741 -0.9259 -1.8283
11660TIP3    H256396   0.504   2.716   1.426 -0.3178 -0.2368  0.0511
11661TIP3   OH256397   5.618   4.591  15.632 -0.0554  0.6389  0.3093
11661TIP3    H156398   5.662   4.668  15.667  0.0596  1.0188 -0.6523
11661TIP3    H256399   5.662   4.572  15.550 -0.0861 -0.4587  0.5241
11662TIP3   OH256400   3.264   0.406  13.520  0.5149 -0.2017 -0.5319
11662TIP3    H156401   3.300   0.494  13.532 -1.7615  0.7912 -0.4800
11662TIP3    H256402   3.313   0.351  13.581  2.7337  0.7677 -1.3566
11663TIP3   OH256403   1.989   2.352   2.907  0.0828  0.2451 -0.6154
11663TIP3    H156404   2.038   2.320   2.982 -0.2446  2.6905  0.7376
11663TIP3    H256405   1.899   2.322   2.922  0.2493 -0.2816 -0.6672
11664TIP3   OH256406   3.972   0.288  13.705 -0.4533  0.1302  0.1126
11664TIP3    H156407   3.927   0.309  13.787 -0.0726  0.4908  0.2320
11664TIP3    H256408   4.003   0.198  13.718 -2.2764 -0.6438 -0.4908
11665TIP3   OH256409   1.193   3.282   5.512 -0.3698 -0.4143  0.1456
11665TIP3    H156410   1.239   3.350   5.561 -1.8506 -0.5247  1.8021
11665TIP3    H256411   1.246   3.269   5.434  0.8380  1.4529  0.5804
11666TIP3   OH256412   5.284   5.731  15.088  0.0269  0.3451  0.6272
11666TIP3    H156413   5.339   5.757  15.013 -0.9865 -0.2682 -0.3526
11666TIP3    H256414   5.289   5.806  15.147  1.0148  0.7611  0.0535
11667TIP3   OH256415   0.472   4.461   1.269 -0.5761 -0.0122 -0.3344
11667TIP3    H156416   0.530   4.479   1.195 -1.4113  2.5252 -0.4776
11667TIP3    H256417   0.531   4.451   1.344  0.1412  1.1822 -0.7093
11668TIP3   OH256418   6.576   0.159  16.896 -0.3902 -0.2637  0.1909
11668TIP3    H156419   6.501   0.143  16.838 -1.0494  0.3588  0.8440
11668TIP3    H256420   6.540   0.151  16.984  0.5921 -1.1402  0.5251
11669TIP3   OH256421   0.991   1.987  12.196 -0.0825 -0.5511  0.1725
11669TIP3    H156422   1.018   1.963  12.284  1.3588  0.6793  0.1045
11669TIP3    H256423   0.918   1.928  12.176 -3.6752  2.0245  3.9090
11670TIP3   OH256424   6.579   0.862   2.640  0.2476  0.3271  0.2426
11670TIP3    H156425   6.542   0.802   2.576  3.5711 -1.4689 -0.2154
11670TIP3    H256426   6.505   0.887   2.695 -1.8490 -1.7803 -1.4193
11671TIP3   OH256427   2.170   2.042  16.660 -0.0376 -0.4485  0.2619
11671TIP3    H156428   2.116   2.071  16.586  0.0834  1.0080  0.7080
11671TIP3    H256429   2.128   1.962  16.691  0.4769 -1.6813 -1.9913
11672TIP3   OH256430   5.871   0.036  16.912 -0.2966 -0.4297  0.0920
11672TIP3    H156431   5.892  -0.024  16.984 -0.8389 -1.0694 -0.2639
11672TIP3    H256432   5.808  -0.012  16.859  0.2889 -0.0762 -0.9622
11673TIP3   OH256433   0.828   1.823  13.133  0.6419 -0.6028 -0.3050
11673TIP3    H156434   0.835   1.874  13.053 -2.5219 -0.0729 -0.3634
11673TIP3    H256435   0.790   1.884  13.197 -0.6985 -2.0952  0.3913
11674TIP3   OH256436   0.392   0.125   1.586 -0.1287  0.2579  0.0297
11674TIP3    H156437   0.322   0.061   1.584 -3.0699  3.1989  0.0546
11674TIP3    H256438   0.387   0.169   1.501  1.7610  0.5488  0.0155
11675TIP3   OH256439   6.388   1.378  11.458 -0.0138 -0.6774  0.1010
11675TIP3    H156440   6.464   1.435  11.455 -0.2692 -0.3452 -0.1069
11675TIP3    H256441   6.314   1.436  11.476 -0.2232 -0.9938  0.2981
11676TIP3   OH256442   6.429   1.096  10.621  0.6486 -0.0427  0.5041
11676TIP3    H156443   6.455   1.077  10.531  0.1269 -0.4654  0.4367
11676TIP3    H256444   6.397   1.186  10.619  1.1569  0.1394  0.3852
11677TIP3   OH256445   2.826   2.735   0.877 -0.0851  0.3302 -0.3888
11677TIP3    H156446   2.807   2.813   0.928 -2.4513  0.9776 -2.0608
11677TIP3    H256447   2.921   2.726   0.881  0.0500  1.9899  1.6705
11678TIP3   OH256448   2.701   5.750  16.962  0.2708  0.2998 -0.2020
11678TIP3    H156449   2.606   5.744  16.965  0.2043  0.5250 -1.3583
11678TIP3    H256450   2.727   5.685  16.897  0.8289  0.8340 -0.5251
11679TIP3   OH256451   1.922   5.690  11.135  0.3872 -0.0747  0.4304
11679TIP3    H156452   1.991   5.733  11.086  1.6437 -0.6218  1.6371
11679TIP3    H256453   1.841   5.709  11.086  1.0487  2.4851  0.2019
11680TIP3   OH256454   0.114   4.278   0.300  0.0843  0.5750  0.1140
11680TIP3    H156455   0.201   4.248   0.327 -0.1761  0.5318  0.9101
11680TIP3    H256456   0.127   4.369   0.273  0.3783  0.5577  0.1981
11681TIP3   OH256457   0.807   3.663  10.537  0.2601 -0.1714 -0.2640
11681TIP3    H156458   0.858   3.582  10.548  1.1159  0.3091 -0.5870
11681TIP3    H256459   0.814   3.682  10.443 -1.1933 -0.5231 -0.4620
11682TIP3   OH256460   1.174   6.607   3.486  0.5343 -0.0597  0.1825
11682TIP3    H156461   1.259   6.652   3.483  0.7215 -0.3060  1.3077
11682TIP3    H256462   1.155   6.586   3.395  2.3230 -1.1247 -0.0092
11683TIP3   OH256463   3.495   4.612  13.055  0.2687  0.0169  0.3485
11683TIP3    H156464   3.496   4.701  13.021 -1.4288  0.6547  1.8342
11683TIP3    H256465   3.451   4.560  12.988 -1.1116  0.8244  0.6138
11684TIP3   OH256466   3.502   0.430   5.866 -0.1231 -0.1153 -0.0541
11684TIP3    H156467   3.593   0.451   5.885 -0.5191 -0.0397  2.0082
11684TIP3    H256468   3.504   0.342   5.829  0.8474  0.3176 -1.1033
11685TIP3   OH256469   4.570   2.355   4.946  0.1881  0.1177 -0.7320
11685TIP3    H156470   4.562   2.309   5.030 -0.9989  1.8828  0.2019
11685TIP3    H256471   4.513   2.307   4.886 -0.5791  0.0265  0.0527
11686TIP3   OH256472   4.224   6.161  12.050 -0.1130 -0.4944 -0.3505
11686TIP3    H156473   4.290   6.109  12.096 -1.0013 -0.8976  0.5134
11686TIP3    H256474   4.263   6.178  11.964  1.3449 -0.2325  0.3257
11687TIP3   OH256475   5.440   1.348  15.214 -0.3955  0.0206  0.6144
11687TIP3    H156476   5.460   1.417  15.277 -0.5897  0.2072  0.4773
11687TIP3    H256477   5.385   1.392  15.148  0.6340  0.0840 -0.2270
11688TIP3   OH256478   5.987   5.359  13.260 -0.1843  0.3820  0.6365
11688TIP3    H156479   5.922   5.392  13.198  0.1817 -2.0253 -1.1856
11688TIP3    H256480   6.035   5.436  13.288 -1.3254  1.7397 -0.9665
11689TIP3   OH256481   2.713   2.786  12.617 -0.5857 -0.1217  0.3022
11689TIP3    H156482   2.681   2.721  12.680  1.3215  0.2803  1.7746
11689TIP3    H256483   2.796   2.749  12.585 -0.8960  0.2881 -1.0371
11690TIP3   OH256484   4.273   4.777   4.655 -0.1358  0.0307 -0.1426
11690TIP3    H156485   4.312   4.845   4.601 -0.7223 -0.9215 -1.8423
11690TIP3    H256486   4.205   4.822   4.705 -1.1780  0.5629 -1.9638
11691TIP3   OH256487   1.495   2.585   1.984  0.6314 -0.1703 -0.0751
11691TIP3    H156488   1.582   2.585   1.945  0.1220 -1.2507 -1.2773
11691TIP3    H256489   1.444   2.526   1.929 -0.2213 -1.4936  2.0285
11692TIP3   OH256490   1.255   4.897   0.156 -0.0336 -0.0710 -0.1852
11692TIP3    H156491   1.313   4.940   0.093  0.3700  1.5609  1.2427
11692TIP3    H256492   1.168   4.904   0.117  0.1462  1.3186 -0.3934
11693TIP3   OH256493   5.563   4.794   4.392 -0.8505 -0.1508 -0.3347
11693TIP3    H156494   5.614   4.772   4.315  0.6856 -0.6126  0.7580
11693TIP3    H256495   5.594   4.881   4.417 -0.4638 -0.4940  0.4176
11694TIP3   OH256496   3.327   2.037   4.497  0.0545  0.3173  0.3048
11694TIP3    H156497   3.327   2.092   4.575  1.0011  1.3408 -0.3754
11694TIP3    H256498   3.413   1.996   4.497 -0.6942 -1.3066  0.8730
11695TIP3   OH256499   2.089   5.229  10.175  0.1115  0.0448  0.0076
11695TIP3    H156500   2.114   5.139  10.152 -2.6119 -0.8518  0.1993
11695TIP3    H256501   2.160   5.283  10.139  0.9284 -2.0283 -1.7342
11696TIP3   OH256502   1.273   6.062   2.891 -0.1086  0.0472  0.0642
11696TIP3    H156503   1.262   6.052   2.986 -0.5565  1.2632  0.1561
11696TIP3    H256504   1.185   6.052   2.856 -0.1374  0.8003 -0.0942
11697TIP3   OH256505   3.215   1.678   2.017  0.0280 -0.2226 -0.1343
11697TIP3    H156506   3.136   1.644   1.976 -0.2814 -0.1282  0.3760
11697TIP3    H256507   3.287   1.639   1.967 -0.3346 -0.4021 -0.5237
11698TIP3   OH256508   0.430   6.269  12.815  0.2604  0.6632 -0.0325
11698TIP3    H156509   0.483   6.317  12.879  2.1773 -1.9696  0.5344
11698TIP3    H256510   0.379   6.208  12.867  1.5001 -1.1971 -0.8905
11699TIP3   OH256511   4.118   0.366   2.744  0.2462 -0.2244 -0.0904
11699TIP3    H156512   4.136   0.286   2.794 -0.0697  0.3394  0.9806
11699TIP3    H256513   4.074   0.423   2.807  0.1726  0.6705 -0.9295
11700TIP3   OH256514   4.050   1.059   1.188 -0.1732  1.0053 -0.2158
11700TIP3    H156515   4.140   1.074   1.158  0.0669 -0.2718 -0.1928
11700TIP3    H256516   4.057   0.986   1.249 -1.1207  1.4484  0.4452
11701TIP3   OH256517   0.547   5.841   1.117 -0.1148 -0.1312 -0.2971
11701TIP3    H156518   0.634   5.819   1.149 -0.9622  0.0433  2.3138
11701TIP3    H256519   0.494   5.763   1.135 -0.5613 -0.2102 -1.7848
11702TIP3   OH256520   1.770   6.708  15.516  0.0941  0.2401 -0.0492
11702TIP3    H156521   1.835   6.778  15.521 -0.3356  0.5858  0.9976
11702TIP3    H256522   1.812   6.634  15.559  0.6246 -0.2327 -1.3291
11703TIP3   OH256523   2.684   3.561  16.659  0.0690  0.4606 -0.0349
11703TIP3    H156524   2.722   3.591  16.741 -1.5720  0.2462  0.8404
11703TIP3    H256525   2.676   3.467  16.669  0.0781  0.4031 -0.5396
11704TIP3   OH256526   5.800   3.236   1.469  0.5166 -0.1826 -0.5780
11704TIP3    H156527   5.810   3.141   1.469  0.8268 -0.1621  0.6434
11704TIP3    H256528   5.812   3.262   1.560  0.9180  1.0806 -0.9619
11705TIP3   OH256529   6.773   2.850   5.310 -0.1109  0.3153  0.2504
11705TIP3    H156530   6.853   2.900   5.327  0.3175 -0.1226 -0.3999
11705TIP3    H256531   6.757   2.801   5.391  0.9751 -0.5126 -0.0026
11706TIP3   OH256532   2.400   2.491   2.966 -0.7365 -0.2873 -0.5054
11706TIP3    H156533   2.360   2.501   2.879  1.2637 -0.3904 -1.4824
11706TIP3    H256534   2.489   2.523   2.956 -0.6103  0.2260  1.6848
11707TIP3   OH256535   1.482   6.696  16.721  0.1477  0.5352 -0.2148
11707TIP3    H156536   1.565   6.739  16.738  0.0471  0.8201 -0.4393
11707TIP3    H256537   1.422   6.730  16.788  0.7788 -1.3830  1.4246
11708TIP3   OH256538   6.678   6.053   6.044 -0.2433 -0.2726  0.1687
11708TIP3    H156539   6.689   5.962   6.019 -0.6133  0.0142 -1.1240
11708TIP3    H256540   6.765   6.092   6.034 -0.6211  0.1365 -2.0861
11709TIP3   OH256541   1.038   0.057  15.505  0.2226 -0.0347 -0.2238
11709TIP3    H156542   1.114   0.107  15.475 -0.2447  1.2640  0.7116
11709TIP3    H256543   1.004   0.017  15.425  1.3713  0.0703 -0.7906
11710TIP3   OH256544   4.636   3.909  12.256 -0.0971  0.4189 -0.2987
11710TIP3    H156545   4.687   3.865  12.325  1.0527  0.5141 -1.0536
11710TIP3    H256546   4.571   3.844  12.230  0.3118 -0.1092 -0.0311
11711TIP3   OH256547   6.634   2.793  16.519 -0.3561 -0.3703  0.1847
11711TIP3    H156548   6.542   2.769  16.509  0.2443 -2.7849 -0.0922
11711TIP3    H256549   6.672   2.721  16.570  1.5633  0.1322 -0.4617
11712TIP3   OH256550   1.178   2.470   1.497 -0.3963  0.6014  0.3078
11712TIP3    H156551   1.229   2.538   1.541  0.5882 -0.6628  1.1612
11712TIP3    H256552   1.135   2.422   1.567  2.9666 -2.8863  0.2858
11713TIP3   OH256553   0.216   1.555   1.391  0.1725  0.6870  0.0234
11713TIP3    H156554   0.214   1.476   1.445  0.0454  0.4139 -0.3753
11713TIP3    H256555   0.238   1.523   1.303  2.1482  1.3023  0.2433
11714TIP3   OH256556   5.862   6.594   1.324 -0.5045  0.3597 -0.8210
11714TIP3    H156557   5.905   6.673   1.289  0.5338  0.2002  0.0339
11714TIP3    H256558   5.823   6.623   1.406  0.2568 -0.0949 -0.2825
11715TIP3   OH256559   5.931   4.444   2.569 -0.2564 -0.1677  0.5350
11715TIP3    H156560   5.971   4.367   2.529  0.6207  0.4516  0.1924
11715TIP3    H256561   5.999   4.479   2.627 -0.2384  0.9850 -0.1585
11716TIP3   OH256562   0.154   6.344   4.048  0.1942  0.3242 -0.2787
11716TIP3    H156563   0.096   6.280   4.089 -0.8848  0.6688 -1.1808
11716TIP3    H256564   0.129   6.428   4.087 -0.6481  0.6140 -1.3726
11717TIP3   OH256565   4.376   0.071   1.603 -0.1316 -0.0834 -0.2053
11717TIP3    H156566   4.420  -0.006   1.640  0.1631 -0.1071 -0.5922
11717TIP3    H256567   4.433   0.144   1.623  1.2026 -0.3893 -2.5159
11718TIP3   OH256568   2.291   5.060  16.711  0.0392  0.5134  0.4701
11718TIP3    H156569   2.345   5.131  16.679 -0.3331  1.1280  1.1704
11718TIP3    H256570   2.316   4.984  16.658  0.2544  1.2212 -0.4553
11719TIP3   OH256571   6.514   1.614   2.809 -0.0285 -0.0781  0.4031
11719TIP3    H156572   6.474   1.562   2.879  1.0063 -0.3012  0.8450
11719TIP3    H256573   6.446   1.677   2.785 -0.9880 -1.0432  0.4718
11720TIP3   OH256574   3.162   4.288   3.222 -0.5246 -0.4622  0.2232
11720TIP3    H156575   3.119   4.311   3.139  1.2316 -3.0195 -1.5481
11720TIP3    H256576   3.104   4.222   3.260  0.1006 -1.4213 -0.4609
11721TIP3   OH256577   0.097   1.488  12.239 -0.1183 -0.1469 -0.1890
11721TIP3    H156578   0.118   1.581  12.243 -1.8733  0.3083 -0.7251
11721TIP3    H256579   0.004   1.483  12.264  0.4641 -1.9978  1.9290
11722TIP3   OH256580   2.233   5.933   0.833  0.0786 -0.2661 -0.2905
11722TIP3    H156581   2.219   5.976   0.918  0.4362 -0.9119  0.1094
11722TIP3    H256582   2.175   5.857   0.834  1.2463 -1.1921  0.0755
11723TIP3   OH256583   2.552   6.321   0.802 -0.0692  0.3422  0.4139
11723TIP3    H156584   2.499   6.241   0.801  1.1270 -0.4818  0.7056
11723TIP3    H256585   2.640   6.291   0.826  0.5970  1.6323 -0.3065
11724TIP3   OH256586   5.390   1.600  16.460  0.0166  0.1499  0.4282
11724TIP3    H156587   5.307   1.640  16.433 -1.0136  0.1484  3.1832
11724TIP3    H256588   5.456   1.667  16.444 -0.8325  0.9239  0.0573
11725TIP3   OH256589   2.415   5.117   1.911  0.2387 -0.3180 -0.1749
11725TIP3    H156590   2.361   5.194   1.894  1.0530  0.7974  1.9102
11725TIP3    H256591   2.365   5.044   1.875 -2.7625  0.6197  1.7005
11726TIP3   OH256592   3.401   5.945  16.275  0.5946 -0.1410  0.1090
11726TIP3    H156593   3.483   5.909  16.242 -0.4541 -1.8340 -0.8246
11726TIP3    H256594   3.424   5.984  16.359  2.2765 -0.9203  0.0559
11727TIP3   OH256595   5.979   5.117   5.900  0.7752  0.1029 -0.1233
11727TIP3    H156596   6.048   5.177   5.927  0.2029 -0.1004  1.9569
11727TIP3    H256597   5.898   5.166   5.912  0.4713  0.7039 -3.5039
11728TIP3   OH256598   2.753   6.278   2.398  0.5489  0.8850 -0.0045
11728TIP3    H156599   2.774   6.354   2.343 -1.2353  1.9599  0.7125
11728TIP3    H256600   2.663   6.294   2.427  0.2600 -1.3291  0.4933
11729TIP3   OH256601   5.348   1.602  12.654 -0.0414 -0.0740  0.5916
11729TIP3    H156602   5.439   1.631  12.652  0.1562 -0.7112 -0.7247
11729TIP3    H256603   5.352   1.509  12.674 -0.1378 -0.8316 -2.4462
11730TIP3   OH256604   0.074   0.852   2.784  0.2071 -0.0587 -0.2182
11730TIP3    H156605   0.133   0.927   2.775  1.2728 -0.9667 -1.3074
11730TIP3    H256606   0.023   0.852   2.702  0.5998 -0.8122 -0.4741
11731TIP3   OH256607   3.518   6.011  13.506 -0.6303  0.3715  0.6095
11731TIP3    H156608   3.489   5.920  13.493 -0.7579  0.4649  0.2356
11731TIP3    H256609   3.594   6.020  13.449 -0.8929  0.6333  0.2972
11732TIP3   OH256610   1.426   2.246  13.855 -0.7440 -0.1804 -0.8844
11732TIP3    H156611   1.373   2.230  13.777  0.6328  1.6146 -2.2953
11732TIP3    H256612   1.516   2.250  13.822  0.0898 -1.1170  1.1023
11733TIP3   OH256613   4.500   2.936   5.849  0.3163  0.2489  0.2760
11733TIP3    H156614   4.494   2.840   5.848 -0.0039  0.2623  0.8143
11733TIP3    H256615   4.438   2.964   5.782 -1.2400  0.1504  1.6121
11734TIP3   OH256616   5.747   5.440  15.972 -0.2431 -0.2214 -1.0308
11734TIP3    H156617   5.730   5.368  15.911 -0.5085 -0.7200 -0.3852
11734TIP3    H256618   5.827   5.415  16.017 -0.1761  0.0280 -1.0101
11735TIP3   OH256619   4.840   0.332   0.763  0.4723  0.1577  0.6423
11735TIP3    H156620   4.863   0.243   0.788  0.7004  0.2844  0.8917
11735TIP3    H256621   4.746   0.328   0.743  0.7535 -0.4026 -0.6047
11736TIP3   OH256622   6.496   5.321   2.673  0.4858 -0.4239  0.3852
11736TIP3    H156623   6.438   5.302   2.599  2.3431 -0.3639 -1.1608
11736TIP3    H256624   6.444   5.379   2.730 -1.6279 -1.8954  0.0800
11737TIP3   OH256625   0.452   2.331  12.046  0.0416 -0.5075  0.1939
11737TIP3    H156626   0.474   2.424  12.055  1.1247 -0.7694  0.4233
11737TIP3    H256627   0.535   2.290  12.020 -0.7478 -1.2064 -1.3593
11738TIP3   OH256628   6.458   2.386  17.132 -0.2420 -0.0189 -0.2345
11738TIP3    H156629   6.379   2.440  17.139 -0.6478 -0.2884 -2.1494
11738TIP3    H256630   6.453   2.347  17.044  2.0603  0.0164 -0.4453
11739TIP3   OH256631   1.895   6.096  15.347 -0.1657 -0.1028  0.1244
11739TIP3    H156632   1.897   6.055  15.433  0.1446 -1.5967 -0.5511
11739TIP3    H256633   1.963   6.050  15.297  1.5597  2.5470 -0.1705
11740TIP3   OH256634   6.387   1.164   1.131  0.3114 -0.3122 -0.6491
11740TIP3    H156635   6.340   1.136   1.053  0.4490 -0.9121 -0.5177
11740TIP3    H256636   6.353   1.252   1.150 -0.0299 -0.3436 -1.1287
11741TIP3   OH256637   0.276   1.137  16.940 -0.0274 -0.0637 -0.1508
11741TIP3    H156638   0.356   1.190  16.934  0.5428 -0.6226  1.8763
11741TIP3    H256639   0.262   1.106  16.850  1.1800  1.2473 -0.8401
11742TIP3   OH256640   0.935   0.307   1.832  0.0978 -0.4857 -0.0105
11742TIP3    H156641   0.967   0.220   1.806 -1.9967 -0.3458 -3.8228
11742TIP3    H256642   0.996   0.368   1.791 -0.3352 -0.1867 -0.2163
11743TIP3   OH256643   0.420   4.960  13.654 -0.1519 -0.0423 -0.4818
11743TIP3    H156644   0.458   4.939  13.568 -0.6573 -0.4625 -0.6083
11743TIP3    H256645   0.486   4.932  13.717 -0.5823 -1.5568 -0.6660
11744TIP3   OH256646   0.061   3.841   3.680 -0.2128 -0.3703  0.2757
11744TIP3    H156647  -0.023   3.863   3.721  0.2532  0.0240  1.0255
11744TIP3    H256648   0.097   3.925   3.651  0.1437 -0.4841  0.3852
11745TIP3   OH256649   2.372   4.306   4.026 -0.1070  0.2506  0.2027
11745TIP3    H156650   2.290   4.336   3.989  0.3111  2.1628  0.7233
11745TIP3    H256651   2.439   4.361   3.985  0.6110  0.6261  1.8011
11746TIP3   OH256652   3.051   2.506  14.407 -0.2084 -0.4044  0.5979
11746TIP3    H156653   3.034   2.419  14.372  0.0256  0.5018 -1.9623
11746TIP3    H256654   3.106   2.491  14.484 -0.8828 -2.5251  0.7164
11747TIP3   OH256655   1.007   1.815  14.090  0.1773 -0.3716  0.2109
11747TIP3    H156656   1.010   1.771  14.005 -0.6302 -1.0794  0.5328
11747TIP3    H256657   1.092   1.798  14.130  1.0577  1.0315 -0.9544
11748TIP3   OH256658   3.271   4.676  12.361  0.4769  0.0932  0.2010
11748TIP3    H156659   3.338   4.702  12.424  0.5853 -1.3038  0.6942
11748TIP3    H256660   3.284   4.582  12.349 -1.1498 -0.1501  0.0326
11749TIP3   OH256661   0.720   6.130  14.357 -0.3226  0.0307  0.5188
11749TIP3    H156662   0.685   6.112  14.444 -1.2774 -0.9441 -0.0444
11749TIP3    H256663   0.786   6.062  14.343  0.6925  0.9007  0.9346
11750TIP3   OH256664   5.154   1.300  13.309 -0.6342 -0.4512  0.2227
11750TIP3    H156665   5.064   1.268  13.296  0.0801 -2.1474 -0.8857
11750TIP3    H256666   5.200   1.226  13.348  0.5837 -0.0346 -0.3767
11751TIP3   OH256667   5.807   2.592  13.783  0.5201 -0.1612 -0.0265
11751TIP3    H156668   5.827   2.599  13.876 -2.6906  0.7087  0.7418
11751TIP3    H256669   5.799   2.498  13.767  1.0148 -0.3158  0.6147
11752TIP3   OH256670   3.700   3.517  16.798 -0.2382 -0.3778  0.2107
11752TIP3    H156671   3.654   3.589  16.842  0.3881 -0.1900  0.5760
11752TIP3    H256672   3.688   3.535  16.705  1.0896  1.0141  0.2661
11753TIP3   OH256673   5.763   2.806  13.561 -0.5657  0.1978 -0.2457
11753TIP3    H156674   5.795   2.847  13.642 -2.2966  2.9993 -0.8229
11753TIP3    H256675   5.809   2.723  13.556  3.1310  1.9277  1.2339
11754TIP3   OH256676   4.395   1.598  14.545  0.3956  0.5167  0.1351
11754TIP3    H156677   4.394   1.503  14.536  0.7345  0.5292 -0.0483
11754TIP3    H256678   4.329   1.617  14.611 -0.8844  0.2867 -1.0497
11755TIP3   OH256679   3.773   2.718  10.576  0.0686 -0.4280  0.2061
11755TIP3    H156680   3.777   2.777  10.501 -1.2675 -0.6171 -0.0426
11755TIP3    H256681   3.694   2.667  10.562 -1.0008  0.4707  2.4274
11756TIP3   OH256682   5.695   3.664   5.396  0.3255 -0.7033  0.3351
11756TIP3    H156683   5.705   3.676   5.301 -1.2673  0.6760  0.3021
11756TIP3    H256684   5.784   3.673   5.430  0.8509 -0.6549 -0.9636
11757TIP3   OH256685   6.554   3.457   1.254  0.3261  0.3039  0.5615
11757TIP3    H156686   6.571   3.387   1.317  0.6122 -0.3861 -0.2645
11757TIP3    H256687   6.466   3.440   1.222 -0.3473  1.4335  1.7377
11758TIP3   OH256688   1.178   1.690   1.258  0.4689  0.2457 -0.0148
11758TIP3    H156689   1.253   1.726   1.306  2.7223 -1.3753 -2.0100
11758TIP3    H256690   1.140   1.626   1.318  2.1380 -0.5131  0.3049
11759TIP3   OH256691   6.638   2.280   4.984 -0.8565  0.0640 -0.0605
11759TIP3    H156692   6.607   2.189   4.986  0.0034 -0.2252  0.7071
11759TIP3    H256693   6.558   2.332   4.977 -1.3186 -0.7718 -1.2478
11760TIP3   OH256694   2.601   3.246  12.597 -0.1096  0.3357  0.7775
11760TIP3    H156695   2.531   3.222  12.536 -0.2375  1.0925  0.6204
11760TIP3    H256696   2.556   3.265  12.679 -0.0355  0.3187  0.8223
11761TIP3   OH256697   2.763   6.033  12.061 -0.0578 -0.4342 -0.3089
11761TIP3    H156698   2.724   6.093  11.997 -0.7317  0.6657  1.0921
11761TIP3    H256699   2.721   5.949  12.043 -0.6851 -0.0046 -0.9232
11762TIP3   OH256700   6.196   5.001   4.706  0.0488  0.1930  0.0433
11762TIP3    H156701   6.256   4.927   4.709 -1.9729 -1.5395  0.3786
11762TIP3    H256702   6.181   5.025   4.797 -0.4124  0.0561  0.0056
11763TIP3   OH256703   0.939   5.889   3.397 -0.1820 -0.5428  0.3225
11763TIP3    H156704   0.894   5.942   3.330  0.7747 -1.2173 -0.9046
11763TIP3    H256705   0.870   5.867   3.460 -1.5937 -1.5059 -1.4606
11764TIP3   OH256706   3.619   1.704   2.247 -0.3133  0.2937  0.2922
11764TIP3    H156707   3.649   1.642   2.180 -0.7504  1.7450 -1.3007
11764TIP3    H256708   3.535   1.668   2.276 -1.2438  0.7897 -1.6076
11765TIP3   OH256709   6.249   1.063  15.684 -0.7785  0.1516 -0.2703
11765TIP3    H156710   6.333   1.044  15.726 -0.8642  0.1212 -0.1115
11765TIP3    H256711   6.197   1.104  15.753 -1.5499 -1.5428  0.2032
11766TIP3   OH256712   5.550   2.894  11.587 -0.0221  0.0226  0.0014
11766TIP3    H156713   5.485   2.823  11.575 -0.5217  0.5494 -0.4818
11766TIP3    H256714   5.586   2.878  11.674 -0.9581 -0.1637  0.3693
11767TIP3   OH256715   2.832   3.889   0.610 -0.0559  0.0246 -0.5128
11767TIP3    H156716   2.793   3.853   0.530  2.1459  1.7076 -2.5060
11767TIP3    H256717   2.927   3.886   0.594  0.3986  1.8199  1.3871
11768TIP3   OH256718   3.080   6.613   3.786  0.4482  0.2089 -0.3508
11768TIP3    H156719   3.151   6.650   3.735 -0.3325  4.1039  1.0706
11768TIP3    H256720   3.113   6.609   3.876 -0.3866 -0.1250 -0.0393
11769TIP3   OH256721   3.587   2.262   2.574 -0.1051 -0.5987 -0.3430
11769TIP3    H156722   3.556   2.173   2.586 -1.1319 -0.2450 -0.2720
11769TIP3    H256723   3.682   2.256   2.582 -0.1712 -1.6686 -0.2786
11770TIP3   OH256724   0.975   6.221  11.036  0.0531 -0.4237 -0.4253
11770TIP3    H156725   0.922   6.174  10.972 -2.4620  2.3274 -0.5844
11770TIP3    H256726   0.956   6.313  11.020  2.8924  0.6290  1.3501
11771TIP3   OH256727   1.580   1.128   0.554  0.0720 -0.7113 -0.1359
11771TIP3    H156728   1.567   1.153   0.462  0.2050  0.4022  0.1338
11771TIP3    H256729   1.628   1.201   0.592 -2.9669  0.5503  1.6939
11772TIP3   OH256730   6.316   1.582   4.903  0.3427 -0.1081  0.1182
11772TIP3    H156731   6.272   1.516   4.850  0.1318 -0.4390  0.6949
11772TIP3    H256732   6.376   1.531   4.958  0.8789  0.2693 -0.1126
11773TIP3   OH256733   3.818   1.931  14.187  0.5330 -0.0571  0.2290
11773TIP3    H156734   3.907   1.895  14.184  0.9784  1.0291 -0.0755
11773TIP3    H256735   3.764   1.864  14.147  1.5015  0.0256 -1.3223
11774TIP3   OH256736   6.000   5.052  14.527 -0.1589 -0.1834  0.9749
11774TIP3    H156737   5.911   5.042  14.495  0.2901  1.5241 -1.0262
11774TIP3    H256738   6.007   5.144  14.552  0.1944 -0.9462  4.1432
11775TIP3   OH256739   3.051   6.733   4.258 -0.5302  0.2972 -0.3882
11775TIP3    H156740   3.132   6.761   4.300  1.7428 -2.4826 -2.4643
11775TIP3    H256741   3.005   6.814   4.238  1.3129  1.9617  1.6064
11776TIP3   OH256742   5.530   1.315   5.383  0.0100  0.2160  0.2027
11776TIP3    H156743   5.448   1.313   5.432 -1.7708 -1.9043 -2.4922
11776TIP3    H256744   5.506   1.353   5.298  1.9521  0.1085 -0.4459
11777TIP3   OH256745   5.998   2.502   5.731 -0.5468  0.2386  0.6539
11777TIP3    H156746   6.047   2.581   5.708 -0.9422  0.0254 -0.9798
11777TIP3    H256747   5.932   2.532   5.794  0.4727  0.8471  1.4790
11778TIP3   OH256748   3.776   6.084  13.424  0.2462 -0.4871  0.0563
11778TIP3    H156749   3.791   6.172  13.389  1.3122 -0.6646  0.0281
11778TIP3    H256750   3.864   6.050  13.443 -0.1994 -1.1769  0.9850
11779TIP3   OH256751   6.408   1.331  16.694  0.2955 -0.1469 -0.0378
11779TIP3    H156752   6.400   1.406  16.636 -0.1120 -0.9107 -1.0085
11779TIP3    H256753   6.412   1.256  16.635 -0.2234 -0.9659  0.9302
11780TIP3   OH256754   1.909   6.159  11.933  0.2154 -0.2281 -0.0612
11780TIP3    H156755   1.877   6.217  12.002  0.6243 -0.0769  0.0055
11780TIP3    H256756   1.930   6.217  11.860 -1.2124 -0.4930 -0.7090
11781TIP3   OH256757   6.649   2.001  13.212  0.5500 -0.0777 -0.3467
11781TIP3    H156758   6.735   2.003  13.252  0.6005 -1.1942 -0.3762
11781TIP3    H256759   6.608   2.083  13.239  1.2628  0.0295  0.4467
11782TIP3   OH256760   1.110   4.948   2.253  0.2087 -0.2291  0.6679
11782TIP3    H156761   1.071   5.035   2.261  1.2241  0.2714  0.3061
11782TIP3    H256762   1.113   4.914   2.342  0.3525  0.3503  0.8832
11783TIP3   OH256763   0.438   3.361   1.564  0.4162  0.1941 -0.8921
11783TIP3    H156764   0.462   3.275   1.598 -0.6343  0.1157 -0.2721
11783TIP3    H256765   0.416   3.347   1.472 -0.2011 -0.3017 -0.6750
11784TIP3   OH256766   0.312   0.599  14.783 -0.3869  0.3559  0.0086
11784TIP3    H156767   0.224   0.625  14.756 -0.4716  0.3404  0.2615
11784TIP3    H256768   0.341   0.538  14.716 -0.3228  0.8456 -0.4088
11785TIP3   OH256769   4.308   5.550   1.070 -0.1782 -0.2864 -0.4906
11785TIP3    H156770   4.346   5.617   1.013  1.5181  0.1685  1.0608
11785TIP3    H256771   4.384   5.502   1.103 -1.0236 -0.0854  1.9018
11786TIP3   OH256772   5.121   1.217  13.772  0.5965  0.4702  0.1248
11786TIP3    H156773   5.077   1.161  13.708  0.0694 -0.0023  0.8747
11786TIP3    H256774   5.142   1.158  13.845  1.4318  0.9371  0.2826
11787TIP3   OH256775   1.742   1.591   6.300  0.1729  0.3708 -0.2406
11787TIP3    H156776   1.795   1.653   6.251  1.9862 -0.7036  0.2623
11787TIP3    H256777   1.789   1.508   6.293 -3.0177 -1.4613 -2.3419
11788TIP3   OH256778   0.372   0.793  13.830  0.0916  0.4338 -0.0073
11788TIP3    H156779   0.404   0.762  13.745  1.0966 -0.8663  0.8087
11788TIP3    H256780   0.450   0.799  13.885 -0.5475  1.2004  0.8573
11789TIP3   OH256781   5.588   5.198  16.175  0.8099 -0.1266  0.3327
11789TIP3    H156782   5.526   5.156  16.115  0.9991 -1.5280  1.0700
11789TIP3    H256783   5.585   5.291  16.151 -1.0074 -0.2611 -0.1651
11790TIP3   OH256784   4.128   3.905  14.174 -0.3105  0.1441 -0.4373
11790TIP3    H156785   4.189   3.945  14.236 -0.5365  0.0095 -0.1287
11790TIP3    H256786   4.042   3.937  14.201 -0.1885  2.7641 -2.6371
11791TIP3   OH256787   6.632   6.535   4.739 -0.0270 -0.1310  0.0121
11791TIP3    H156788   6.570   6.603   4.766  0.8753  0.1737  1.4510
11791TIP3    H256789   6.718   6.570   4.765  0.7275 -0.7127 -1.5668
11792TIP3   OH256790   5.290   5.573   3.914 -0.3876 -0.2435 -0.1797
11792TIP3    H156791   5.369   5.601   3.868  1.0230 -0.9491  1.6821
11792TIP3    H256792   5.236   5.532   3.846  0.9405  0.0580 -1.4667
11793TIP3   OH256793   5.516   6.732   0.263  0.1196  0.0362 -0.2238
11793TIP3    H156794   5.546   6.642   0.258  0.3251  0.1889 -2.5923
11793TIP3    H256795   5.528   6.767   0.175 -2.9739  1.4090 -0.2454
11794TIP3   OH256796   1.678   6.707  11.348 -0.5483  0.0570  0.1892
11794TIP3    H156797   1.748   6.752  11.301 -0.2311  2.7187  2.8659
11794TIP3    H256798   1.598   6.737  11.304 -0.1652  0.2764 -0.3744
11795TIP3   OH256799   5.593   1.241   1.906 -0.0322 -0.1776 -0.0453
11795TIP3    H156800   5.608   1.208   1.818  0.1607  0.2671 -0.1800
11795TIP3    H256801   5.498   1.251   1.912  0.0004  0.3929 -0.4230
11796TIP3   OH256802   4.408   3.288  15.235  0.2622  0.0428 -0.1391
11796TIP3    H156803   4.481   3.314  15.292 -1.3747  1.0168  1.6611
11796TIP3    H256804   4.430   3.325  15.149  2.3916 -0.6891  0.0315
11797TIP3   OH256805   5.013   0.983  11.871 -0.1239 -0.7810 -0.2204
11797TIP3    H156806   4.967   0.907  11.907  0.8343 -0.6780  1.2930
11797TIP3    H256807   4.984   1.056  11.925  1.0205 -0.5385  0.0757
11798TIP3   OH256808   5.901   6.004   5.791 -0.3063 -0.3874  0.2707
11798TIP3    H156809   5.958   6.033   5.719 -1.2749  1.4623  0.2135
11798TIP3    H256810   5.958   6.004   5.868 -0.1794  1.3817  0.2048
11799TIP3   OH256811   2.268   5.432  12.084  0.2408 -0.6131  0.3522
11799TIP3    H156812   2.361   5.447  12.103  0.0841  1.0701 -0.0927
11799TIP3    H256813   2.221   5.479  12.153 -0.2754  0.4701 -0.7031
11800TIP3   OH256814   5.953   3.475   5.274 -0.0023 -0.3614  0.4334
11800TIP3    H156815   6.013   3.406   5.305 -0.5070 -0.1984  1.7974
11800TIP3    H256816   5.988   3.555   5.312  0.7490  0.2307 -1.3814
11801TIP3   OH256817   3.684   1.045  16.192  0.3823 -0.8235  0.7425
11801TIP3    H156818   3.761   1.058  16.136 -1.6589 -2.1153 -2.7162
11801TIP3    H256819   3.631   1.123  16.179 -1.5084 -2.3823 -1.8154
11802TIP3   OH256820   0.058   2.227  15.444  0.1880  0.2583 -0.3239
11802TIP3    H156821  -0.023   2.275  15.464 -0.8139 -1.6985  0.6212
11802TIP3    H256822   0.128   2.281  15.481 -0.8760  0.9774  0.6985
11803TIP3   OH256823   2.052   0.516   4.100  0.0040 -0.4082 -0.3665
11803TIP3    H156824   2.026   0.608   4.103 -0.4003 -0.5330  0.2460
11803TIP3    H256825   1.988   0.471   4.155  1.1048 -0.8405  0.5969
11804TIP3   OH256826   3.781   0.081  16.484  0.1170  0.1210 -0.5857
11804TIP3    H156827   3.751   0.093  16.394 -0.5412 -1.0024 -0.5422
11804TIP3    H256828   3.831  -0.001  16.481 -1.2735 -0.8077  0.3557
11805TIP3   OH256829   2.773   3.148   1.389  0.0346 -0.8097  0.3288
11805TIP3    H156830   2.830   3.166   1.315 -1.1083 -1.7816 -0.8355
11805TIP3    H256831   2.827   3.166   1.466  1.8024 -1.4277 -0.7154
11806TIP3   OH256832   5.285   3.818  13.707  0.7669  0.0004 -0.3143
11806TIP3    H156833   5.247   3.815  13.795 -0.8110 -0.9778 -0.9907
11806TIP3    H256834   5.349   3.746  13.706 -0.6321 -1.2928 -0.5460
11807TIP3   OH256835   4.493   6.256  15.453 -0.3542  0.5556  0.3145
11807TIP3    H156836   4.523   6.341  15.421  1.7263 -0.0240  0.5490
11807TIP3    H256837   4.398   6.265  15.462 -0.4906  2.0583 -1.9888
11808TIP3   OH256838   4.495   0.716  11.985 -0.1154  0.1783 -0.0428
11808TIP3    H156839   4.412   0.714  12.032  0.1242 -0.0303  0.3765
11808TIP3    H256840   4.555   0.666  12.040  0.3016  0.3709 -0.3176
11809TIP3   OH256841   4.397   6.146  11.298 -0.5417  0.4859 -0.2552
11809TIP3    H156842   4.343   6.067  11.306 -0.2703  0.3140 -0.1129
11809TIP3    H256843   4.399   6.165  11.204  0.7990 -0.6655 -0.4973
11810TIP3   OH256844   3.896   2.032   4.248  0.2315 -0.5929  0.1237
11810TIP3    H156845   3.856   2.097   4.307 -0.2031 -0.6206 -0.1351
11810TIP3    H256846   3.838   2.031   4.172  1.2746  0.0935 -0.7064
11811TIP3   OH256847   6.228   5.089   2.460  0.2081 -0.2422 -0.0804
11811TIP3    H156848   6.254   5.004   2.423  0.0578  0.2337 -1.3283
11811TIP3    H256849   6.284   5.152   2.415  0.0702  0.3585  0.5799
11812TIP3   OH256850   3.916   0.452  13.057 -0.1448  0.5421 -0.2330
11812TIP3    H156851   3.868   0.444  13.140  1.4888 -0.3976  0.6609
11812TIP3    H256852   3.992   0.505  13.078  0.2168  0.4165 -1.1829
11813TIP3   OH256853   3.082   0.642  13.635  0.4010 -0.4629 -0.4615
11813TIP3    H156854   3.095   0.550  13.658  0.2336  0.0050  1.7447
11813TIP3    H256855   3.163   0.685  13.664  0.2931  0.1485 -1.0592
11814TIP3   OH256856   1.590   3.540  12.775  0.0709  0.0404  0.0127
11814TIP3    H156857   1.599   3.490  12.856 -0.0627 -0.3543 -0.2132
11814TIP3    H256858   1.540   3.618  12.801  0.0901 -0.0491  0.3240
11815TIP3   OH256859   5.418   4.813   2.640  0.6263 -0.0142  0.3224
11815TIP3    H156860   5.371   4.851   2.714 -0.1335 -0.6082  0.1537
11815TIP3    H256861   5.480   4.751   2.680 -0.5548 -1.1675  0.4248
11816TIP3   OH256862   6.364   1.089  11.783 -0.6898  0.6807  0.5766
11816TIP3    H156863   6.370   0.994  11.794 -0.3724  0.8714  2.2607
11816TIP3    H256864   6.300   1.101  11.712  0.7995 -0.8064 -1.1394
11817TIP3   OH256865   3.238   3.056   5.973  0.3304  0.2538  0.0420
11817TIP3    H156866   3.286   2.978   5.947  0.3902 -0.4873  2.1720
11817TIP3    H256867   3.290   3.094   6.044 -0.7023  1.1209  0.3673
11818TIP3   OH256868   5.104   2.061   1.937  0.0872  0.2055  0.5892
11818TIP3    H156869   5.113   1.966   1.931  1.7718  0.3528  0.2558
11818TIP3    H256870   5.031   2.074   1.997  1.4443 -1.3175  2.7313
11819TIP3   OH256871   0.985   1.693  13.386 -0.4311 -0.1751 -0.2531
11819TIP3    H156872   1.001   1.771  13.438  0.9247  0.2440 -1.2359
11819TIP3    H256873   0.917   1.719  13.324 -1.3497 -0.3839  0.6347
11820TIP3   OH256874   5.243   0.813  14.131 -0.0880  0.2714 -0.0487
11820TIP3    H156875   5.179   0.746  14.157  0.1921 -0.3782 -0.9643
11820TIP3    H256876   5.209   0.846  14.048  1.1733 -0.6797 -0.9817
11821TIP3   OH256877   1.218   1.535  10.294  0.1051  0.0466  0.5742
11821TIP3    H156878   1.172   1.455  10.267 -0.7818  0.5552  0.5521
11821TIP3    H256879   1.176   1.605  10.245  0.6688  0.5759  0.8331
11822TIP3   OH256880   5.084   1.159   4.724 -0.1674  0.1856  0.6959
11822TIP3    H156881   5.099   1.235   4.781 -1.1993  0.3262  0.8094
11822TIP3    H256882   5.146   1.170   4.652  1.7447 -0.4107  2.1700
11823TIP3   OH256883   4.310   0.499  13.516 -0.1075 -0.0670  0.3279
11823TIP3    H156884   4.348   0.414  13.537 -0.1998 -0.2686 -0.2890
11823TIP3    H256885   4.360   0.530  13.441 -0.1129  0.3988  0.5117
11824TIP3   OH256886   6.672   2.952  10.337  0.0440 -0.6993  0.1460
11824TIP3    H156887   6.733   2.878  10.344 -0.5533 -1.1359  0.9470
11824TIP3    H256888   6.721   3.020  10.292  0.3308 -1.8830 -1.3985
11825TIP3   OH256889   0.786   1.816   0.511 -0.6795 -0.0923  0.3508
11825TIP3    H156890   0.757   1.767   0.434 -0.0318  0.3195 -0.1697
11825TIP3    H256891   0.879   1.795   0.520 -0.6685  0.1374  0.8142
11826TIP3   OH256892   0.866   5.103  13.696 -0.8257 -0.0400 -0.4744
11826TIP3    H156893   0.950   5.101  13.650  0.0006  0.4782  0.9354
11826TIP3    H256894   0.812   5.163  13.644  0.0552  0.4977 -0.7909
11827TIP3   OH256895   0.058   4.474   5.625 -0.2297 -0.2340  0.0152
11827TIP3    H156896   0.097   4.470   5.538 -0.1821 -1.8860  0.0716
11827TIP3    H256897   0.128   4.443   5.683 -0.3331  0.6426  0.6270
11828TIP3   OH256898   3.447   4.415  13.814  0.7612  0.3604 -0.4427
11828TIP3    H156899   3.492   4.375  13.889  0.6775  1.4254  0.1887
11828TIP3    H256900   3.362   4.441  13.848 -0.3544 -1.5191 -1.5973
11829TIP3   OH256901   2.840   4.499   1.755  0.6449  0.0979  0.4225
11829TIP3    H156902   2.752   4.511   1.720  1.0034 -0.5619 -0.7566
11829TIP3    H256903   2.879   4.431   1.700  2.0662  0.7358  0.5991
11830TIP3   OH256904   6.178   3.017   4.707  0.8056  0.2449  0.1289
11830TIP3    H156905   6.099   2.981   4.667  1.6001  0.0806 -1.3864
11830TIP3    H256906   6.206   3.086   4.647  2.5646 -0.6386 -0.1363
11831TIP3   OH256907   2.348   3.850  16.087 -0.2072 -0.0254 -0.3650
11831TIP3    H156908   2.414   3.828  16.153  0.6409 -0.5425 -1.3659
11831TIP3    H256909   2.282   3.900  16.136  0.4164 -0.3480  0.8631
11832TIP3   OH256910   4.757   6.462  11.921  0.0977 -0.0928 -0.0015
11832TIP3    H156911   4.826   6.426  11.865 -0.3572  0.0978 -0.6901
11832TIP3    H256912   4.801   6.532  11.971  0.2820  0.3733 -0.8084
11833TIP3   OH256913   2.581   1.556   0.644 -0.1067 -0.1376  0.1307
11833TIP3    H156914   2.596   1.650   0.632 -0.2135 -0.3156 -1.6130
11833TIP3    H256915   2.650   1.514   0.592 -0.3245 -1.0306  0.5471
11834TIP3   OH256916   3.634   4.211  15.455 -0.0661  0.6287 -0.3378
11834TIP3    H156917   3.604   4.121  15.447  1.2460  0.2616 -1.6177
11834TIP3    H256918   3.649   4.224  15.548 -0.5786 -0.3540 -0.1057
11835TIP3   OH256919   0.869   4.606   2.015  0.0323  1.0828  0.4701
11835TIP3    H156920   0.857   4.605   2.110 -0.9219  1.6126  0.3639
11835TIP3    H256921   0.913   4.689   1.997 -0.1850  1.1810  0.3986
11836TIP3   OH256922   1.017   4.767  15.346  0.1528  0.4333  0.3638
11836TIP3    H156923   1.042   4.793  15.434  2.1439  0.8182 -0.2652
11836TIP3    H256924   1.058   4.832  15.289  0.2775 -0.7277 -0.9238
11837TIP3   OH256925   3.236   5.422   3.828 -0.0776  0.2903  0.1733
11837TIP3    H156926   3.319   5.376   3.844  0.6302  1.4932  0.1116
11837TIP3    H256927   3.255   5.481   3.755 -0.7392  1.1919  0.7042
11838TIP3   OH256928   2.280   2.656   1.348 -0.6627  0.1045  0.0944
11838TIP3    H156929   2.259   2.611   1.266 -0.7601  0.8534 -0.2960
11838TIP3    H256930   2.374   2.672   1.343 -0.6389  0.0034  0.2060
11839TIP3   OH256931   1.248   1.666  15.190  0.2156  0.1676  1.2384
11839TIP3    H156932   1.325   1.661  15.133  0.0185  0.3387  0.9541
11839TIP3    H256933   1.229   1.576  15.213 -1.0138 -0.1299 -0.7319
11840TIP3   OH256934   1.752   6.684  16.106  0.4232 -0.1699 -0.0286
11840TIP3    H156935   1.755   6.703  16.012  1.8092 -1.0102 -0.1972
11840TIP3    H256936   1.795   6.759  16.147 -1.4730  0.8987  0.1055
11841TIP3   OH256937   6.411   1.746  16.256 -0.1317  0.2027  0.0461
11841TIP3    H156938   6.340   1.781  16.201 -1.5449 -0.4061  1.4219
11841TIP3    H256939   6.377   1.748  16.345  0.7985 -2.0032  0.5282
11842TIP3   OH256940   0.528   2.066  15.221 -0.7104  0.7573  0.1981
11842TIP3    H156941   0.549   2.158  15.209 -1.3587  0.7603 -1.1352
11842TIP3    H256942   0.602   2.019  15.183 -2.3028  0.7734 -3.3860
11843TIP3   OH256943   2.735   3.144  16.656  0.1811  0.4226  0.5824
11843TIP3    H156944   2.814   3.185  16.620  0.5224 -1.7673 -1.4370
11843TIP3    H256945   2.767   3.090  16.728  1.1817 -2.7861 -2.0368
11844TIP3   OH256946   4.859   2.278   6.405 -0.4016 -0.0325 -0.3351
11844TIP3    H156947   4.810   2.254   6.327 -3.4777 -0.9320  1.7170
11844TIP3    H256948   4.864   2.197   6.457  3.4558 -0.0426 -0.3730
11845TIP3   OH256949   1.400   2.679  12.816  0.6326  0.2355 -0.3588
11845TIP3    H156950   1.452   2.605  12.846  0.3414  0.3327  0.3958
11845TIP3    H256951   1.463   2.750  12.803  0.7010  0.3199  0.4401
11846TIP3   OH256952   2.479   6.396  13.584 -0.7249 -0.1862  0.3812
11846TIP3    H156953   2.450   6.436  13.665  0.8397  1.1213  0.3582
11846TIP3    H256954   2.574   6.384  13.595 -0.4331  0.2137 -1.2984
11847TIP3   OH256955   5.195   1.278   5.611 -0.1553  0.6644  0.0607
11847TIP3    H156956   5.193   1.276   5.515 -1.5952 -1.0892  0.0751
11847TIP3    H256957   5.158   1.363   5.633 -2.8255 -0.1114 -0.9838
11848TIP3   OH256958   1.678   2.257   0.657 -0.0124  0.3186 -0.1076
11848TIP3    H156959   1.600   2.312   0.648 -1.1691 -0.8491  2.0513
11848TIP3    H256960   1.743   2.314   0.697 -0.9244  0.4175  1.3099
11849TIP3   OH256961   5.307   4.315   1.227  0.2171  0.0193 -0.6344
11849TIP3    H156962   5.384   4.295   1.174  0.3786  0.4504 -0.5751
11849TIP3    H256963   5.311   4.410   1.239  1.0794 -0.2052  1.4725
11850TIP3   OH256964   5.651   1.731  11.604 -0.4342 -0.5327  0.2130
11850TIP3    H156965   5.694   1.650  11.575  0.1281  0.0781 -0.7055
11850TIP3    H256966   5.598   1.704  11.679  2.1185 -1.2036  1.9076
11851TIP3   OH256967   5.492   0.220  11.700  0.0167 -0.5565  0.4271
11851TIP3    H156968   5.457   0.243  11.614  0.5227 -0.4504  0.2425
11851TIP3    H256969   5.460   0.288  11.759  0.1301 -0.3212  0.2127
11852TIP3   OH256970   4.404   2.501   3.881  0.2289  0.1810  0.2160
11852TIP3    H156971   4.422   2.571   3.818  0.4998  0.6241  0.7718
11852TIP3    H256972   4.313   2.478   3.866 -0.0577  1.1126  0.4729
11853TIP3   OH256973   1.036   6.396   4.143  0.0463  0.2898 -0.4257
11853TIP3    H156974   0.964   6.339   4.115  0.3819 -0.3959  0.0864
11853TIP3    H256975   0.998   6.451   4.211 -0.5819  1.4789 -1.6755
11854TIP3   OH256976   0.231   1.887   2.952 -0.1976  0.0199  0.1814
11854TIP3    H156977   0.249   1.980   2.935 -0.4683 -0.0528 -0.5241
11854TIP3    H256978   0.146   1.871   2.910  1.2629 -1.3152 -2.5146
11855TIP3   OH256979   1.434   6.711   3.346  0.8086 -0.3751  0.2947
11855TIP3    H156980   1.528   6.700   3.329  1.1670  0.4132  1.6070
11855TIP3    H256981   1.393   6.634   3.306  2.2100 -1.6193  1.1646
11856TIP3   OH256982   3.538   0.483  15.031  0.0598  0.2535  0.3550
11856TIP3    H156983   3.478   0.528  15.090  0.9726  0.6831  0.9678
11856TIP3    H256984   3.625   0.501  15.066  0.5465 -0.4998 -0.4251
11857TIP3   OH256985   3.452   4.925   5.431 -0.0202 -0.2160 -0.5246
11857TIP3    H156986   3.398   4.986   5.481  1.5106  0.2288  0.6791
11857TIP3    H256987   3.482   4.861   5.495 -0.9983 -1.8509 -1.6323
11858TIP3   OH256988   2.679   5.740   3.397  0.3844 -0.1031  0.3087
11858TIP3    H156989   2.639   5.751   3.483  1.3760 -2.7494  1.2118
11858TIP3    H256990   2.760   5.789   3.402  0.1516  0.2505  0.6732
11859TIP3   OH256991   2.389   0.579  15.537 -0.3681 -0.3140  0.6108
11859TIP3    H156992   2.412   0.588  15.630  1.3703 -1.4469  0.3365
11859TIP3    H256993   2.392   0.669  15.503  1.6457 -0.1519  1.1028
11860TIP3   OH256994   6.554   4.040   2.237  0.1656 -0.1712  1.0316
11860TIP3    H156995   6.491   4.007   2.301  0.8839 -1.2806  1.1915
11860TIP3    H256996   6.639   4.035   2.283  0.4228  1.0305  0.7278
11861TIP3   OH256997   1.528   4.285   3.385 -0.1328 -0.5993  0.1732
11861TIP3    H156998   1.528   4.278   3.480 -2.5554 -2.2282  0.1381
11861TIP3    H256999   1.443   4.322   3.363 -0.4957 -2.1781 -1.3938
11862TIP3   OH257000   3.575   0.158   1.700  0.5606  0.3828 -0.1465
11862TIP3    H157001   3.496   0.103   1.709  1.2137 -0.9523 -1.9154
11862TIP3    H257002   3.541   0.246   1.682 -0.5086  0.3129  1.3517
11863TIP3   OH257003   6.539   6.427  14.439  0.5147 -0.0335  0.0498
11863TIP3    H157004   6.633   6.443  14.441  0.5192 -0.0085 -0.3819
11863TIP3    H257005   6.524   6.360  14.506  1.0479 -1.1664 -0.9396
11864TIP3   OH257006   1.035   5.642  15.442 -0.3938 -0.7862  0.4915
11864TIP3    H157007   1.101   5.699  15.401 -1.0622 -0.8232 -0.7086
11864TIP3    H257008   1.086   5.575  15.486  0.3914 -0.0490  0.7479
11865TIP3   OH257009   3.317   2.089   0.092 -0.7587 -0.1749 -0.0793
11865TIP3    H157010   3.387   2.024   0.086 -0.7410 -0.1661  0.0354
11865TIP3    H257011   3.351   2.166   0.046  1.2681  1.5801  3.8839
11866TIP3   OH257012   3.468   0.753   3.075  0.4777  0.0696 -0.6527
11866TIP3    H157013   3.478   0.743   2.981 -1.1742 -1.3067 -0.7075
11866TIP3    H257014   3.407   0.684   3.102 -0.3603  1.4157  1.1762
11867TIP3   OH257015   0.838   3.611   3.459 -0.0402 -0.0968  0.1888
11867TIP3    H157016   0.841   3.690   3.405 -2.0935  0.3187  0.5824
11867TIP3    H257017   0.817   3.541   3.398 -1.5730  0.2496  0.2548
11868TIP3   OH257018   5.707   4.932  13.412  0.2532 -0.3093  0.5328
11868TIP3    H157019   5.775   4.894  13.355  1.6615  0.5740  1.5557
11868TIP3    H257020   5.627   4.885  13.388  0.5046  0.7054 -2.9077
11869TIP3   OH257021   0.563   5.921  11.624  0.2548  0.0215 -0.0725
11869TIP3    H157022   0.613   5.998  11.649  0.3271 -0.7671  2.4289
11869TIP3    H257023   0.473   5.952  11.614  0.0911  0.3018  1.9351
11870TIP3   OH257024   1.685   2.413   4.144 -0.3605  0.3901  0.4642
11870TIP3    H157025   1.758   2.353   4.132  0.2130  1.1543  0.0290
11870TIP3    H257026   1.613   2.358   4.172 -0.5871 -0.8843 -2.3129
11871TIP3   OH257027   1.443   3.549   3.933 -0.2207  0.0153  0.1591
11871TIP3    H157028   1.370   3.487   3.940 -0.8667  0.5802 -1.2016
11871TIP3    H257029   1.401   3.635   3.937  0.3957  0.3502 -0.4319
11872TIP3   OH257030   6.179   3.984  15.139 -0.5187 -0.2321  0.3841
11872TIP3    H157031   6.098   4.020  15.173 -0.4472  1.3945 -1.0489
11872TIP3    H257032   6.224   3.949  15.216 -1.4038  1.1592  1.5805
11873TIP3   OH257033   1.188   4.516  16.426  0.1258  0.3848  0.0973
11873TIP3    H157034   1.252   4.492  16.493 -1.4184  0.2142  1.5928
11873TIP3    H257035   1.113   4.549  16.476 -0.8690  0.7848 -1.5919
11874TIP3   OH257036   1.607   4.915   5.246 -0.0254 -0.2909 -0.7058
11874TIP3    H157037   1.563   4.858   5.309  0.6706  1.0542  1.1110
11874TIP3    H257038   1.699   4.912   5.272 -0.0801  2.2555  0.0207
11875TIP3   OH257039   5.242   4.261   6.471  0.3473 -0.2665  0.3648
11875TIP3    H157040   5.169   4.287   6.527  1.2097  1.4763  0.7723
11875TIP3    H257041   5.243   4.326   6.401 -0.2095 -1.9474 -1.2675
11876TIP3   OH257042   0.727   3.981   3.755 -0.5977 -0.8273  0.3138
11876TIP3    H157043   0.806   4.027   3.728 -1.6202  1.4290  0.8957
11876TIP3    H257044   0.736   3.893   3.719  1.8490 -0.4371 -0.1713
11877TIP3   OH257045   2.883   5.167  16.576  0.6259 -0.0329  0.5526
11877TIP3    H157046   2.927   5.084  16.592  0.0539 -0.4212  0.1329
11877TIP3    H257047   2.790   5.146  16.577  0.4941  0.4791 -0.2527
11878TIP3   OH257048   4.346   5.504   0.027  0.1447 -0.5122  0.3205
11878TIP3    H157049   4.373   5.412   0.032  1.3505 -0.1578  0.6330
11878TIP3    H257050   4.367   5.531  -0.062  1.9951  0.0887  0.8988
11879TIP3   OH257051   3.086   0.763   2.263 -0.2129  0.0225 -0.1542
11879TIP3    H157052   3.051   0.849   2.238 -0.3437 -0.2547 -0.9738
11879TIP3    H257053   3.085   0.713   2.181 -3.2086 -1.8522  0.8628
11880TIP3   OH257054   6.006   3.882   5.631  0.2170  0.4759 -0.1071
11880TIP3    H157055   6.076   3.940   5.599  2.4563 -0.2337  3.0297
11880TIP3    H257056   5.972   3.927   5.708 -1.6822 -0.0139 -0.6307
11881TIP3   OH257057   4.004   0.502   2.949 -0.0434  0.1591  1.0147
11881TIP3    H157058   3.986   0.437   3.017  0.4604  0.9290  1.9038
11881TIP3    H257059   3.975   0.585   2.987  2.3136  0.9647  1.2204
11882TIP3   OH257060   2.038   6.099  13.194 -0.4257 -0.3969  0.1837
11882TIP3    H157061   2.084   6.158  13.134 -0.5372 -1.6037 -1.1574
11882TIP3    H257062   2.108   6.057  13.244 -0.1176 -1.2556 -0.9236
11883TIP3   OH257063   1.612   2.217  11.307  0.3608 -0.0462  0.6954
11883TIP3    H157064   1.647   2.307  11.310  0.0835  0.1105 -0.3396
11883TIP3    H257065   1.580   2.207  11.218 -1.3567 -0.5214  1.3168
11884TIP3   OH257066   4.244   5.363   0.664  0.2987 -1.2187 -0.0862
11884TIP3    H157067   4.257   5.270   0.686  0.2479 -2.1284 -3.3635
11884TIP3    H257068   4.247   5.365   0.568 -0.8102  2.0421 -0.1556
11885TIP3   OH257069   3.732   6.290   5.335 -0.3478  0.0437  0.2253
11885TIP3    H157070   3.776   6.207   5.352 -1.3436 -0.6582 -0.5626
11885TIP3    H257071   3.695   6.315   5.419 -1.4660 -1.1671  0.1186
11886TIP3   OH257072   5.266   6.017   2.372  0.1892 -0.3440  0.6062
11886TIP3    H157073   5.322   5.979   2.304 -1.5791  1.1168 -1.8098
11886TIP3    H257074   5.178   5.983   2.353 -0.6082  1.2515  1.2457
11887TIP3   OH257075   3.010   2.050  10.524  0.2237 -0.1148 -0.8570
11887TIP3    H157076   2.947   2.040  10.452 -0.8126 -2.1962  0.2581
11887TIP3    H257077   2.958   2.080  10.598  1.0069  0.5230 -0.5531
11888TIP3   OH257078   4.522   4.114   5.069 -0.0986  0.5898  0.5244
11888TIP3    H157079   4.550   4.030   5.106 -1.0372  0.2969  0.6156
11888TIP3    H257080   4.493   4.093   4.980  2.2855  1.3190 -0.4965
11889TIP3   OH257081   0.303   3.872  13.621 -0.0914 -0.3550 -0.1766
11889TIP3    H157082   0.221   3.845  13.662 -0.0164 -0.4643 -0.0981
11889TIP3    H257083   0.319   3.960  13.655 -0.2651 -0.2650 -0.3264
11890TIP3   OH257084   4.974   4.490  16.956  0.5386 -0.3348  0.0398
11890TIP3    H157085   4.927   4.423  17.004  0.1029 -0.0903 -0.0384
11890TIP3    H257086   4.976   4.566  17.015  3.1562 -1.1420  1.1266
11891TIP3   OH257087   3.772   5.444  14.435 -0.3962 -0.3664 -0.5688
11891TIP3    H157088   3.735   5.520  14.480 -0.0908 -0.6087  0.0911
11891TIP3    H257089   3.772   5.469  14.342  0.2746  0.6899 -0.2989
11892TIP3   OH257090   1.974   6.008  11.645  0.2223  0.5695 -0.2258
11892TIP3    H157091   2.032   6.021  11.570  2.2416  2.2968  1.5188
11892TIP3    H257092   1.921   6.088  11.648 -0.2117  0.2779 -0.0956
11893TIP3   OH257093   4.098   4.981  17.139 -0.4095  0.1583  0.6236
11893TIP3    H157094   4.111   5.009  17.049 -1.8288 -0.9634  0.0335
11893TIP3    H257095   4.186   4.982  17.177  0.3326 -0.1144 -0.9899
11894TIP3   OH257096   1.077   4.105  12.215 -0.6827 -0.5763 -0.1920
11894TIP3    H157097   1.069   4.185  12.266 -0.5203  0.0383 -1.1092
11894TIP3    H257098   1.065   4.133  12.124 -3.8261 -2.0525 -0.3476
11895TIP3   OH257099   2.604   5.869  14.003  0.4297 -0.0661 -0.0192
11895TIP3    H157100   2.650   5.941  13.960 -0.8816  1.2257  0.6577
11895TIP3    H257101   2.543   5.836  13.938  0.9860 -0.5559 -0.3080
11896TIP3   OH257102   3.110   6.347  14.642 -0.0119  0.4343 -0.5163
11896TIP3    H157103   3.110   6.254  14.661  0.0369  0.2031 -1.5793
11896TIP3    H257104   3.202   6.372  14.644 -0.1306  0.8213  1.3597
11897TIP3   OH257105   0.463   2.889  17.175 -0.4447 -0.3130  0.6166
11897TIP3    H157106   0.508   2.813  17.139  1.7689  0.7755  0.9234
11897TIP3    H257107   0.419   2.856  17.254  1.6166 -1.0411  1.5250
11898TIP3   OH257108   1.273   6.402  12.078  0.3894 -0.7657  0.3293
11898TIP3    H157109   1.283   6.487  12.035 -0.5544 -0.9386 -0.2696
11898TIP3    H257110   1.348   6.351  12.047  2.2113  0.4907  2.3973
11899TIP3   OH257111   0.455   0.824   1.430 -0.4200  0.2662 -0.8342
11899TIP3    H157112   0.372   0.788   1.396 -0.8582 -1.1176  1.4842
11899TIP3    H257113   0.428   0.894   1.489 -0.3060 -2.2727  2.4905
11900TIP3   OH257114   5.868   3.840  10.969  0.4329  0.5983 -0.4898
11900TIP3    H157115   5.842   3.749  10.954 -1.5368  1.2928 -1.7219
11900TIP3    H257116   5.785   3.887  10.983  1.2642  2.4254 -1.2615
11901TIP3   OH257117   4.508   3.916  15.814  0.1089  0.3063 -0.6754
11901TIP3    H157118   4.537   3.944  15.901 -0.3851 -0.9213 -0.0829
11901TIP3    H257119   4.533   3.987  15.755  0.4739  1.1421  0.4705
11902TIP3   OH257120   5.762   0.138  12.333 -0.2136  0.2934  0.6640
11902TIP3    H157121   5.722   0.126  12.247  0.0397 -0.6419  0.6661
11902TIP3    H257122   5.728   0.222  12.363  1.9359  2.0986 -1.5385
11903TIP3   OH257123   0.018   5.661   4.259  0.1832 -0.1715  0.1420
11903TIP3    H157124   0.084   5.651   4.190  0.8980  1.9727  0.4246
11903TIP3    H257125   0.009   5.574   4.297  1.8601 -0.7992 -0.7900
11904TIP3   OH257126   2.081   2.826   1.330  0.8198  0.3006  0.0587
11904TIP3    H157127   2.164   2.780   1.340  1.3734  1.5815  2.2505
11904TIP3    H257128   2.062   2.860   1.418 -1.4118  1.0751 -0.6422
11905TIP3   OH257129   1.089   2.253   3.144 -0.0436 -0.2095 -0.1331
11905TIP3    H157130   0.994   2.256   3.138  0.0712  0.9357 -2.5854
11905TIP3    H257131   1.116   2.188   3.079  0.8730  0.1608 -0.1484
11906TIP3   OH257132   5.908   2.271   3.694 -0.5298  0.1239  0.0443
11906TIP3    H157133   5.902   2.191   3.642 -2.8692  0.5682 -0.4883
11906TIP3    H257134   5.930   2.241   3.782  0.1092 -0.9580 -0.4673
11907TIP3   OH257135   5.700   3.452  13.273  0.4534 -0.4945 -1.1778
11907TIP3    H157136   5.792   3.479  13.280 -0.3345  2.0487  1.7280
11907TIP3    H257137   5.665   3.504  13.201  0.2800  2.5054  0.8758
11908TIP3   OH257138   5.953   1.650   2.128 -0.4261 -0.3705  0.1317
11908TIP3    H157139   5.954   1.672   2.221 -2.8482  0.4627  0.0351
11908TIP3    H257140   6.017   1.710   2.089 -1.2676  1.1354  0.9527
11909TIP3   OH257141   6.239   1.348  14.799  0.0458 -0.2007 -0.0500
11909TIP3    H157142   6.198   1.363  14.714 -0.9105 -1.3083  0.1999
11909TIP3    H257143   6.209   1.262  14.826  0.9508 -0.1906  1.0733
11910TIP3   OH257144   5.124   2.401  14.723  0.3994 -0.3610  0.5630
11910TIP3    H157145   5.201   2.437  14.680  1.2054 -1.3866  1.0949
11910TIP3    H257146   5.101   2.466  14.789  0.2852  0.3418 -0.1553
11911TIP3   OH257147   2.226   4.888   1.818 -0.1562  0.1149  0.7761
11911TIP3    H157148   2.174   4.923   1.746 -0.1005  1.1854  1.2357
11911TIP3    H257149   2.165   4.885   1.892 -0.7466 -2.7186  0.3026
11912TIP3   OH257150   5.400   6.774  13.959 -0.7391  0.4239 -0.3283
11912TIP3    H157151   5.398   6.814  13.873 -1.1530  1.0395 -0.0406
11912TIP3    H257152   5.448   6.837  14.014  0.6668 -0.5412 -0.3780
11913TIP3   OH257153   6.140   2.249   4.998 -0.4605  0.1096 -0.7439
11913TIP3    H157154   6.206   2.182   5.008  1.5661  2.0800 -0.0441
11913TIP3    H257155   6.165   2.296   4.918 -1.6769  0.2260 -1.0805
11914TIP3   OH257156   5.474   3.187   0.778  0.2506 -0.0221  0.0597
11914TIP3    H157157   5.510   3.222   0.860  2.0855 -1.2457 -0.1544
11914TIP3    H257158   5.383   3.165   0.799  1.5163 -3.5643  2.9816
11915TIP3   OH257159   6.309   4.067   4.624  0.3681 -0.3191  0.1244
11915TIP3    H157160   6.396   4.031   4.640  0.8611  1.2869  1.3824
11915TIP3    H257161   6.311   4.153   4.666 -1.2332  0.5289 -1.3793
11916TIP3   OH257162   2.632   3.288   0.427 -0.2395  0.6525 -0.2024
11916TIP3    H157163   2.651   3.218   0.489  0.4544  1.3106  0.3608
11916TIP3    H257164   2.686   3.362   0.457 -1.6176  1.7197 -0.2237
11917TIP3   OH257165   0.173   1.918   4.327  0.3981  0.1219  0.2910
11917TIP3    H157166   0.253   1.970   4.313 -1.4179  2.8546 -0.6939
11917TIP3    H257167   0.142   1.945   4.414 -0.2053  0.1727  0.0595
11918TIP3   OH257168   2.606   6.150   1.341 -0.4583  1.0226  0.2546
11918TIP3    H157169   2.587   6.217   1.274 -0.0274  0.3036 -0.6131
11918TIP3    H257170   2.683   6.183   1.386  0.1355  0.8234 -0.5935
11919TIP3   OH257171   0.120   5.797   0.219  0.5389  0.3947 -0.6620
11919TIP3    H157172   0.088   5.887   0.226 -0.5749 -0.1017  1.8792
11919TIP3    H257173   0.069   5.760   0.147 -1.4957  0.9070  0.4276
11920TIP3   OH257174   0.274   5.668   5.686 -0.0547 -0.4549 -0.1145
11920TIP3    H157175   0.265   5.582   5.645 -0.4522 -1.5810  2.2166
11920TIP3    H257176   0.367   5.686   5.682 -0.1741  0.0585 -2.5116
11921TIP3   OH257177   5.952   0.683   3.869 -0.2038 -0.1606 -0.3320
11921TIP3    H157178   5.918   0.593   3.876  1.1546 -1.0284 -3.1873
11921TIP3    H257179   6.045   0.674   3.889  0.4712  0.0319 -2.9934
11922TIP3   OH257180   5.305   0.175  11.490 -0.0125 -0.9344 -0.5543
11922TIP3    H157181   5.277   0.200  11.402  1.6684 -1.1647 -1.2004
11922TIP3    H257182   5.341   0.087  11.480  1.5614 -0.4049  0.0213
11923TIP3   OH257183   3.994   4.834   2.894  0.0789  0.1441  0.2758
11923TIP3    H157184   3.987   4.785   2.976  0.4490 -0.7059 -0.1894
11923TIP3    H257185   4.063   4.789   2.845 -1.0094 -0.1550 -1.0437
11924TIP3   OH257186   2.877   4.322  14.438 -0.3866  0.3575  0.1404
11924TIP3    H157187   2.827   4.286  14.364  0.9188 -1.3479  0.0438
11924TIP3    H257188   2.822   4.305  14.515 -0.2903 -0.8339 -0.0487
11925TIP3   OH257189   1.506   2.463  14.900 -0.3289 -0.0663 -0.5753
11925TIP3    H157190   1.448   2.538  14.888 -1.2595 -1.0839 -3.3312
11925TIP3    H257191   1.447   2.388  14.908  0.5812 -0.5891  2.0513
11926TIP3   OH257192   5.521   1.090  12.374  0.0819 -0.0591  0.0465
11926TIP3    H157193   5.548   1.177  12.406 -1.2255  0.7678 -1.0039
11926TIP3    H257194   5.598   1.035  12.387  0.7867  1.1312  1.1930
11927TIP3   OH257195   5.696   2.707   0.770 -0.2065 -0.1631  0.0228
11927TIP3    H157196   5.731   2.686   0.857 -1.3155  0.3052  0.6135
11927TIP3    H257197   5.730   2.638   0.713 -1.0126 -1.6242  1.2229
11928TIP3   OH257198   0.765   2.842   1.930 -0.2732  0.1260 -0.3546
11928TIP3    H157199   0.706   2.801   1.994  0.0340 -0.6445 -0.5652
11928TIP3    H257200   0.821   2.899   1.983 -0.5381  0.0928 -0.0341
11929TIP3   OH257201   3.472   1.301   2.371  0.1600 -0.1573  0.3337
11929TIP3    H157202   3.427   1.267   2.448  2.3271  0.4075  1.9507
11929TIP3    H257203   3.481   1.226   2.313 -0.4015 -0.9044  1.1869
11930TIP3   OH257204   3.514   5.349   0.316  0.5531 -0.0713  0.2828
11930TIP3    H157205   3.509   5.439   0.350  0.1672  0.2097 -0.4958
11930TIP3    H257206   3.573   5.355   0.242  1.6015 -0.7384  1.0457
11931TIP3   OH257207   2.228   5.640  15.001  0.3381 -0.5035 -0.0740
11931TIP3    H157208   2.180   5.583  15.061  2.2864 -0.4984  1.5878
11931TIP3    H257209   2.278   5.580  14.945  1.9106 -0.4874  1.2660
11932TIP3   OH257210   1.994   5.548  13.902  0.0697  0.1538 -0.5672
11932TIP3    H157211   2.053   5.473  13.901 -0.0699  0.0313  0.0349
11932TIP3    H257212   1.954   5.549  13.815  0.1773 -0.3855 -0.6256
11933TIP3   OH257213   1.161   3.113  12.072  1.0047  0.2486 -0.0688
11933TIP3    H157214   1.182   3.197  12.033  0.7576  1.0345  1.4232
11933TIP3    H257215   1.094   3.075  12.014  2.2685  0.3156 -1.6463
11934TIP3   OH257216   4.600   1.698   2.340  0.2381 -0.0973  0.4559
11934TIP3    H157217   4.684   1.699   2.294 -0.4050  0.2541 -0.7608
11934TIP3    H257218   4.579   1.605   2.349  0.3727 -0.1702  0.0454
11935TIP3   OH257219   0.076   1.354   2.771  0.2973  0.7126 -0.2851
11935TIP3    H157220   0.037   1.371   2.857  0.0158 -0.5949 -0.1313
11935TIP3    H257221   0.070   1.438   2.725 -0.7616  1.0890  0.4954
11936TIP3   OH257222   3.626   2.893  15.429 -0.2412 -0.3572 -0.3007
11936TIP3    H157223   3.538   2.893  15.392 -0.1541 -0.3909 -0.5155
11936TIP3    H257224   3.647   2.985  15.442 -0.9571 -0.3948  1.3561
11937TIP3   OH257225   1.225   1.940  12.070 -0.3254 -0.6745 -0.3120
11937TIP3    H157226   1.138   1.949  12.109 -0.6639  0.1831 -1.2241
11937TIP3    H257227   1.226   2.004  11.999  1.4932  0.2271  0.4585
11938TIP3   OH257228   5.262   0.664   6.158  0.7508  0.1921  0.3488
11938TIP3    H157229   5.260   0.599   6.227 -0.2821 -0.2660 -0.0875
11938TIP3    H257230   5.279   0.614   6.078  2.4284  0.7681  0.3056
11939TIP3   OH257231   1.069   1.213   4.033  0.1709 -0.5838  0.7058
11939TIP3    H157232   1.146   1.157   4.042 -0.2175 -1.2108  0.2645
11939TIP3    H257233   1.085   1.263   3.953  0.9847  0.7162  1.6457
11940TIP3   OH257234   1.368   1.810   6.372  0.8062  0.1135 -0.2113
11940TIP3    H157235   1.357   1.853   6.287 -2.0242 -0.9061 -0.4717
11940TIP3    H257236   1.307   1.857   6.430 -1.4711 -2.5578 -0.2142
11941TIP3   OH257237   1.068   1.575  16.691  0.2375  0.0598  0.5226
11941TIP3    H157238   1.011   1.625  16.749  0.0477  1.7673 -1.0642
11941TIP3    H257239   1.151   1.568  16.739 -0.1804  0.6658  1.3549
11942TIP3   OH257240   4.824   6.130  15.186 -0.3991  0.1151 -0.1374
11942TIP3    H157241   4.745   6.076  15.190  0.3210 -0.9285  2.7953
11942TIP3    H257242   4.895   6.068  15.173  0.1534  0.7455 -0.2039
11943TIP3   OH257243   4.308   5.743  15.172 -0.0324 -0.2581  0.5420
11943TIP3    H157244   4.326   5.751  15.265  0.3916  0.0302  0.4388
11943TIP3    H257245   4.226   5.789  15.159  1.8531  3.3330  0.1281
11944TIP3   OH257246   0.471   4.664   3.101  0.5674  0.4498 -0.5327
11944TIP3    H157247   0.457   4.750   3.142 -2.8332 -0.4653  0.5985
11944TIP3    H257248   0.414   4.665   3.024  2.1504 -0.1047 -1.7663
11945TIP3   OH257249   5.780   1.464  12.171  0.1513  0.3377 -0.6435
11945TIP3    H157250   5.761   1.371  12.156  0.6953  0.1124  0.0142
11945TIP3    H257251   5.728   1.510  12.105  0.1017 -0.4487 -1.1715
11946TIP3   OH257252   0.282   0.232  13.025 -0.2543 -0.0961  0.0366
11946TIP3    H157253   0.198   0.272  13.006  0.3679  1.6270  0.7509
11946TIP3    H257254   0.263   0.164  13.090 -1.2677 -0.7389 -0.8965
11947TIP3   OH257255   2.137   1.809  14.730  0.4847 -0.4311 -0.2606
11947TIP3    H157256   2.153   1.738  14.793  0.6995 -1.3001 -1.2696
11947TIP3    H257257   2.205   1.797  14.664  0.8489  1.0507 -0.1783
11948TIP3   OH257258   5.889   6.305   3.306  0.2286  0.1632 -0.0166
11948TIP3    H157259   5.856   6.234   3.360 -0.9392  0.0691 -0.8244
11948TIP3    H257260   5.881   6.273   3.216  0.6848  0.9081 -0.3364
11949TIP3   OH257261   6.691   4.361   2.514 -0.7035 -0.0516  0.1218
11949TIP3    H157262   6.674   4.267   2.511 -0.7177 -0.0366 -0.2053
11949TIP3    H257263   6.734   4.382   2.431  0.5480 -0.0146  0.7557
11950TIP3   OH257264   5.624   4.586   5.310  0.4043  0.3015 -0.2274
11950TIP3    H157265   5.552   4.630   5.354  0.2764  1.1915 -1.2862
11950TIP3    H257266   5.693   4.579   5.376 -0.2515  0.4284  0.4753
11951TIP3   OH257267   3.429   0.744   0.638 -0.2075  0.3531  0.0621
11951TIP3    H157268   3.470   0.745   0.725 -1.7360  0.5543  0.8202
11951TIP3    H257269   3.491   0.789   0.581  1.4753 -1.0410  0.7259
11952TIP3   OH257270   4.475   4.053  10.922  0.2553 -0.0029  0.2340
11952TIP3    H157271   4.473   3.960  10.946  0.1476 -0.1054 -0.1484
11952TIP3    H257272   4.385   4.072  10.894  0.6384 -0.2124 -1.2177
11953TIP3   OH257273   3.191   0.013  13.423  0.0295  0.3814 -0.6388
11953TIP3    H157274   3.121   0.077  13.427 -0.4699 -0.1948  0.8245
11953TIP3    H257275   3.267   0.057  13.462 -0.1458  0.2824 -0.1834
11954TIP3   OH257276   4.633   6.411   5.438 -0.5553  0.3982 -0.3888
11954TIP3    H157277   4.679   6.492   5.416 -2.2358  1.6402  0.5030
11954TIP3    H257278   4.576   6.435   5.511 -0.4301 -1.8243  0.5066
11955TIP3   OH257279   2.903   0.564   1.659 -0.0987 -0.1864 -0.2832
11955TIP3    H157280   2.955   0.604   1.728 -0.4144 -1.2200  0.5874
11955TIP3    H257281   2.848   0.635   1.626 -0.2328  0.2393  0.8112
11956TIP3   OH257282   0.533   5.211   1.277  0.1107 -0.0362  0.4308
11956TIP3    H157283   0.603   5.162   1.319  0.0836 -1.3403 -0.9350
11956TIP3    H257284   0.457   5.152   1.281 -0.0743  0.0999 -0.7631
11957TIP3   OH257285   3.504   1.506  12.645  0.2198 -0.3853 -0.0330
11957TIP3    H157286   3.538   1.592  12.620 -0.1436 -0.4699 -0.8386
11957TIP3    H257287   3.553   1.484  12.725 -1.5760  1.7703  1.8122
11958TIP3   OH257288   0.032   1.500  17.004 -0.1860 -0.5615  0.0673
11958TIP3    H157289   0.024   1.562  16.931 -1.1946  0.0329  0.6525
11958TIP3    H257290  -0.035   1.434  16.986  1.7798 -2.3164 -1.2800
11959TIP3   OH257291   4.603   3.238   2.502  0.1032 -0.3876 -0.1320
11959TIP3    H157292   4.632   3.319   2.543  1.0690 -1.6088  1.7531
11959TIP3    H257293   4.684   3.195   2.473 -0.2767 -1.2462  0.0319
11960TIP3   OH257294   0.888   1.146   5.391  0.0519  0.3088 -0.5889
11960TIP3    H157295   0.972   1.146   5.344 -1.0943  1.1326 -2.8046
11960TIP3    H257296   0.902   1.204   5.465  1.9225 -0.9376  0.1135
11961TIP3   OH257297   5.564   2.850   2.434  0.2321  0.1023 -0.5047
11961TIP3    H157298   5.527   2.819   2.517 -0.4434  0.8369 -0.5231
11961TIP3    H257299   5.587   2.769   2.387  1.8810 -0.3124  0.9275
11962TIP3   OH257300   2.001   0.042  16.618 -0.1858  0.4363 -0.8032
11962TIP3    H157301   2.026   0.098  16.692  0.1910 -0.0240 -0.5769
11962TIP3    H257302   2.036  -0.044  16.640 -0.4944  0.1800 -1.2955
11963TIP3   OH257303   0.690   3.913  13.443  0.6856 -0.0794 -0.7488
11963TIP3    H157304   0.621   3.846  13.444  1.7144 -1.2029 -1.6843
11963TIP3    H257305   0.666   3.970  13.370  0.1871  0.1634 -0.4008
11964TIP3   OH257306   4.282   6.355  14.722  0.5072 -0.0236 -0.5843
11964TIP3    H157307   4.371   6.377  14.749  0.2874 -0.4784  0.5804
11964TIP3    H257308   4.278   6.379  14.630  1.2264  1.9000 -0.1646
11965TIP3   OH257309   4.964   4.915  11.725 -0.5224  0.3488 -0.1167
11965TIP3    H157310   5.010   4.835  11.700 -0.4777 -0.4456  2.1807
11965TIP3    H257311   5.032   4.981  11.733 -0.1259 -0.1347  0.6676
11966TIP3   OH257312   1.822   3.048   4.038 -0.0374  0.5594 -0.1543
11966TIP3    H157313   1.910   3.011   4.032  0.3747  1.2755  1.1270
11966TIP3    H257314   1.770   2.996   3.977  1.2278 -0.0004 -0.7906
11967TIP3   OH257315   4.385   1.170   2.546 -0.4363  0.3653 -0.3491
11967TIP3    H157316   4.301   1.137   2.514 -0.1607 -0.6346 -0.0985
11967TIP3    H257317   4.444   1.161   2.471 -0.8331  2.3186 -0.9476
11968TIP3   OH257318   4.902   2.243  15.545 -0.3171 -0.9431 -0.0116
11968TIP3    H157319   4.911   2.311  15.479  0.9263 -0.4586  0.6351
11968TIP3    H257320   4.862   2.169  15.498 -0.8219 -0.1067 -0.9310
11969TIP3   OH257321   0.551   1.758  15.813 -0.0504 -0.9532 -0.5048
11969TIP3    H157322   0.600   1.738  15.893  0.3575  0.3337 -0.4060
11969TIP3    H257323   0.606   1.724  15.743  0.3942 -0.6242 -0.3218
11970TIP3   OH257324   4.056   1.996  17.045 -0.3972  0.4151  0.3680
11970TIP3    H157325   4.071   2.003  16.950 -0.6462  0.0899  0.3035
11970TIP3    H257326   4.128   1.940  17.076 -0.0322  0.9204  0.4512
11971TIP3   OH257327   2.417   5.500  13.151  0.4302  0.3104  0.2608
11971TIP3    H157328   2.469   5.449  13.213 -0.9496  0.7303  1.8004
11971TIP3    H257329   2.333   5.455  13.148  0.0182  1.1036 -0.2599
11972TIP3   OH257330   3.781   2.754   5.766 -0.0133 -0.0712 -0.4216
11972TIP3    H157331   3.793   2.659   5.759 -0.1838 -0.0195 -1.4994
11972TIP3    H257332   3.699   2.764   5.814  0.3108 -0.4590  0.2306
11973TIP3   OH257333   6.367   0.626   1.992  0.3137 -0.6880  0.1081
11973TIP3    H157334   6.314   0.688   2.043 -0.3628 -0.8420 -0.3839
11973TIP3    H257335   6.312   0.548   1.987  0.6577 -0.9041 -0.2877
11974TIP3   OH257336   0.876   2.352  14.325  0.0957  0.1609  0.2999
11974TIP3    H157337   0.965   2.317  14.331  0.1205  0.3699  1.2466
11974TIP3    H257338   0.882   2.420  14.258  0.4323 -0.4424 -0.2999
11975TIP3   OH257339   3.961   0.191   4.076  0.1057  0.7095 -0.3172
11975TIP3    H157340   3.963   0.207   3.982 -0.3023  2.4666 -0.0619
11975TIP3    H257341   3.870   0.206   4.102  0.2331  0.3593  0.3639
11976TIP3   OH257342   5.644   4.132  12.419  0.2854  0.3911 -0.0434
11976TIP3    H157343   5.713   4.140  12.484  1.2320 -1.8891 -0.6478
11976TIP3    H257344   5.580   4.073  12.459 -0.2510  0.7688 -0.3234
11977TIP3   OH257345   0.658   1.121   5.123  0.4960  0.2372 -0.5030
11977TIP3    H157346   0.609   1.069   5.060 -0.5390  1.6517 -0.8974
11977TIP3    H257347   0.659   1.067   5.203 -2.1679  0.3568 -0.2999
11978TIP3   OH257348   4.299   0.340   1.922  0.2478  0.1105 -0.4832
11978TIP3    H157349   4.310   0.420   1.872  0.4222 -0.2184 -0.9771
11978TIP3    H257350   4.279   0.273   1.857  0.0638 -0.2405 -0.0723
11979TIP3   OH257351   5.755   3.692  15.087  0.6624  0.2480 -0.1067
11979TIP3    H157352   5.832   3.685  15.144  0.6128  0.1460 -0.0525
11979TIP3    H257353   5.736   3.602  15.061  1.3779  0.4016 -1.2083
11980TIP3   OH257354   4.620   1.427  15.493 -0.0020 -0.1063  0.2048
11980TIP3    H157355   4.677   1.362  15.534 -0.1510 -0.0018  0.5825
11980TIP3    H257356   4.674   1.466  15.424  2.1917  3.4089  3.5339
11981TIP3   OH257357   5.798   0.962  12.977 -0.0659  0.5484 -0.2285
11981TIP3    H157358   5.869   1.025  12.991 -0.2751  0.6403  0.4322
11981TIP3    H257359   5.730   0.988  13.039  0.2379 -0.9320  0.7684
11982TIP3   OH257360   0.402   3.047  14.481 -0.2696 -0.4981  0.0956
11982TIP3    H157361   0.484   3.008  14.452 -0.6400 -2.1201  1.1065
11982TIP3    H257362   0.396   3.024  14.574 -2.4990 -1.5853 -0.2535
11983TIP3   OH257363   0.682   0.571   4.972  0.5553 -0.1279 -0.0647
11983TIP3    H157364   0.729   0.495   4.938 -0.6879  0.3299 -3.1637
11983TIP3    H257365   0.751   0.636   4.989  1.4858 -1.3815  1.1676
11984TIP3   OH257366   1.775   0.010   3.595 -0.3421  0.4916 -0.4559
11984TIP3    H157367   1.691   0.045   3.622  0.1824  1.5481 -0.1678
11984TIP3    H257368   1.840   0.072   3.628  0.5148  0.0454 -1.2326
11985TIP3   OH257369   3.257   0.180  15.144  0.5301 -0.0631 -0.5241
11985TIP3    H157370   3.259   0.197  15.049  0.2857  0.5620 -0.4233
11985TIP3    H257371   3.166   0.193  15.169  0.4878 -0.7722 -0.2910
11986TIP3   OH257372   5.608   6.566  13.144  0.2932  0.0501  0.2170
11986TIP3    H157373   5.631   6.476  13.122 -1.3001 -0.1815 -0.5967
11986TIP3    H257374   5.677   6.619  13.104  1.3638 -0.8022  0.8893
11987TIP3   OH257375   6.157   0.130   1.642 -0.2209 -0.0025 -0.1466
11987TIP3    H157376   6.174   0.177   1.724  0.2430 -1.0677  0.3808
11987TIP3    H257377   6.087   0.180   1.600  0.4322  1.3071  0.2739
11988TIP3   OH257378   0.600   2.721   5.687 -0.5868 -0.0149  0.4315
11988TIP3    H157379   0.655   2.795   5.710  0.4337 -0.4073 -0.6824
11988TIP3    H257380   0.622   2.654   5.751 -0.6345  0.2189  0.6973
11989TIP3   OH257381   6.652   3.198  12.652 -0.8393  0.0438  0.0742
11989TIP3    H157382   6.586   3.133  12.626  0.2430 -1.0155 -0.1516
11989TIP3    H257383   6.666   3.251  12.573 -1.4437  0.3068  0.1380
11990TIP3   OH257384   3.586   3.058  14.535 -0.5037  0.1457  0.4947
11990TIP3    H157385   3.574   2.989  14.600  0.4934 -0.5224 -0.0068
11990TIP3    H257386   3.545   3.024  14.456 -1.9188  1.0519  0.7935
11991TIP3   OH257387   3.626   1.342  14.616  0.0363  0.3924 -0.6063
11991TIP3    H157388   3.666   1.375  14.697  0.2982 -1.2146 -0.0378
11991TIP3    H257389   3.539   1.312  14.644  0.1359 -0.1901 -0.9134
11992TIP3   OH257390   0.126   0.614  15.877  0.1458 -0.4448  0.0932
11992TIP3    H157391   0.070   0.656  15.943 -0.4011 -2.6792  1.1402
11992TIP3    H257392   0.175   0.687  15.838 -0.4360  1.1131  2.0784
11993TIP3   OH257393   0.791   0.331  15.154 -0.2306  0.4497 -0.2161
11993TIP3    H157394   0.703   0.362  15.173 -0.8790 -0.8700 -0.9804
11993TIP3    H257395   0.780   0.268  15.083  1.0516 -1.4824  1.2064
11994TIP3   OH257396   1.280   1.308   5.213 -0.1266  0.6125 -0.3153
11994TIP3    H157397   1.335   1.382   5.189  0.4382  0.5841  0.8295
11994TIP3    H257398   1.338   1.250   5.263 -0.8302 -0.1119 -0.3096
11995TIP3   OH257399   3.586   0.314  13.748  0.0498  0.1013  0.2124
11995TIP3    H157400   3.668   0.364  13.745  1.7534 -2.2354  2.4900
11995TIP3    H257401   3.557   0.321  13.839  0.0801 -2.4672  0.5046
11996TIP3   OH257402   6.445   1.416   5.721 -0.5249 -0.3473 -0.2131
11996TIP3    H157403   6.469   1.508   5.731 -0.2500 -0.3535 -0.7809
11996TIP3    H257404   6.522   1.375   5.681 -0.7526 -0.7657 -0.2291
11997TIP3   OH257405   2.673   3.063   0.563  0.2111  0.2977  0.3286
11997TIP3    H157406   2.759   3.069   0.604  0.4091  1.5001 -0.2384
11997TIP3    H257407   2.667   2.973   0.532  1.1036  0.1051  0.6970
11998TIP3   OH257408   0.847   3.269  13.059 -0.3289 -0.1023 -0.0892
11998TIP3    H157409   0.761   3.245  13.092  0.4222  0.4774  2.4922
11998TIP3    H257410   0.851   3.364  13.069  1.4432 -0.3216  2.2849
11999TIP3   OH257411   4.798   1.553   1.412  0.0685  0.1162 -0.6349
11999TIP3    H157412   4.806   1.543   1.317 -0.0767 -0.6764 -0.5700
11999TIP3    H257413   4.887   1.574   1.441  0.3011 -0.5762 -0.8390
12000TIP3   OH257414   4.820   0.815  17.085  0.1415  0.7045 -0.7074
12000TIP3    H157415   4.820   0.755  17.011  0.2359  2.9914 -2.7118
12000TIP3    H257416   4.744   0.872  17.069  0.2126  1.3126  0.9256
12001TIP3   OH257417   2.136   1.236  16.954 -0.1430  0.0051 -0.3363
12001TIP3    H157418   2.126   1.331  16.954  0.6633  0.1190  0.9909
12001TIP3    H257419   2.212   1.220  17.010  0.4562 -1.3691 -1.4658
12002TIP3   OH257420   1.057   5.397  15.789 -0.2650  0.0843  0.0199
12002TIP3    H157421   1.148   5.391  15.818  0.0140 -1.4627 -1.0939
12002TIP3    H257422   1.013   5.324  15.832 -1.0990  1.0561  0.8685
12003TIP3   OH257423   6.560   5.519  11.593 -0.5039 -0.3536  0.2630
12003TIP3    H157424   6.565   5.560  11.507  0.0911 -0.8498  0.0524
12003TIP3    H257425   6.476   5.549  11.630  0.3040  1.7522  0.4986
12004TIP3   OH257426   3.590   0.499  12.681  0.3194  0.1645  0.1507
12004TIP3    H157427   3.649   0.572  12.699  1.4090 -0.3197 -1.2521
12004TIP3    H257428   3.615   0.431  12.743  1.1809  0.0164 -0.3373
12005TIP3   OH257429   6.467   5.951  13.417 -0.1539  0.0700  0.3610
12005TIP3    H157430   6.470   5.916  13.328 -3.8718  1.5169 -0.5136
12005TIP3    H257431   6.489   5.876  13.473 -2.3781 -2.2669 -1.6332
12006TIP3   OH257432   4.302   1.013   0.898  0.3251  0.1058  0.0901
12006TIP3    H157433   4.350   1.035   0.979 -3.0940  0.9693  2.0549
12006TIP3    H257434   4.322   0.920   0.884  2.8255  0.4877  0.5015
12007TIP3   OH257435   4.120   1.224   2.627 -0.1194  0.2008 -0.2889
12007TIP3    H157436   4.087   1.169   2.698 -1.3719  1.3289  0.0553
12007TIP3    H257437   4.210   1.244   2.650  0.3459 -1.6571 -0.4109
12008TIP3   OH257438   0.975   0.723  14.095  0.5139 -0.4902  0.1844
12008TIP3    H157439   0.937   0.665  14.029  0.9166  0.4248 -0.8804
12008TIP3    H257440   1.060   0.748  14.060  1.0533 -0.5368  1.3955
12009TIP3   OH257441   1.976   3.027  13.241 -0.2274  0.7836  0.7528
12009TIP3    H157442   2.045   3.000  13.180 -0.9552 -0.2392  0.3655
12009TIP3    H257443   2.022   3.043  13.324  0.7701  2.1542 -0.0173
12010TIP3   OH257444   1.860   4.766   5.324  0.0715 -0.6294 -0.4542
12010TIP3    H157445   1.896   4.723   5.246  2.7206 -0.6525  0.6895
12010TIP3    H257446   1.930   4.823   5.354 -1.8532  1.4073  0.4597
12011TIP3   OH257447   1.852   0.755   2.350 -0.1115 -0.2586  0.1813
12011TIP3    H157448   1.894   0.731   2.267  1.9900  0.5963  0.9263
12011TIP3    H257449   1.852   0.675   2.401 -0.8288 -0.6341 -0.3861
12012TIP3   OH257450   6.167   6.061   6.524 -0.2048  0.1011 -0.3964
12012TIP3    H157451   6.238   5.999   6.541 -1.1718 -1.6708 -2.2830
12012TIP3    H257452   6.089   6.006   6.515 -2.0177  2.0229  2.1405
12013TIP3   OH257453   2.288   4.739  12.358  0.1870 -0.1330  0.4778
12013TIP3    H157454   2.256   4.800  12.424 -0.9014 -0.3983  0.2017
12013TIP3    H257455   2.360   4.787  12.315  0.3429  0.3597  1.2687
12014TIP3   OH257456   4.658   6.231  15.945  0.1645 -0.7168 -0.0302
12014TIP3    H157457   4.733   6.178  15.971  0.4846 -1.2796 -1.8839
12014TIP3    H257458   4.667   6.312  15.994  2.4590 -0.4493 -0.7598
12015TIP3   OH257459   6.681   3.061  16.550 -0.4137 -0.7878 -0.0285
12015TIP3    H157460   6.773   3.075  16.572  0.1825 -0.8514 -2.2140
12015TIP3    H257461   6.669   2.967  16.554  0.4705 -1.0827 -2.5031
12016TIP3   OH257462   4.437   5.754  10.862  0.5163  0.0597 -0.0152
12016TIP3    H157463   4.370   5.744  10.795  0.3618  1.0736 -0.0293
12016TIP3    H257464   4.514   5.786  10.815  0.6246  0.1089  0.1900
12017TIP3   OH257465   0.963   1.565   2.406 -0.3685  0.6018  0.3450
12017TIP3    H157466   0.980   1.505   2.333 -1.3672 -1.0688  1.4122
12017TIP3    H257467   0.882   1.610   2.381  0.6422  1.9661 -0.6833
12018TIP3   OH257468   4.758   0.008   1.728  0.0418  0.1328  0.3362
12018TIP3    H157469   4.830   0.038   1.783 -0.6676 -0.2111  1.4819
12018TIP3    H257470   4.780   0.038   1.640  1.3139  0.4875  0.7684
12019TIP3   OH257471   1.847   6.598  11.768  0.3138  0.1942  0.5703
12019TIP3    H157472   1.763   6.597  11.814 -0.4496  2.9170 -0.5539
12019TIP3    H257473   1.880   6.687  11.782  2.2090 -0.3108 -0.4308
12020TIP3   OH257474   4.963   4.182   2.147  0.4320 -0.1677 -0.6290
12020TIP3    H157475   4.951   4.089   2.163 -0.0605  0.1232  0.8234
12020TIP3    H257476   5.054   4.191   2.118  0.5622 -1.0589 -0.5109
12021TIP3   OH257477   4.562   0.190   0.210  0.8181 -0.5582 -0.2788
12021TIP3    H157478   4.495   0.249   0.244  0.3262 -1.0734 -0.3480
12021TIP3    H257479   4.641   0.212   0.260  0.3715 -0.5863  0.4531
12022TIP3   OH257480   1.778   5.852  13.658 -0.3011 -0.2016  0.3506
12022TIP3    H157481   1.763   5.797  13.581 -1.7841 -0.1735  0.5888
12022TIP3    H257482   1.794   5.790  13.729 -2.1017 -0.3817  0.6466
12023TIP3   OH257483   1.828   4.373   3.055  0.2358 -0.6743 -0.0882
12023TIP3    H157484   1.913   4.396   3.018 -0.0832  2.4173  0.8125
12023TIP3    H257485   1.766   4.429   3.009 -0.8587 -0.6050  1.3863
12024TIP3   OH257486   2.733   2.393  11.421  0.2998  0.8437 -0.6024
12024TIP3    H157487   2.660   2.437  11.466  0.3791 -0.3834  0.8140
12024TIP3    H257488   2.723   2.301  11.444  2.1334  0.6033 -0.6019
12025TIP3   OH257489   3.462   6.540  11.893 -0.4713 -0.2862 -0.0410
12025TIP3    H157490   3.424   6.533  11.981 -0.3801  2.2977  0.2927
12025TIP3    H257491   3.550   6.575  11.909 -0.2286 -0.3839 -1.1325
12026TIP3   OH257492   6.143   0.328  13.233  0.4195 -0.0987 -0.5282
12026TIP3    H157493   6.074   0.312  13.168 -0.4875 -1.3264  0.6607
12026TIP3    H257494   6.129   0.260  13.299  0.4608  1.8716  1.6257
12027TIP3   OH257495   0.869   1.003   1.535 -0.1750 -0.1136  0.5505
12027TIP3    H157496   0.867   1.052   1.452  0.5253 -0.9702  0.0194
12027TIP3    H257497   0.960   1.005   1.562 -0.2842 -0.4288  0.9468
12028TIP3   OH257498   1.648   2.524  12.926  0.6150  0.5324  0.1565
12028TIP3    H157499   1.691   2.594  12.878  0.2757  0.1504 -0.7338
12028TIP3    H257500   1.611   2.566  13.003 -0.2914  1.5149 -0.7731
12029TIP3   OH257501   0.919   5.708   3.041  0.0848  0.0671 -0.4725
12029TIP3    H157502   0.930   5.796   3.006  0.0278  1.8852  3.5123
12029TIP3    H257503   0.826   5.690   3.034  0.0765  0.3765 -1.1955
12030TIP3   OH257504   5.246   4.907  12.357 -0.9762 -0.4873  0.0859
12030TIP3    H157505   5.153   4.892  12.370 -0.5525 -2.1981  1.4944
12030TIP3    H257506   5.275   4.951  12.438 -0.1751 -2.1060  0.7386
12031TIP3   OH257507   0.307   4.936  11.059 -0.7664  0.0605 -0.1951
12031TIP3    H157508   0.273   4.853  11.091 -0.8542  0.0574 -0.2962
12031TIP3    H257509   0.391   4.913  11.019 -0.3557  0.1554  0.5788
12032TIP3   OH257510   6.470   0.737  10.730 -0.6164 -0.6052 -0.3717
12032TIP3    H157511   6.563   0.756  10.721 -0.6386  0.9920  2.0718
12032TIP3    H257512   6.453   0.670  10.663  2.0224 -0.1860 -1.5771
12033TIP3   OH257513   0.959   3.644  11.285  0.3588 -0.5129  0.2381
12033TIP3    H157514   0.917   3.729  11.302  0.5109 -0.5842  1.0217
12033TIP3    H257515   0.910   3.608  11.211 -1.2567 -0.7771  1.3729
12034TIP3   OH257516   5.968   5.841  12.200  0.2997  0.4600  0.2304
12034TIP3    H157517   5.986   5.930  12.231 -1.1723  0.8610 -0.0100
12034TIP3    H257518   5.873   5.830  12.210  0.3704 -0.8676 -0.3167
12035TIP3   OH257519   5.755   1.153  11.842  0.0595  0.1287 -0.4943
12035TIP3    H157520   5.840   1.115  11.819  0.7602  0.5897  1.1874
12035TIP3    H257521   5.755   1.238  11.798  1.1228  0.7474  0.6249
12036TIP3   OH257522   2.853   4.603   5.652 -0.1133 -0.1849  0.6389
12036TIP3    H157523   2.866   4.569   5.741 -0.2320 -2.2809 -0.0783
12036TIP3    H257524   2.877   4.530   5.595  1.1992  1.5216 -1.1205
12037TIP3   OH257525   1.061   2.878   0.071 -0.1655 -0.5075 -0.1590
12037TIP3    H157526   0.965   2.873   0.068 -0.2616  0.1939  1.0756
12037TIP3    H257527   1.089   2.788   0.090 -0.6392 -0.5410  0.4079
12038TIP3   OH257528   2.087   3.041  11.959  0.2672 -0.4893  0.2353
12038TIP3    H157529   2.182   3.044  11.964  0.3175  0.3334 -0.9112
12038TIP3    H257530   2.067   2.955  11.922  0.5642 -0.6106  0.3537
12039TIP3   OH257531   5.589   1.861   6.287 -0.0617 -0.3144  0.2854
12039TIP3    H157532   5.619   1.773   6.268  1.5893  0.1208  0.7396
12039TIP3    H257533   5.531   1.851   6.363  1.4048 -0.8413  1.3779
12040TIP3   OH257534   4.904   6.429  12.520  0.3610  0.4314  0.4353
12040TIP3    H157535   4.880   6.351  12.569  0.7090 -0.1547 -0.3001
12040TIP3    H257536   4.978   6.401  12.465  0.4880  1.2717  0.1577
12041TIP3   OH257537   1.923   1.842   3.614 -0.8156 -0.6181  0.2582
12041TIP3    H157538   1.908   1.753   3.582 -0.5006 -0.9028  0.8885
12041TIP3    H257539   1.925   1.896   3.535  1.5433 -1.5080 -0.3670
12042TIP3   OH257540   5.719   6.261   1.603  0.2811 -0.3035  0.2777
12042TIP3    H157541   5.705   6.169   1.581  1.9689 -1.0017  1.7959
12042TIP3    H257542   5.768   6.259   1.686  1.5972  1.9185 -0.3383
12043TIP3   OH257543   2.954   2.958  15.232 -0.1738  0.3789 -0.2368
12043TIP3    H157544   2.986   2.934  15.146 -1.9080 -0.0734 -0.7951
12043TIP3    H257545   3.033   2.968  15.285  0.9385  0.9188 -1.9154
12044TIP3   OH257546   1.440   2.777  15.865 -0.0290 -0.2825  0.1928
12044TIP3    H157547   1.375   2.714  15.898 -0.1859  0.5207  1.4823
12044TIP3    H257548   1.494   2.799  15.941 -0.8737  2.2132  0.1807
12045TIP3   OH257549   1.186   6.652   0.074 -0.1869  0.3179  0.6929
12045TIP3    H157550   1.231   6.568   0.081  0.0875  0.4219  0.2579
12045TIP3    H257551   1.253   6.717   0.093 -0.3703  0.4435  0.9153
12046TIP3   OH257552   1.892   4.823  16.572  0.4234 -0.7909  0.1078
12046TIP3    H157553   1.958   4.830  16.641  0.6918  0.1555 -0.2303
12046TIP3    H257554   1.889   4.910  16.532 -0.4974 -1.0284 -0.3747
12047TIP3   OH257555   1.827   1.586  12.892 -0.0247 -0.0630 -0.1713
12047TIP3    H157556   1.773   1.511  12.918 -0.1180 -0.0268 -0.2581
12047TIP3    H257557   1.822   1.645  12.967 -1.8173  0.8774 -0.9742
12048TIP3   OH257558   4.937   0.224  16.650 -0.0204  0.2916  0.4958
12048TIP3    H157559   4.858   0.238  16.701 -0.7425 -2.3518  0.2500
12048TIP3    H257560   4.918   0.263  16.564  0.0097  1.9666  1.2172
12049TIP3   OH257561   3.785   1.683   3.766  0.5092  0.1795 -0.4283
12049TIP3    H157562   3.723   1.653   3.832 -0.3711  0.4221 -1.1119
12049TIP3    H257563   3.866   1.635   3.784 -0.3786 -1.4076 -0.5365
12050TIP3   OH257564   0.118   3.671  13.451  1.0062  0.4236 -0.3452
12050TIP3    H157565   0.064   3.703  13.379  1.0893  0.7247 -0.2714
12050TIP3    H257566   0.198   3.724  13.447  1.0689  0.3480 -0.1149
12051TIP3   OH257567   6.209   6.649   1.025 -0.5476  0.1767 -0.1545
12051TIP3    H157568   6.133   6.654   0.967 -1.4194 -0.0229  0.9400
12051TIP3    H257569   6.251   6.735   1.017 -0.5243  0.0818 -1.2229
12052TIP3   OH257570   6.409   4.665   3.273  0.2549 -0.0214  0.3498
12052TIP3    H157571   6.345   4.735   3.285  0.9290  0.7652 -0.4761
12052TIP3    H257572   6.358   4.590   3.242 -0.6580 -0.3270  2.4389
12053TIP3   OH257573   3.839   0.301   0.987 -0.1696  0.4225  0.4361
12053TIP3    H157574   3.814   0.228   1.045  0.5232  0.8614  1.3061
12053TIP3    H257575   3.843   0.377   1.045  0.4478  0.8973 -0.2185
12054TIP3   OH257576   5.984   6.773   2.733 -0.1260 -0.0877 -0.2808
12054TIP3    H157577   6.055   6.824   2.693 -0.3415  0.5805  0.1626
12054TIP3    H257578   5.918   6.765   2.664 -1.4839  2.9691  0.4840
12055TIP3   OH257579   1.157   6.608  12.636  0.0222 -0.5810  0.2493
12055TIP3    H157580   1.219   6.674  12.666 -1.4659  1.4189 -0.8070
12055TIP3    H257581   1.195   6.575  12.554 -0.4987  1.0711 -0.7146
12056TIP3   OH257582   5.068   6.352   4.527  0.6384  0.3901  0.3367
12056TIP3    H157583   5.000   6.307   4.476  2.5499  1.1614 -3.2628
12056TIP3    H257584   5.133   6.283   4.544  0.2273  0.2472  1.4141
12057TIP3   OH257585   1.156   6.656  16.021  0.2756 -0.1204 -0.0459
12057TIP3    H157586   1.210   6.732  16.044 -1.1987  0.7862  0.5962
12057TIP3    H257587   1.192   6.624  15.939  1.1358  1.0875 -0.1610
12058TIP3   OH257588   0.010   3.199   3.702  0.4188  0.2620 -0.5876
12058TIP3    H157589  -0.037   3.142   3.763  2.0579 -0.7170 -0.1678
12058TIP3    H257590   0.099   3.163   3.700  1.2867  2.2892 -0.9929
12059TIP3   OH257591   1.142   4.528  15.210  0.3806  0.0033 -0.0222
12059TIP3    H157592   1.140   4.592  15.281 -0.2103 -0.9615  0.8589
12059TIP3    H257593   1.234   4.502  15.204  0.2198 -1.0924  1.5207
12060TIP3   OH257594   0.408   3.149  15.667  0.3300  0.2256 -0.1676
12060TIP3    H157595   0.466   3.146  15.591  1.2733  1.1011  0.4950
12060TIP3    H257596   0.466   3.137  15.742 -0.5571 -0.3859  0.4370
12061TIP3   OH257597   3.235   2.145   2.441  0.5012 -0.0562 -0.4274
12061TIP3    H157598   3.280   2.171   2.361  0.1648  2.2159  0.0422
12061TIP3    H257599   3.144   2.173   2.427 -0.0351 -1.5270 -0.0430
12062TIP3   OH257600   6.144   0.062   5.356 -0.7114 -0.1510  0.5151
12062TIP3    H157601   6.214   0.094   5.414  0.6255 -1.5004 -0.2810
12062TIP3    H257602   6.177   0.078   5.268 -1.2739 -1.0824  0.1287
12063TIP3   OH257603   4.341   4.067  12.783  0.1364  0.8340 -0.2093
12063TIP3    H157604   4.416   4.060  12.724  1.0086  1.1117  0.8418
12063TIP3    H257605   4.355   3.998  12.848  0.1776  1.7407  0.7603
12064TIP3   OH257606   6.141   3.518  13.822  0.3624  0.8663 -0.0542
12064TIP3    H157607   6.136   3.606  13.785 -1.0739  0.5386 -0.7132
12064TIP3    H257608   6.224   3.483  13.790  0.5276  1.6627 -0.5183
12065TIP3   OH257609   3.801   6.667  15.245  0.3247  0.4557  0.4781
12065TIP3    H157610   3.795   6.608  15.169 -0.8739  1.0170  0.1200
12065TIP3    H257611   3.765   6.616  15.318  0.9335  0.1238  0.5503
12066TIP3   OH257612   5.903   0.276  16.610  0.0611 -0.2689 -0.2157
12066TIP3    H157613   5.923   0.183  16.617  2.6981  0.2137 -0.2470
12066TIP3    H257614   5.892   0.291  16.516  0.5620 -0.4239 -0.3078
12067TIP3   OH257615   6.044   0.397  17.097  0.3843 -0.4845 -0.0744
12067TIP3    H157616   5.963   0.444  17.077  0.9246  0.1366 -0.8652
12067TIP3    H257617   6.018   0.328  17.158 -0.7428 -0.3364 -0.3799
12068TIP3   OH257618   4.524   0.878  14.869 -0.0051 -0.4661 -0.0473
12068TIP3    H157619   4.575   0.798  14.884 -0.8327 -0.7425  1.5758
12068TIP3    H257620   4.448   0.869  14.927 -1.7901  0.0543 -2.1536
12069TIP3   OH257621   1.661   1.933  12.265  0.2937  0.6152 -0.2657
12069TIP3    H157622   1.710   1.855  12.238 -1.1263  0.4501 -2.7099
12069TIP3    H257623   1.724   1.985  12.315  1.2971 -2.0461  1.4492
12070TIP3   OH257624   1.169   0.929  13.279 -0.7364  0.8084  0.4457
12070TIP3    H157625   1.118   0.858  13.240 -1.6616  1.1236  1.0491
12070TIP3    H257626   1.198   0.894  13.363 -0.4434  0.8293  0.3521
12071TIP3   OH257627   5.475   1.421  15.508 -0.1041  0.3560 -0.1438
12071TIP3    H157628   5.530   1.498  15.521 -1.0052  1.1326 -0.7987
12071TIP3    H257629   5.392   1.443  15.550 -0.2330 -0.4288  0.0308
12072TIP3   OH257630   1.735   4.037   1.801 -0.2243 -0.0872 -0.5135
12072TIP3    H157631   1.665   3.992   1.848 -0.0944  0.1139 -0.1296
12072TIP3    H257632   1.795   3.967   1.774  0.3704 -0.0786  0.7337
12073TIP3   OH257633   3.765   2.998   2.907  0.3244 -0.6206  0.1880
12073TIP3    H157634   3.836   3.061   2.902 -0.5380  0.5044  1.2734
12073TIP3    H257635   3.779   2.952   2.990  1.4672 -2.5881 -1.0056
12074TIP3   OH257636   6.331   3.999   2.407 -0.0485 -0.8398 -0.2294
12074TIP3    H157637   6.257   3.945   2.380 -0.9839  0.4165 -0.2970
12074TIP3    H257638   6.295   4.088   2.412  1.7306  0.0069 -1.3945
12075TIP3   OH257639   2.582   5.340   3.502 -0.3351 -0.1561  0.4220
12075TIP3    H157640   2.569   5.360   3.409 -1.0048 -0.0574  0.5259
12075TIP3    H257641   2.521   5.399   3.547  0.4096  0.2135  0.9604
12076TIP3   OH257642   5.273   5.518   0.622 -0.0937 -0.0093 -0.4840
12076TIP3    H157643   5.218   5.508   0.544 -1.7340 -0.9095  0.7380
12076TIP3    H257644   5.219   5.568   0.683  0.8005 -0.1572  0.4487
12077TIP3   OH257645   1.488   5.679  13.705 -0.5338 -0.4318 -0.0614
12077TIP3    H157646   1.533   5.595  13.709 -0.5869 -0.4295  0.6087
12077TIP3    H257647   1.515   5.717  13.621  0.7670 -0.3955  0.3533
12078TIP3   OH257648   1.896   0.231   4.762 -0.1884  0.3092  0.1129
12078TIP3    H157649   1.818   0.260   4.714 -0.3203  0.0162  0.1486
12078TIP3    H257650   1.967   0.239   4.698 -0.0118  1.7953  0.4573
12079TIP3   OH257651   2.368   4.456   4.279  0.1030 -0.1096  0.1623
12079TIP3    H157652   2.382   4.396   4.206 -2.2428 -1.7578  0.9593
12079TIP3    H257653   2.277   4.443   4.304 -0.7190  4.1135  0.1556
12080TIP3   OH257654   3.518   3.756   0.874 -0.0061 -0.7589 -0.1568
12080TIP3    H157655   3.448   3.785   0.816 -1.5629 -1.0513  1.4768
12080TIP3    H257656   3.563   3.688   0.825  1.1641  1.5217 -2.4642
12081TIP3   OH257657   1.013   1.105  12.731  0.1109 -0.2344 -0.6047
12081TIP3    H157658   0.982   1.139  12.815 -1.0540 -2.6146  0.0303
12081TIP3    H257659   0.993   1.174  12.668 -2.9198  0.0009  0.4315
12082TIP3   OH257660   3.273   0.826   4.179 -0.1180 -0.6800  0.3647
12082TIP3    H157661   3.362   0.847   4.150 -0.0772 -0.2820  0.7757
12082TIP3    H257662   3.272   0.850   4.272 -0.8207 -0.1625  0.2279
12083TIP3   OH257663   1.863   0.522  12.078 -0.3422  0.0242 -0.0458
12083TIP3    H157664   1.892   0.555  11.993 -3.5958  2.2255 -0.4565
12083TIP3    H257665   1.899   0.583  12.142 -0.5717  0.2625 -0.1451
12084TIP3   OH257666   0.151   4.308   4.215 -0.1716 -1.0328 -0.9270
12084TIP3    H157667   0.057   4.296   4.204 -0.4928  0.9073 -0.6562
12084TIP3    H257668   0.177   4.359   4.138  0.7009 -1.6916 -1.0833
12085TIP3   OH257669   4.872   1.462  16.163 -0.0448 -0.6638  0.0008
12085TIP3    H157670   4.899   1.371  16.144  1.5249 -0.5223  1.3401
12085TIP3    H257671   4.863   1.465  16.258  0.5514  0.7511  0.0285
12086TIP3   OH257672   0.181   1.646   4.993  0.0864 -0.0492 -0.9707
12086TIP3    H157673   0.119   1.719   4.984 -1.0996 -1.0093 -0.9024
12086TIP3    H257674   0.181   1.627   5.087  1.0012  0.3626 -0.8798
12087TIP3   OH257675   1.429   0.682  16.630  0.3399  0.2859 -0.2467
12087TIP3    H157676   1.362   0.750  16.636 -1.0901 -0.9566 -1.2371
12087TIP3    H257677   1.390   0.605  16.672  2.0867  0.1613  1.2462
12088TIP3   OH257678   6.628   2.835  13.724 -0.5507 -0.3353  0.0758
12088TIP3    H157679   6.694   2.809  13.788 -0.5999  0.2846  0.3854
12088TIP3    H257680   6.671   2.899  13.668 -0.5336 -0.8180 -0.4687
12089TIP3   OH257681   2.784   6.137   4.389 -0.2197 -0.3376  0.1040
12089TIP3    H157682   2.701   6.121   4.343  0.5158  0.2494 -1.4871
12089TIP3    H257683   2.850   6.097   4.334  0.6797  0.1003  0.8396
12090TIP3   OH257684   0.501   2.771   2.514 -0.3280  0.1168  0.0816
12090TIP3    H157685   0.594   2.765   2.490 -0.2054  1.6194  0.0949
12090TIP3    H257686   0.463   2.829   2.447 -0.9926  0.4756  0.7602
12091TIP3   OH257687   0.680   4.217   2.548  0.6684 -0.0753  0.5216
12091TIP3    H157688   0.678   4.263   2.632  1.2053 -0.3083  0.6607
12091TIP3    H257689   0.660   4.285   2.483  2.4205  0.5805  0.6311
12092TIP3   OH257690   2.284   2.637  15.988  0.2311 -0.0499  0.1366
12092TIP3    H157691   2.325   2.598  15.911 -1.3554  0.5115 -1.0588
12092TIP3    H257692   2.276   2.730  15.966 -1.1204 -0.0482  0.5610
12093TIP3   OH257693   2.929   5.252   0.071 -0.7598  0.1407 -0.3021
12093TIP3    H157694   2.995   5.220   0.010 -0.0710 -1.0371  1.0093
12093TIP3    H257695   2.918   5.344   0.049 -1.0634 -0.4106 -2.6611
12094TIP3   OH257696   2.948   1.663   2.831 -0.2200  0.0308 -0.3484
12094TIP3    H157697   2.924   1.754   2.814 -0.7750  0.2953  1.5676
12094TIP3    H257698   2.979   1.663   2.922  0.3153 -1.5986 -0.4969
12095TIP3   OH257699   4.963   5.293  11.076  0.1541 -0.0225  0.3969
12095TIP3    H157700   4.951   5.314  10.984 -1.0888 -0.2501  0.4975
12095TIP3    H257701   5.046   5.246  11.080 -0.2753 -0.9101 -0.7498
12096TIP3   OH257702   2.404   3.170  17.082  0.4537  0.2023  0.4866
12096TIP3    H157703   2.475   3.112  17.109  0.8522 -0.4506 -1.8074
12096TIP3    H257704   2.383   3.144  16.993 -3.0926  0.0136  1.2234
12097TIP3   OH257705   0.991   5.039   3.580  1.2205 -0.2710  0.0058
12097TIP3    H157706   0.978   5.099   3.653  2.1432 -1.0453  0.8442
12097TIP3    H257707   0.911   4.987   3.577  1.3542 -0.5414  0.7839
12098TIP3   OH257708   6.551   1.388   4.994 -0.1339 -0.0933  0.0590
12098TIP3    H157709   6.640   1.420   4.976  0.6633 -0.4162  2.8641
12098TIP3    H257710   6.562   1.332   5.071 -3.0292  1.4012  1.7048
12099TIP3   OH257711   0.682   0.467  11.584 -0.6266 -0.3487 -0.3474
12099TIP3    H157712   0.736   0.507  11.516 -0.2902  0.0195  0.1264
12099TIP3    H257713   0.607   0.431  11.537 -0.4868  0.0531 -0.8954
12100TIP3   OH257714   0.751   0.481   4.659 -0.2770 -0.0838 -0.6334
12100TIP3    H157715   0.725   0.498   4.568 -3.7011 -0.6687  0.0904
12100TIP3    H257716   0.670   0.489   4.709  1.1673 -1.4011  2.1645
12101TIP3   OH257717   0.736   6.594  11.194 -0.5081 -0.3413  0.7481
12101TIP3    H157718   0.714   6.633  11.278 -0.5524 -1.1772  1.1314
12101TIP3    H257719   0.690   6.648  11.130 -0.2864  0.4411  1.2373
12102TIP3   OH257720   1.293   3.819   5.137  0.2773 -0.1018  0.4655
12102TIP3    H157721   1.263   3.853   5.053  1.5991  0.2384  0.1092
12102TIP3    H257722   1.310   3.897   5.190 -2.1270 -0.3096  1.6829
12103TIP3   OH257723   4.760   3.176  13.744 -0.3297  0.1152  0.0630
12103TIP3    H157724   4.675   3.147  13.776 -0.5380  0.2541 -0.3644
12103TIP3    H257725   4.816   3.099  13.752 -0.0215  0.5040  2.0267
12104TIP3   OH257726   0.311   5.703  13.355 -0.2249 -0.4186 -0.8052
12104TIP3    H157727   0.383   5.656  13.396 -0.1926  0.5296  0.2909
12104TIP3    H257728   0.242   5.638  13.343  1.1046 -1.5720 -2.7420
12105TIP3   OH257729   1.669   4.989  10.226  0.2114  0.2026 -0.4702
12105TIP3    H157730   1.656   4.960  10.317  1.7192 -0.2550 -0.3591
12105TIP3    H257731   1.581   5.000  10.191 -0.4040 -0.0148  0.9259
12106TIP3   OH257732   4.961   5.911  15.159 -0.0355  0.1520 -0.4206
12106TIP3    H157733   5.054   5.926  15.142  0.0013 -0.2073 -0.5354
12106TIP3    H257734   4.923   5.896  15.073 -0.5677  2.2541 -0.6069
12107TIP3   OH257735   3.339   4.155  16.277 -0.1802 -0.0278 -0.2647
12107TIP3    H157736   3.309   4.219  16.342 -0.3054 -0.0743 -0.2765
12107TIP3    H257737   3.273   4.159  16.208  0.4040  0.6497 -0.8050
12108TIP3   OH257738   2.732   3.873  15.738  0.5381 -0.2805 -0.9342
12108TIP3    H157739   2.717   3.947  15.679 -0.5288 -1.7991 -2.6827
12108TIP3    H257740   2.649   3.824  15.736  0.4769 -0.4242  1.8531
12109TIP3   OH257741   1.342   1.140  10.718  0.3171 -0.4903 -0.8300
12109TIP3    H157742   1.250   1.143  10.742  0.5314 -0.4050  0.0042
12109TIP3    H257743   1.370   1.051  10.740  1.1550  0.3242  1.7613
12110TIP3   OH257744   0.987   4.956  13.208  0.0372  0.4715 -0.4742
12110TIP3    H157745   0.945   5.011  13.142  0.8837 -0.1758 -1.5968
12110TIP3    H257746   1.079   4.985  13.208 -0.2476  1.5562  1.6034
12111TIP3   OH257747   4.924   0.954  11.177  0.6407 -0.2407 -0.0483
12111TIP3    H157748   4.874   1.025  11.216  0.1665 -0.8134  0.4024
12111TIP3    H257749   4.954   0.989  11.093  2.7245  1.4732  1.3065
12112TIP3   OH257750   4.877   1.871  12.225 -0.4696 -0.2230 -0.2282
12112TIP3    H157751   4.944   1.839  12.165  0.5000 -0.9052  1.1699
12112TIP3    H257752   4.834   1.792  12.257  0.4663 -0.0430  1.5842
12113TIP3   OH257753   6.775   3.272   4.134 -0.5289 -0.6447 -0.3024
12113TIP3    H157754   6.862   3.309   4.146 -0.9336 -0.0597  1.0022
12113TIP3    H257755   6.756   3.286   4.041  0.7108 -0.6956 -0.5868
12114TIP3   OH257756   2.721   3.541  13.766 -0.0668  0.0650  0.1720
12114TIP3    H157757   2.772   3.461  13.759  0.8082  0.5488  0.9023
12114TIP3    H257758   2.641   3.514  13.811 -0.2445 -0.5881 -0.5077
12115TIP3   OH257759   1.193   6.207  17.007  0.6484 -0.3243  0.0141
12115TIP3    H157760   1.208   6.200  16.912 -2.1467 -0.3219 -0.5065
12115TIP3    H257761   1.150   6.291  17.018 -0.6350 -1.0905  1.0451
12116TIP3   OH257762   0.022   2.594  11.982  0.5977 -0.0316  0.8268
12116TIP3    H157763   0.093   2.623  11.925 -1.0916  2.4339 -0.1786
12116TIP3    H257764  -0.002   2.673  12.032 -1.9148 -0.5522  0.5603
12117TIP3   OH257765   0.095   1.076  13.660  0.2361  0.7037 -0.2386
12117TIP3    H157766   0.178   1.029  13.665  0.2301  0.4461 -2.0299
12117TIP3    H257767   0.089   1.105  13.569 -2.1438 -0.2204 -0.4498
12118TIP3   OH257768   3.038   0.265  14.168  0.4589 -0.6235 -0.1223
12118TIP3    H157769   3.070   0.249  14.079  0.2444 -0.8187 -0.1659
12118TIP3    H257770   3.018   0.358  14.170 -2.1514 -1.0960 -1.1396
12119TIP3   OH257771   0.198   2.477   4.614 -0.3967  0.3575 -0.2204
12119TIP3    H157772   0.204   2.383   4.632  0.4789  0.3537 -0.4661
12119TIP3    H257773   0.106   2.499   4.629 -0.3093 -0.2341  1.2663
12120TIP3   OH257774   4.722   1.392   2.781  0.1280  0.8711  0.7169
12120TIP3    H157775   4.749   1.481   2.800 -0.1772  0.7164  1.9797
12120TIP3    H257776   4.644   1.401   2.726  0.9080  1.3462 -0.3474
12121TIP3   OH257777   2.989   6.177  11.274 -0.2708  0.9174  0.4118
12121TIP3    H157778   3.026   6.255  11.233  1.0892  0.6515  1.1101
12121TIP3    H257779   2.934   6.139  11.206 -1.1626  2.5953  0.1282
12122TIP3   OH257780   0.747   4.648  11.889 -0.1561 -0.1040 -0.4221
12122TIP3    H157781   0.661   4.606  11.887  0.6667 -1.8881 -0.0165
12122TIP3    H257782   0.806   4.585  11.848  1.0608  0.8631 -0.2322
12123TIP3   OH257783   2.505   2.402   1.530 -0.5693  0.0320  0.4160
12123TIP3    H157784   2.527   2.389   1.438 -0.9238 -0.0721  0.3437
12123TIP3    H257785   2.561   2.473   1.559 -0.8857  0.4761 -0.0458
12124TIP3   OH257786   5.382   4.940  16.686  0.1412 -0.1397 -0.3333
12124TIP3    H157787   5.427   4.902  16.611 -0.2785  1.1459 -1.2629
12124TIP3    H257788   5.301   4.976  16.650  0.6690  1.9460  0.3951
12125TIP3   OH257789   4.560   6.383  13.438 -0.5556 -0.1163 -0.2128
12125TIP3    H157790   4.593   6.462  13.481  3.1778 -0.5176 -2.0255
12125TIP3    H257791   4.593   6.311  13.492 -3.5032 -0.6109  1.1375
12126TIP3   OH257792   1.942   0.304  16.428 -0.6061 -0.1012 -0.2464
12126TIP3    H157793   2.002   0.230  16.428  0.1817  0.5269  0.2747
12126TIP3    H257794   1.935   0.330  16.520 -0.3633  0.8713 -0.4880
12127TIP3   OH257795   2.830   1.291  12.512 -0.2514  0.4107 -0.1242
12127TIP3    H157796   2.895   1.259  12.574 -0.3177 -0.2811 -0.4128
12127TIP3    H257797   2.746   1.270  12.554 -0.2998  1.1479  0.1677
12128TIP3   OH257798   1.938   0.636   4.630 -0.3713  0.1067  0.4961
12128TIP3    H157799   1.920   0.611   4.721 -1.2268 -0.4634  0.1853
12128TIP3    H257800   1.899   0.723   4.621  2.2925  1.4970  1.4778
12129TIP3   OH257801   1.847   4.518   6.265 -0.0141 -0.4637 -0.7503
12129TIP3    H157802   1.939   4.495   6.280  0.0621  0.1721 -0.1916
12129TIP3    H257803   1.801   4.483   6.341  0.1134  1.2224  0.1483
12130TIP3   OH257804   4.502   5.051   0.972  0.3790  0.0554  0.9165
12130TIP3    H157805   4.544   5.026   1.054  0.5755 -1.8548  0.2862
12130TIP3    H257806   4.564   5.025   0.904 -0.4367  0.1836  0.0977
12131TIP3   OH257807   6.117   5.320   0.018  0.3834 -0.5274  0.0571
12131TIP3    H157808   6.048   5.337  -0.046  1.7630 -1.3215 -1.7604
12131TIP3    H257809   6.181   5.267  -0.030  0.6537 -2.7900  2.6498
12132TIP3   OH257810   3.345   4.704   0.903  0.8709  0.2658  1.0908
12132TIP3    H157811   3.345   4.707   0.807  0.8847 -0.2937  1.0705
12132TIP3    H257812   3.394   4.782   0.929  2.3917 -0.4818  0.6050
12133TIP3   OH257813   4.653   4.200   4.458 -0.4501 -0.6100 -0.1507
12133TIP3    H157814   4.733   4.148   4.456 -0.3392 -0.5899  1.6870
12133TIP3    H257815   4.642   4.232   4.368 -0.1456 -3.1757 -1.1724
12134TIP3   OH257816   0.221   1.559   2.462  0.5046 -0.0431 -0.2906
12134TIP3    H157817   0.266   1.539   2.544 -0.0937  0.3937  0.1557
12134TIP3    H257818   0.291   1.573   2.399  0.9524 -2.3004 -0.3439
12135TIP3   OH257819   0.404   6.294  11.799  0.3443  0.1658 -0.4603
12135TIP3    H157820   0.316   6.312  11.766 -0.0675 -0.3499  0.3332
12135TIP3    H257821   0.401   6.202  11.826  0.7562  0.4794  0.7080
12136TIP3   OH257822   2.664   2.699   4.121 -0.8849  0.0391  0.9768
12136TIP3    H157823   2.692   2.782   4.082 -0.1774  0.5809  2.5544
12136TIP3    H257824   2.615   2.655   4.051 -2.0133  2.1538  0.3553
12137TIP3   OH257825   5.579   5.971  11.153  0.0604  0.7709  0.4117
12137TIP3    H157826   5.579   6.042  11.217 -1.6568  0.8549  0.3575
12137TIP3    H257827   5.597   5.892  11.205 -0.2056  0.9779  0.8266
12138TIP3   OH257828   6.039   1.607   1.137 -0.6925 -0.2986  0.4479
12138TIP3    H157829   5.976   1.539   1.160 -0.0430 -1.0871 -0.0494
12138TIP3    H257830   5.995   1.660   1.071 -1.0521 -0.4894  0.5325
12139TIP3   OH257831   6.315   3.553  14.306 -0.0248 -0.2698  0.2283
12139TIP3    H157832   6.220   3.556  14.311 -0.0242 -0.7772  3.7195
12139TIP3    H257833   6.334   3.516  14.220 -2.9436  0.0784 -0.6703
12140TIP3   OH257834   4.083   2.665  12.544  0.1236  0.6661 -0.2013
12140TIP3    H157835   4.032   2.583  12.549  1.4164 -0.2062 -0.8095
12140TIP3    H257836   4.021   2.733  12.573 -1.6461 -0.2281 -1.6779
12141TIP3   OH257837   6.531   0.141   2.626  0.0125 -0.4960  0.0370
12141TIP3    H157838   6.612   0.092   2.643  0.9005  0.3708 -1.4783
12141TIP3    H257839   6.473   0.077   2.585  1.4856 -0.1793 -2.7722
12142TIP3   OH257840   0.820   2.863   5.786 -0.1893  0.3363  0.3050
12142TIP3    H157841   0.841   2.855   5.693  0.2252  0.5765  0.3747
12142TIP3    H257842   0.816   2.958   5.802 -0.5797  0.2944  0.4597
12143TIP3   OH257843   0.288   1.457  16.783 -0.1781  0.1046  0.3382
12143TIP3    H157844   0.216   1.469  16.845  0.3421  0.0914  0.9482
12143TIP3    H257845   0.362   1.501  16.823 -0.0980  1.0419 -0.7804
12144TIP3   OH257846   5.476   0.809   5.727 -0.3539 -0.5479  0.3595
12144TIP3    H157847   5.406   0.793   5.790 -0.3774 -2.8104 -0.1805
12144TIP3    H257848   5.446   0.768   5.646 -0.0517  1.7586 -1.0103
12145TIP3   OH257849   0.235   0.636   1.346 -0.2160  0.1652 -0.1207
12145TIP3    H157850   0.189   0.696   1.287 -2.5306 -0.4093  0.9874
12145TIP3    H257851   0.232   0.551   1.300 -2.1451 -0.3144  0.7714
12146TIP3   OH257852   3.391   0.571   5.199  0.6206 -0.2837 -0.2713
12146TIP3    H157853   3.455   0.641   5.213  0.4536  0.3383 -2.2818
12146TIP3    H257854   3.315   0.615   5.162  0.8074 -1.5566 -2.3368
12147TIP3   OH257855   2.358   6.736  13.608  0.1219 -0.5667 -0.0259
12147TIP3    H157856   2.343   6.748  13.701  1.3680 -1.0230  0.2449
12147TIP3    H257857   2.440   6.688  13.602 -0.4233 -1.3976 -1.3401
12148TIP3   OH257858   6.643   3.774  14.516  0.4183  0.0565  0.1481
12148TIP3    H157859   6.714   3.835  14.496  1.3613 -0.4998  1.6794
12148TIP3    H257860   6.583   3.825  14.570  0.1650  0.2161 -0.2775
12149TIP3   OH257861   0.643   0.659   4.429 -0.3737  0.5829  0.4507
12149TIP3    H157862   0.688   0.706   4.499 -0.7021 -1.0337  1.8177
12149TIP3    H257863   0.586   0.724   4.388  2.7995  2.6038 -1.0789
12150TIP3   OH257864   5.562   2.391   4.939  0.1725  0.6030 -0.5676
12150TIP3    H157865   5.626   2.353   5.000 -1.9679 -0.2574  1.3256
12150TIP3    H257866   5.614   2.427   4.868  2.7531  0.2688  1.0273
12151TIP3   OH257867   6.229   1.851   3.348  0.2688 -0.2151 -0.3540
12151TIP3    H157868   6.142   1.867   3.311  0.0387  3.2778  1.3453
12151TIP3    H257869   6.288   1.895   3.288  0.5744 -0.1694 -0.0188
12152TIP3   OH257870   3.008   5.709  17.075 -0.6741  0.1462  0.3935
12152TIP3    H157871   3.019   5.804  17.069 -0.7927  0.3424  2.4390
12152TIP3    H257872   2.985   5.682  16.986  1.3470  1.7322 -0.7029
12153TIP3   OH257873   2.862   5.908   3.328 -0.7334  0.1767 -0.1035
12153TIP3    H157874   2.939   5.965   3.331 -0.6912  0.0933  0.6462
12153TIP3    H257875   2.796   5.959   3.281 -0.5166  0.6264  0.0742
12154TIP3   OH257876   5.704   6.318  13.606 -0.3537  0.1669  0.2933
12154TIP3    H157877   5.761   6.256  13.652  0.1047  0.8795  0.7084
12154TIP3    H257878   5.693   6.390  13.668 -1.6817  0.0667  0.2045
12155TIP3   OH257879   4.809   1.215  13.640 -0.4040 -0.8797 -0.0053
12155TIP3    H157880   4.814   1.299  13.686 -0.8946 -2.0007  2.2397
12155TIP3    H257881   4.747   1.231  13.568 -1.2185  0.4456  0.9467
12156TIP3   OH257882   6.162   3.452   1.306 -0.5052  0.2858 -0.0673
12156TIP3    H157883   6.081   3.496   1.332 -1.2791 -0.5046 -1.0302
12156TIP3    H257884   6.175   3.384   1.372 -0.4939  0.5846  0.2358
12157TIP3   OH257885   2.986   2.045   1.000 -0.5249  0.7087 -0.0599
12157TIP3    H157886   2.956   1.997   0.922 -0.6002 -0.6311  0.7605
12157TIP3    H257887   3.044   2.113   0.965  0.4864 -0.6687 -1.2190
12158TIP3   OH257888   2.334   2.568  14.477 -0.5087  0.2331  0.2701
12158TIP3    H157889   2.377   2.490  14.442 -0.3916 -0.5075  1.9524
12158TIP3    H257890   2.242   2.543  14.484 -0.8608  1.0244 -1.1922
12159TIP3   OH257891   4.052   2.069   2.869  0.5424 -0.2771 -0.1213
12159TIP3    H157892   3.983   2.030   2.816 -0.2259 -1.0911  1.4185
12159TIP3    H257893   4.070   2.004   2.937  0.2165  1.4332  1.6852
12160TIP3   OH257894   6.240   0.754  12.958  0.3548  0.2069  0.1574
12160TIP3    H157895   6.316   0.811  12.948  0.7766 -0.6898 -2.5144
12160TIP3    H257896   6.276   0.667  12.974 -0.1723  0.0630  0.6070
12161TIP3   OH257897   1.498   4.110  14.820  0.0419 -0.2477 -0.0608
12161TIP3    H157898   1.566   4.073  14.764  0.5975 -0.8794  1.0147
12161TIP3    H257899   1.434   4.040  14.829 -1.1311  0.5559 -1.6057
12162TIP3   OH257900   0.586   0.323   3.554 -0.1404 -0.0071  0.4728
12162TIP3    H157901   0.623   0.395   3.504 -0.5475  0.0986  0.3184
12162TIP3    H257902   0.565   0.361   3.639 -1.0934  0.2694  0.1301
12163TIP3   OH257903   4.564   3.184  15.691 -0.4465  0.4723 -0.0383
12163TIP3    H157904   4.649   3.153  15.722 -0.6927  0.5386  0.7300
12163TIP3    H257905   4.513   3.198  15.771 -1.1415  0.5436 -0.4836
12164TIP3   OH257906   4.901   5.323  15.744  0.4288 -0.4943 -0.2330
12164TIP3    H157907   4.940   5.361  15.665 -0.3633  0.1203 -0.3388
12164TIP3    H257908   4.808   5.316  15.724  0.5073 -2.2983 -0.1225
12165TIP3   OH257909   2.364   1.814  15.030  0.5212  0.0710  0.0807
12165TIP3    H157910   2.449   1.855  15.018  0.8649 -1.2374 -2.7806
12165TIP3    H257911   2.300   1.884  15.016  1.1008  0.6504  0.3214
12166TIP3   OH257912   2.546   1.317  12.611  0.1992 -0.0604  0.0877
12166TIP3    H157913   2.501   1.357  12.536 -1.7767 -1.7305  0.3121
12166TIP3    H257914   2.509   1.362  12.687  0.8605  0.3591  0.1701
12167TIP3   OH257915   1.744   1.122  16.330  0.3609  0.4899 -0.1483
12167TIP3    H157916   1.816   1.089  16.384 -0.6140 -3.2467 -0.8755
12167TIP3    H257917   1.750   1.073  16.248 -2.6289  0.4251 -0.4482
12168TIP3   OH257918   4.633   3.967  12.663 -0.1849 -0.2080 -0.0343
12168TIP3    H157919   4.625   3.874  12.684 -0.4679  0.1513  1.6018
12168TIP3    H257920   4.724   3.977  12.635 -0.0833 -0.9293  0.0136
12169TIP3   OH257921   3.161   6.342  15.999  0.4415 -0.2829 -0.3861
12169TIP3    H157922   3.218   6.390  16.059 -1.5801  2.1278 -0.1943
12169TIP3    H257923   3.143   6.259  16.042  2.5112 -0.4483  0.2404
12170TIP3   OH257924   0.755   3.971   6.492  0.8652  0.5436  0.6671
12170TIP3    H157925   0.798   3.904   6.439 -0.8388  1.7991 -2.6025
12170TIP3    H257926   0.664   3.941   6.500  0.5891  1.4246  1.0015
12171TIP3   OH257927   5.383   5.385  14.282 -0.1048 -0.3064 -0.0596
12171TIP3    H157928   5.382   5.290  14.286  1.0797 -0.2997  1.2821
12171TIP3    H257929   5.292   5.411  14.290 -0.3713 -1.3097  0.2615
12172TIP3   OH257930   1.884   3.231  15.859  0.0566  0.4165  0.2405
12172TIP3    H157931   1.895   3.139  15.836  0.0419  0.1552  1.2529
12172TIP3    H257932   1.893   3.233  15.954 -1.7582  1.1910  0.4272
12173TIP3   OH257933   4.525   4.716   0.936 -0.2123 -0.2795  0.0941
12173TIP3    H157934   4.565   4.631   0.919 -0.6613 -0.4485 -0.1365
12173TIP3    H257935   4.544   4.734   1.028  0.2858 -0.4098  0.0205
12174TIP3   OH257936   1.294   0.980  16.722 -0.0862 -0.1854 -0.2796
12174TIP3    H157937   1.297   1.020  16.636 -0.0215  0.0841 -0.1538
12174TIP3    H257938   1.202   0.960  16.737 -0.1329  0.0257 -0.2931
12175TIP3   OH257939   0.006   6.209   5.234  0.2640  0.3107  0.1669
12175TIP3    H157940  -0.054   6.284   5.239  1.4404  1.2520  0.7480
12175TIP3    H257941   0.028   6.190   5.326 -0.4939 -1.1691  0.0704
12176TIP3   OH257942   2.469   5.091  11.024 -0.1557 -0.0482  0.2359
12176TIP3    H157943   2.561   5.064  11.031  0.0595  0.6042  0.0410
12176TIP3    H257944   2.420   5.009  11.019  0.5703 -0.4341 -1.4683
12177TIP3   OH257945   1.917   6.705   3.969 -0.2068 -0.4648 -0.4147
12177TIP3    H157946   2.000   6.716   3.922  1.0157 -0.0151  1.6580
12177TIP3    H257947   1.933   6.630   4.027 -0.3551  1.0117  1.6521
12178TIP3   OH257948   5.702   0.723  16.795  1.0151  0.0057  0.4176
12178TIP3    H157949   5.709   0.789  16.863 -0.8213 -2.0820  2.8333
12178TIP3    H257950   5.630   0.753  16.739  1.4971  0.9577  0.2853
12179TIP3   OH257951   3.642   1.578   3.215  0.3700 -0.2470 -0.2896
12179TIP3    H157952   3.687   1.599   3.297  1.2264 -2.3259 -0.1736
12179TIP3    H257953   3.612   1.663   3.183 -0.8141  0.5674  2.6028
12180TIP3   OH257954   1.224   3.571  16.205  0.1003  0.4423 -0.1734
12180TIP3    H157955   1.248   3.480  16.184  0.6125  0.6449 -0.4648
12180TIP3    H257956   1.214   3.571  16.300 -1.6073 -0.3312 -0.3021
12181TIP3   OH257957   0.642   5.869  17.088  0.5705 -0.1087  0.3880
12181TIP3    H157958   0.720   5.905  17.130 -0.1795  0.9332  0.9400
12181TIP3    H257959   0.604   5.943  17.040 -1.1416 -0.0287  1.7547
12182TIP3   OH257960   3.725   6.332  16.712 -0.0185  0.5551  0.2999
12182TIP3    H157961   3.724   6.342  16.617  0.1662  1.0315  0.3453
12182TIP3    H257962   3.634   6.319  16.736 -0.0091 -0.1218  0.0080
12183TIP3   OH257963   1.995   2.263  11.366 -0.0197 -0.4349  0.1429
12183TIP3    H157964   1.982   2.358  11.363 -1.7212 -0.5886  1.3429
12183TIP3    H257965   2.084   2.252  11.399 -0.0471  0.7457  0.6537
12184TIP3   OH257966   6.652   1.203   2.712  0.5503  0.5751 -0.3892
12184TIP3    H157967   6.739   1.232   2.742  0.1930  1.4601 -0.1703
12184TIP3    H257968   6.670   1.126   2.658  1.3472 -0.2277  0.9397
12185TIP3   OH257969   4.089   3.155  13.128 -0.4952  0.0909  0.3174
12185TIP3    H157970   4.183   3.169  13.120 -0.7751  1.9301 -0.0827
12185TIP3    H257971   4.074   3.146  13.222 -0.1085  1.3433  0.5084
12186TIP3   OH257972   2.832   5.070  12.504 -0.1942  0.5526  0.0944
12186TIP3    H157973   2.889   5.015  12.557  0.5287  1.0063 -0.2093
12186TIP3    H257974   2.787   5.008  12.446  1.1881  0.3193 -0.7814
12187TIP3   OH257975   6.504   0.225   5.059  0.1593 -0.1961 -0.1000
12187TIP3    H157976   6.538   0.283   4.991  0.4384  0.1921  0.3727
12187TIP3    H257977   6.422   0.266   5.087 -0.1241 -0.5264 -0.4200
12188TIP3   OH257978   0.328   6.299  12.552 -0.3790  0.1829  0.3489
12188TIP3    H157979   0.313   6.205  12.539 -0.0794  0.0352  0.9917
12188TIP3    H257980   0.346   6.307  12.646  1.5689  0.6053 -0.0149
12189TIP3   OH257981   2.353   4.562  11.645 -0.5756 -0.2130  0.0361
12189TIP3    H157982   2.327   4.595  11.560 -0.9705  0.7522  0.5219
12189TIP3    H257983   2.439   4.522  11.630  0.2320  1.6268 -0.4463
12190TIP3   OH257984   0.643   0.439   1.526 -0.3526 -0.8307 -0.1981
12190TIP3    H157985   0.692   0.429   1.444 -0.4758 -2.2795 -0.1200
12190TIP3    H257986   0.640   0.534   1.540 -1.0301 -0.4903 -2.2748
12191TIP3   OH257987   2.151   3.975  16.252  0.2008  0.3321 -0.3108
12191TIP3    H157988   2.195   4.054  16.222 -2.6765  0.6058 -4.6617
12191TIP3    H257989   2.066   4.005  16.285 -0.8143 -0.7957 -1.7314
12192TIP3   OH257990   3.641   3.283  14.710 -0.3691  0.8506  0.0506
12192TIP3    H157991   3.568   3.345  14.711 -0.2980  0.9413  0.9189
12192TIP3    H257992   3.610   3.210  14.657 -0.9807  1.0174  0.1670
12193TIP3   OH257993   1.268   1.470   0.651  0.1311  0.2786 -0.1898
12193TIP3    H157994   1.226   1.485   0.566 -0.6705 -1.2466 -0.1084
12193TIP3    H257995   1.195   1.469   0.713  0.5929  0.3119  0.3555
12194TIP3   OH257996   5.282   5.744   2.566  0.1388 -0.0401 -0.7863
12194TIP3    H157997   5.229   5.812   2.523 -0.2825  0.1070 -0.0495
12194TIP3    H257998   5.259   5.663   2.521 -0.5577  0.0586 -0.6104
12195TIP3   OH257999   5.400   3.253  16.031 -0.2903 -0.2312 -0.7221
12195TIP3    H158000   5.421   3.346  16.039 -1.9168  0.2245 -1.3360
12195TIP3    H258001   5.414   3.233  15.938  0.7301 -0.8129 -0.4705
12196TIP3   OH258002   2.409   5.041   4.609  0.0249  0.3521 -0.1223
12196TIP3    H158003   2.336   5.048   4.670 -0.0258 -0.6379 -0.0510
12196TIP3    H258004   2.456   4.962   4.637 -0.3098 -0.4558 -1.6922
12197TIP3   OH258005   3.212   3.876   0.999  0.2805 -0.6390  0.2392
12197TIP3    H158006   3.191   3.969   1.001  0.6279 -0.5720  1.6812
12197TIP3    H258007   3.236   3.859   0.908  0.8937  0.8353  0.0948
12198TIP3   OH258008   0.696   0.079  12.421 -0.9676 -0.2818  0.0120
12198TIP3    H158009   0.685   0.030  12.340 -0.0439 -1.4279  0.5598
12198TIP3    H258010   0.661   0.022  12.489 -0.7299  0.2098  0.5588
12199TIP3   OH258011   5.176   1.278  11.648 -0.1260 -0.4223 -0.2367
12199TIP3    H158012   5.104   1.238  11.599 -2.2264 -0.9418  2.9459
12199TIP3    H258013   5.206   1.209  11.707  0.8426  0.7436  0.6809
12200TIP3   OH258014   3.270   2.848   2.497 -0.3017 -0.6423  0.4378
12200TIP3    H158015   3.251   2.756   2.484  0.1548 -1.1732  2.9709
12200TIP3    H258016   3.340   2.868   2.435  0.4073 -2.3173  0.6687
12201TIP3   OH258017   5.811   6.002   3.166  0.6718 -0.2173  0.0435
12201TIP3    H158018   5.882   5.939   3.157  1.4239  0.7012 -0.8164
12201TIP3    H258019   5.736   5.951   3.193  1.6645 -1.2196  0.9937
12202TIP3   OH258020   2.915   4.451   2.156  0.2787 -0.0138  0.1710
12202TIP3    H158021   2.951   4.488   2.075  0.6590  0.1778  0.4244
12202TIP3    H258022   2.992   4.431   2.210 -0.0012  2.5411  1.6793
12203TIP3   OH258023   3.636   6.483   2.836 -0.0533  0.3089 -0.2506
12203TIP3    H158024   3.574   6.426   2.881  0.3280  0.7642  0.8815
12203TIP3    H258025   3.581   6.551   2.795 -0.5071 -0.8196 -1.5927
12204TIP3   OH258026   4.567   2.083  15.619  0.3618  0.2251  0.5182
12204TIP3    H158027   4.660   2.063  15.629  0.1639 -0.8282  0.3800
12204TIP3    H258028   4.563   2.179  15.618  1.8554  0.3826 -2.9441
12205TIP3   OH258029   2.090   2.021   4.627  0.2062  0.2969 -0.9161
12205TIP3    H158030   2.076   2.072   4.707  0.1822 -0.1299 -0.6483
12205TIP3    H258031   2.131   2.083   4.566  1.8191  0.1820 -0.0037
12206TIP3   OH258032   2.047   4.704   3.560 -0.6795  0.1129  0.6802
12206TIP3    H158033   1.970   4.754   3.535  1.0484  3.1977  1.0598
12206TIP3    H258034   2.103   4.704   3.482 -0.6912 -1.4213  0.6421
12207TIP3   OH258035   1.703   6.346   4.791  0.3122 -0.1140 -0.0987
12207TIP3    H158036   1.781   6.302   4.823 -0.1231 -0.4379  0.5245
12207TIP3    H258037   1.632   6.286   4.809 -0.2793  0.7804  0.6678
12208TIP3   OH258038   2.519   1.153  14.463  0.0537  0.0518 -0.0233
12208TIP3    H158039   2.556   1.078  14.417  1.7811  0.6056  0.3912
12208TIP3    H258040   2.473   1.202  14.394  0.6091 -0.3417 -0.6843
12209TIP3   OH258041   5.477   5.465  16.275 -0.2286  0.0397  0.2872
12209TIP3    H158042   5.451   5.472  16.183  0.2092 -1.4241  0.0363
12209TIP3    H258043   5.439   5.543  16.316 -4.4161 -1.4739 -0.1958
12210TIP3   OH258044   3.913   4.537  13.777  0.3925  1.0675 -0.3588
12210TIP3    H158045   3.919   4.629  13.750 -0.9280  1.5577  0.9084
12210TIP3    H258046   3.843   4.501  13.723 -0.4187  1.3431  0.4822
12211TIP3   OH258047   5.951   0.267   1.055  0.3097  0.3222 -0.3163
12211TIP3    H158048   5.974   0.186   1.100 -1.3564  0.5660  1.0735
12211TIP3    H258049   5.993   0.259   0.969 -0.5655 -2.4497 -0.5928
12212TIP3   OH258050   6.375   5.273  11.599  0.0511  0.2507  0.3567
12212TIP3    H158051   6.349   5.336  11.531 -1.3435 -1.2904 -0.6214
12212TIP3    H258052   6.441   5.320  11.651  1.2411  1.4907 -2.0798
12213TIP3   OH258053   0.989   3.489   0.218 -0.2599 -0.5286  0.1000
12213TIP3    H158054   1.056   3.448   0.273 -0.4198 -1.2295 -0.2065
12213TIP3    H258055   1.014   3.466   0.129  0.3656  1.1650 -0.1970
12214TIP3   OH258056   2.530   5.509   5.161  0.0727 -0.3628  0.0491
12214TIP3    H158057   2.607   5.538   5.211  1.4987  0.0473 -2.2174
12214TIP3    H258058   2.477   5.587   5.151  1.4976  0.4425 -1.8928
12215TIP3   OH258059   4.698   6.218   3.627 -0.3351  0.1924 -0.5787
12215TIP3    H158060   4.680   6.282   3.558 -0.7218 -1.3589 -2.0004
12215TIP3    H258061   4.646   6.141   3.602  0.2216 -0.7313  0.9787
12216TIP3   OH258062   0.149   3.254   0.860 -0.1447 -0.1036 -0.5677
12216TIP3    H158063   0.205   3.278   0.933 -0.0115 -1.3007 -0.2579
12216TIP3    H258064   0.130   3.337   0.816 -0.2669  0.6458  0.8414
12217TIP3   OH258065   6.468   2.279  16.243  0.0031 -0.9481 -0.0419
12217TIP3    H158066   6.383   2.236  16.243 -0.0408 -0.8647  0.1996
12217TIP3    H258067   6.502   2.266  16.155 -1.1505  0.7858 -0.7982
12218TIP3   OH258068   0.714   3.227  13.555 -0.0828  0.4693 -0.6864
12218TIP3    H158069   0.798   3.182  13.552 -0.7705 -0.8205 -1.7738
12218TIP3    H258070   0.671   3.202  13.473 -0.2690  3.6134 -1.6689
12219TIP3   OH258071   1.964   1.579  13.400  0.4246  0.1537 -0.0485
12219TIP3    H158072   1.959   1.516  13.472 -2.1644  0.4440  0.1226
12219TIP3    H258073   2.011   1.532  13.331 -2.1113 -2.3722 -0.2476
12220TIP3   OH258074   5.172   2.498   4.538  0.5272  0.1625  0.0051
12220TIP3    H158075   5.148   2.408   4.516 -0.5421  0.5513 -0.4799
12220TIP3    H258076   5.212   2.491   4.625 -0.5260 -0.6594  0.4545
12221TIP3   OH258077   1.284   4.105   3.653  0.0864  0.2350 -0.1978
12221TIP3    H158078   1.229   4.030   3.628 -0.2504  0.6779 -0.7880
12221TIP3    H258079   1.286   4.161   3.576 -0.2421  1.1843  0.4565
12222TIP3   OH258080   3.699   6.609   2.532 -0.3336 -0.5169 -0.2673
12222TIP3    H158081   3.656   6.524   2.527  1.0795 -1.2545 -0.3748
12222TIP3    H258082   3.792   6.589   2.538  0.0053  1.0190  0.1420
12223TIP3   OH258083   1.009   6.386   0.683 -0.2046  0.3432  0.2192
12223TIP3    H158084   1.062   6.317   0.643  1.0098  1.2309  0.2461
12223TIP3    H258085   0.919   6.364   0.659  0.2893 -0.4321 -1.0050
12224TIP3   OH258086   3.560   2.278  15.477 -0.2204  0.2719  1.0019
12224TIP3    H158087   3.468   2.278  15.453  0.3001  1.0708 -1.2025
12224TIP3    H258088   3.605   2.244  15.400  1.3225 -0.5230  2.1888
12225TIP3   OH258089   3.123   0.654  16.638 -0.2047 -0.2674  0.1150
12225TIP3    H158090   3.205   0.608  16.656  1.1858  1.5804 -1.2032
12225TIP3    H258091   3.106   0.637  16.545 -1.8017 -1.2642  0.5313
12226TIP3   OH258092   5.160   0.618   2.170 -0.3696  0.5414  0.0833
12226TIP3    H158093   5.129   0.530   2.193  0.8249  0.3909  1.2947
12226TIP3    H258094   5.174   0.660   2.255 -1.4679  2.1233 -0.4860
12227TIP3   OH258095   2.954   0.982   2.188  0.0712 -0.0289  0.3668
12227TIP3    H158096   2.976   1.067   2.226 -1.8998  1.8613 -2.3034
12227TIP3    H258097   2.940   1.001   2.095  0.0311 -3.4150 -0.4182
12228TIP3   OH258098   1.084   2.479  10.331  0.1126  0.3312 -0.2860
12228TIP3    H158099   1.153   2.469  10.265  1.7391 -1.9110  1.6046
12228TIP3    H258100   1.028   2.402  10.319  0.3526 -0.0339  0.8141
12229TIP3   OH258101   1.224   5.628   4.650  0.0393 -0.2870 -0.3400
12229TIP3    H158102   1.228   5.682   4.728  1.0848  1.8694 -1.7968
12229TIP3    H258103   1.286   5.557   4.665  2.3254  1.6381 -0.2543
12230TIP3   OH258104   0.655   4.109  14.638 -0.2960 -0.2407  0.0563
12230TIP3    H158105   0.699   4.170  14.698 -0.6474 -1.2710  1.4293
12230TIP3    H258106   0.607   4.165  14.578 -0.1489  0.8456  0.9101
12231TIP3   OH258107   4.142   3.090  12.584  0.3306  0.1937  0.4465
12231TIP3    H158108   4.095   3.152  12.529  0.2892  1.5209  1.9052
12231TIP3    H258109   4.099   3.096  12.669 -0.3324 -2.6200  0.3962
12232TIP3   OH258110   1.399   6.127  13.915 -0.2140 -1.0512  0.0120
12232TIP3    H158111   1.409   6.065  13.843  0.8971  1.9951 -2.7188
12232TIP3    H258112   1.487   6.140  13.949 -0.2606 -0.2224 -0.1588
12233TIP3   OH258113   5.044   6.580   6.021 -0.1961  0.3130 -0.1370
12233TIP3    H158114   5.109   6.520   6.057 -2.1974 -1.2907  1.0690
12233TIP3    H258115   4.965   6.526   6.009 -1.8508  2.4933  0.1902
12234TIP3   OH258116   4.585   6.396   4.470 -0.2059  0.3566  0.2913
12234TIP3    H158117   4.531   6.458   4.422 -0.9597 -1.4081 -1.2597
12234TIP3    H258118   4.522   6.336   4.511  0.5205 -1.2563 -0.8766
12235TIP3   OH258119   4.113   3.587  16.232  0.4155 -0.1049 -0.0734
12235TIP3    H158120   4.175   3.659  16.242 -0.9288  1.1464 -0.5139
12235TIP3    H258121   4.167   3.513  16.205  1.6019  1.2118 -1.4794
12236TIP3   OH258122   5.501   1.140  16.639  0.2050 -0.6311 -1.0090
12236TIP3    H158123   5.536   1.078  16.574  0.9665  0.3130 -1.5231
12236TIP3    H258124   5.457   1.207  16.587  1.7411  0.7143 -0.6575
12237TIP3   OH258125   2.971   2.691   3.306  0.2899  0.2473 -0.3326
12237TIP3    H158126   3.061   2.723   3.308 -0.8883  3.8796  1.0458
12237TIP3    H258127   2.923   2.755   3.254 -1.7716 -0.9571 -0.0511
12238TIP3   OH258128   4.120   4.032   4.400 -0.1724  0.6413 -0.0984
12238TIP3    H158129   4.144   4.086   4.325  2.4445  0.2409  0.3616
12238TIP3    H258130   4.077   3.956   4.362  0.0695  0.9867 -1.1012
12239TIP3   OH258131   0.005   2.618  15.842 -0.3723  0.3569  0.2725
12239TIP3    H158132   0.033   2.663  15.922 -0.7839  0.4571  0.3589
12239TIP3    H258133   0.013   2.685  15.774  2.5700 -0.4213 -0.2952
12240TIP3   OH258134   3.916   0.907  14.780  0.6793  0.3388 -0.3844
12240TIP3    H158135   3.891   0.829  14.829  2.6343 -0.6419 -0.8731
12240TIP3    H258136   3.843   0.968  14.795  0.0966 -0.7648  1.7675
12241TIP3   OH258137   0.158   0.559  13.572 -0.0013  0.0970 -0.6633
12241TIP3    H158138   0.200   0.640  13.543  2.0238 -0.8857 -0.6710
12241TIP3    H258139   0.183   0.494  13.506 -0.9640 -0.7121 -0.2563
12242TIP3   OH258140   1.374   6.756  13.472 -0.1568 -0.0685  0.1561
12242TIP3    H158141   1.297   6.800  13.507 -0.7147  0.5813 -1.7607
12242TIP3    H258142   1.363   6.665  13.497 -1.5449  0.0197 -0.0579
12243TIP3   OH258143   4.927   2.302   4.798 -0.4363 -0.1986 -0.3509
12243TIP3    H158144   4.986   2.311   4.873 -1.5964 -0.7635  0.6605
12243TIP3    H258145   4.863   2.373   4.809 -0.9992 -0.6860 -0.4249
12244TIP3   OH258146   3.542   4.695   2.363  0.0041 -0.0052 -0.1543
12244TIP3    H158147   3.555   4.699   2.457 -0.2892  0.9173 -0.1360
12244TIP3    H258148   3.550   4.602   2.341  0.9288 -0.1290  0.6418
12245TIP3   OH258149   0.137   5.546   3.671  0.3915 -0.0208 -0.1498
12245TIP3    H158150   0.229   5.525   3.680  0.4738 -0.9903 -2.4571
12245TIP3    H258151   0.135   5.641   3.657  1.2019 -0.1598 -1.3663
12246TIP3   OH258152   4.012   4.576  14.025 -0.0075  0.5018 -0.7899
12246TIP3    H158153   3.991   4.542  13.938 -0.4343  0.9726 -0.8789
12246TIP3    H258154   3.929   4.613  14.056  0.4245  1.4192 -0.6822
12247TIP3   OH258155   0.203   2.226   1.218  0.2257 -0.3791 -0.5507
12247TIP3    H158156   0.166   2.171   1.287 -0.1989  0.0859 -0.4005
12247TIP3    H258157   0.280   2.265   1.258  1.5530 -2.1959 -1.2111
12248TIP3   OH258158   2.145   2.261  16.831 -0.6980  0.6167 -0.2140
12248TIP3    H158159   2.161   2.190  16.893  0.4674  1.4405  0.4592
12248TIP3    H258160   2.158   2.222  16.745  2.6007  0.5771  0.1927
12249TIP3   OH258161   6.197   6.144  16.936  0.4388  0.1694  0.5656
12249TIP3    H158162   6.215   6.212  16.871 -0.9109  1.6458  1.6539
12249TIP3    H258163   6.238   6.065  16.901 -0.4839  0.8174 -2.2291
12250TIP3   OH258164   2.669   1.025  12.933  0.4324  0.2917 -0.0785
12250TIP3    H158165   2.759   0.994  12.931 -0.0740 -1.3151  0.5651
12250TIP3    H258166   2.668   1.088  13.006  1.3447  1.4549 -1.0375
12251TIP3   OH258167   2.868   2.651  16.850 -0.3252  0.0541  0.0879
12251TIP3    H158168   2.797   2.597  16.817  0.5099 -0.5772 -0.7462
12251TIP3    H258169   2.946   2.616  16.807  0.6723 -0.1107  1.9252
12252TIP3   OH258170   1.098   3.857  15.233  0.1065  0.0466  0.6878
12252TIP3    H158171   1.176   3.911  15.248 -0.4615  1.1199 -0.1325
12252TIP3    H258172   1.026   3.919  15.224 -0.6505 -0.8679  0.1936
12253TIP3   OH258173   1.340   6.102  10.692  0.3424  0.3885 -0.3343
12253TIP3    H158174   1.279   6.066  10.627  0.1046  0.7507 -0.3196
12253TIP3    H258175   1.293   6.177  10.729  0.2765 -0.1106  0.6119
12254TIP3   OH258176   2.888   2.502  17.192 -0.2409 -0.0348  0.3340
12254TIP3    H158177   2.956   2.519  17.127 -1.2447  0.3378 -0.6483
12254TIP3    H258178   2.811   2.477  17.140 -1.0287  0.1420  1.3865
12255TIP3   OH258179   6.716   5.866  17.039 -0.4669  0.6113  0.0249
12255TIP3    H158180   6.649   5.924  17.075 -0.0752  1.1965 -0.1818
12255TIP3    H258181   6.730   5.801  17.108 -1.9041 -0.0678 -0.2862
12256TIP3   OH258182   5.854   5.150  14.161 -0.5745 -0.3122 -0.5979
12256TIP3    H158183   5.847   5.246  14.158 -1.2491 -0.3667 -0.8567
12256TIP3    H258184   5.947   5.134  14.177 -0.7993  0.4372  1.8597
12257TIP3   OH258185   6.334   2.969  14.351  0.0477 -0.0317 -0.2232
12257TIP3    H158186   6.321   2.972  14.445 -0.0964  1.4313 -0.2622
12257TIP3    H258187   6.318   3.059  14.322  1.0756 -0.2347 -1.5048
12258TIP3   OH258188   5.846   2.274   1.997  0.2797 -0.1840  0.0994
12258TIP3    H158189   5.923   2.297   2.049  0.4133  0.7396 -0.4841
12258TIP3    H258190   5.774   2.321   2.037 -0.0779 -1.3567  0.8840
12259TIP3   OH258191   1.050   6.294   2.000 -0.7588  0.0144  1.0477
12259TIP3    H158192   1.114   6.250   2.056  0.1479 -0.3169 -0.2159
12259TIP3    H258193   0.989   6.225   1.973  0.3358 -0.3978 -0.4755
12260TIP3   OH258194   0.503   2.317  14.477  0.3331 -0.1668  0.5264
12260TIP3    H158195   0.539   2.245  14.426  1.8305  0.8175  0.1398
12260TIP3    H258196   0.578   2.354  14.524 -0.1218  1.8862 -0.2173
12261TIP3   OH258197   2.858   2.976  11.951 -0.1814 -0.1420 -0.1310
12261TIP3    H158198   2.917   3.045  11.919  0.7495 -1.0026 -0.3265
12261TIP3    H258199   2.799   2.959  11.878 -0.7327  0.7745  0.0884
12262TIP3   OH258200   1.201   1.900  15.644  0.0589 -0.2081 -0.5446
12262TIP3    H158201   1.219   1.881  15.552  0.9098  0.1875 -0.4707
12262TIP3    H258202   1.245   1.983  15.661 -1.8246  0.7869 -0.3034
12263TIP3   OH258203   1.317   2.448  15.432 -0.3004 -0.5729 -0.0551
12263TIP3    H158204   1.307   2.392  15.355 -1.3892 -1.6179  0.8109
12263TIP3    H258205   1.253   2.518  15.420  1.1299  0.6169 -1.1873
12264TIP3   OH258206   1.595   2.403   6.325 -0.2435  0.6550 -0.2174
12264TIP3    H158207   1.505   2.393   6.354 -0.3175 -0.9676 -0.8823
12264TIP3    H258208   1.633   2.467   6.385 -0.7126 -1.5834  2.6711
12265TIP3   OH258209   1.270   5.664  15.903 -0.3317  0.1737  0.3066
12265TIP3    H158210   1.301   5.752  15.885 -1.5257  0.6358  0.4123
12265TIP3    H258211   1.277   5.654  15.998  0.8607 -0.2737  0.1865
12266TIP3   OH258212   3.638   1.474  14.861 -0.0015  0.1770  0.0029
12266TIP3    H158213   3.658   1.407  14.926  0.1754 -0.5506 -0.7893
12266TIP3    H258214   3.556   1.513  14.891 -0.1990 -0.5167  0.3745
12267TIP3   OH258215   0.700   5.488   0.668  0.0363 -0.5385 -0.5910
12267TIP3    H158216   0.717   5.501   0.574 -2.2335 -0.0635 -0.9975
12267TIP3    H258217   0.650   5.565   0.694 -0.4888 -1.2871  0.7035
12268TIP3   OH258218   2.686   3.287  15.443  0.3814  0.3422 -0.3418
12268TIP3    H158219   2.642   3.368  15.468 -0.8848 -0.3648 -0.2022
12268TIP3    H258220   2.776   3.314  15.426 -0.0127  1.7808 -0.3381
12269TIP3   OH258221   4.369   1.246   1.690 -0.0989  0.1260 -0.0791
12269TIP3    H158222   4.278   1.229   1.716 -0.6722  2.6692 -0.1691
12269TIP3    H258223   4.370   1.338   1.663  2.7627  0.5372  1.0535
12270TIP3   OH258224   4.532   0.339  13.086  0.1552  0.1998 -0.3806
12270TIP3    H158225   4.501   0.251  13.063  0.7638 -0.3224  0.7445
12270TIP3    H258226   4.550   0.380  13.001  2.6232 -1.7696 -0.9156
12271TIP3   OH258227   3.262   0.926   3.501  0.4874  0.0223 -0.0338
12271TIP3    H158228   3.303   0.962   3.422  0.2196  0.1557 -0.1153
12271TIP3    H258229   3.270   0.831   3.491  0.8858  0.0503  0.0120
12272TIP3   OH258230   5.147   1.790   5.837  0.5387  0.8852 -0.4543
12272TIP3    H158231   5.088   1.723   5.871  0.9518  0.6886 -0.1250
12272TIP3    H258232   5.140   1.862   5.900  0.4033  0.9969 -0.5934
12273TIP3   OH258233   5.177   5.206  11.240 -0.0016 -0.3498  0.1827
12273TIP3    H158234   5.254   5.239  11.286  0.0362 -0.8104  0.4617
12273TIP3    H258235   5.165   5.117  11.274  0.2936 -0.8778 -1.0143
12274TIP3   OH258236   2.673   4.284   5.906 -0.1927 -0.2005  0.2767
12274TIP3    H158237   2.741   4.272   5.972 -2.2253 -0.5813  2.4307
12274TIP3    H258238   2.605   4.335   5.951 -1.8199 -0.7711 -1.4153
12275TIP3   OH258239   3.226   3.045  13.483 -0.1016  0.3665  0.1416
12275TIP3    H158240   3.315   3.081  13.476 -0.3883  1.0075 -0.3621
12275TIP3    H258241   3.237   2.961  13.527  0.9640 -0.3145 -1.3412
12276TIP3   OH258242   6.215   1.117  16.360  0.2663  0.0503  0.0663
12276TIP3    H158243   6.240   1.098  16.270  1.7739 -2.2845  0.8944
12276TIP3    H258244   6.154   1.047  16.383 -1.2934  1.4665  0.4571
12277TIP3   OH258245   5.243   3.185  12.610 -0.9507  0.4824 -0.3946
12277TIP3    H158246   5.266   3.244  12.539  1.4018  0.2695  0.1108
12277TIP3    H258247   5.255   3.097  12.574  0.0831  0.3723  0.1898
12278TIP3   OH258248   1.878   5.594   2.616  0.3492 -0.5859  0.5020
12278TIP3    H158249   1.872   5.683   2.651  1.1921 -0.3983  0.2002
12278TIP3    H258250   1.960   5.560   2.651  1.5766 -0.1439 -1.7801
12279TIP3   OH258251   6.246   4.077  12.096 -0.1901  0.2958 -0.0979
12279TIP3    H158252   6.166   4.127  12.112 -0.9604 -0.8054 -0.3806
12279TIP3    H258253   6.290   4.075  12.180 -2.4420 -2.4533  1.1602
12280TIP3   OH258254   0.090   2.427  12.306 -0.7420  0.0343  0.1197
12280TIP3    H158255   0.152   2.496  12.282 -0.1767 -0.2682  0.6730
12280TIP3    H258256   0.050   2.400  12.223  0.2017 -0.0797 -0.3120
12281TIP3   OH258257   0.821   0.328   0.545  0.0319  0.8876  0.2736
12281TIP3    H158258   0.854   0.269   0.476 -1.0007  0.9132 -0.2580
12281TIP3    H258259   0.737   0.290   0.570  1.1467 -0.1152  2.7904
12282TIP3   OH258260   3.413   2.355   5.266 -0.1584 -0.1533 -0.8674
12282TIP3    H158261   3.460   2.434   5.294 -0.4773  0.1213 -1.1052
12282TIP3    H258262   3.346   2.341   5.334  1.2949 -1.4984  0.3849
12283TIP3   OH258263   0.315   0.567  11.773  0.4066  0.2288 -0.3870
12283TIP3    H158264   0.323   0.594  11.682 -0.5105 -0.4475 -0.6797
12283TIP3    H258265   0.270   0.640  11.816 -1.8146 -0.6547 -1.1156
12284TIP3   OH258266   2.293   0.613   4.484 -0.4527 -0.0757 -0.8202
12284TIP3    H158267   2.213   0.566   4.507  0.6152 -1.0009  1.3371
12284TIP3    H258268   2.315   0.582   4.396 -1.4451 -1.2592 -0.6838
12285TIP3   OH258269   6.685   1.861   5.839 -0.5264  0.7554 -0.7218
12285TIP3    H158270   6.710   1.953   5.846  0.0672  0.4810  1.3559
12285TIP3    H258271   6.654   1.837   5.926  0.5365 -1.3311 -0.8413
12286TIP3   OH258272   2.574   0.436   2.825 -0.2779  0.0506  0.4085
12286TIP3    H158273   2.648   0.443   2.886 -0.4481  2.3394  0.4170
12286TIP3    H258274   2.506   0.492   2.863 -1.0231  0.1504 -1.0074
12287TIP3   OH258275   2.927   1.376  12.279  0.6292  0.1399  0.7586
12287TIP3    H158276   2.880   1.364  12.361 -0.7643  0.6399  0.0687
12287TIP3    H258277   2.935   1.288  12.242 -0.1191  0.0827  0.7137
12288TIP3   OH258278   3.887   0.974  13.622  0.1336 -0.0590 -0.4834
12288TIP3    H158279   3.823   0.958  13.553 -2.1033 -1.5080  1.7185
12288TIP3    H258280   3.938   0.893  13.626  0.0452 -0.1063 -0.2700
12289TIP3   OH258281   1.718   6.290  10.159  0.3479 -0.1557  0.2203
12289TIP3    H158282   1.648   6.351  10.136  0.0592 -0.8816 -0.9728
12289TIP3    H258283   1.759   6.327  10.236 -0.2426  1.1855 -0.0892
12290TIP3   OH258284   5.047   0.799   3.453  0.3588 -0.2234 -0.4998
12290TIP3    H158285   5.024   0.881   3.409  0.5760 -0.1095 -0.4043
12290TIP3    H258286   5.084   0.744   3.384 -0.4544 -0.5142 -0.7121
12291TIP3   OH258287   3.380   1.249  11.047 -0.1246  0.3774 -0.1643
12291TIP3    H158288   3.427   1.194  10.984 -0.1052  0.2647 -0.0537
12291TIP3    H258289   3.313   1.294  10.996 -0.4826 -0.1497 -0.1642
12292TIP3   OH258290   4.452   6.755   2.818 -0.0288 -0.1049  0.4990
12292TIP3    H158291   4.430   6.726   2.729  1.0332  0.2890  0.0838
12292TIP3    H258292   4.526   6.699   2.844  0.3734  0.5029  0.6950
12293TIP3   OH258293   2.151   6.218   2.088 -0.1963 -0.1949  0.5201
12293TIP3    H158294   2.059   6.234   2.110 -0.2429  0.0377  0.1623
12293TIP3    H258295   2.190   6.188   2.170 -0.6750 -0.6647  0.5847
12294TIP3   OH258296   6.246   6.511   2.977 -0.0842 -0.2467  0.0756
12294TIP3    H158297   6.161   6.491   3.016 -0.1648 -0.0679 -0.0039
12294TIP3    H258298   6.276   6.589   3.024 -0.4631  0.3378 -0.6173
12295TIP3   OH258299   5.249   0.009  11.008 -0.0527  0.0998 -0.3483
12295TIP3    H158300   5.221  -0.083  11.009  0.2603 -0.0731  2.8834
12295TIP3    H258301   5.334   0.008  10.964  0.3951 -1.3398  0.4780
12296TIP3   OH258302   4.024   4.808   2.176 -0.2613 -0.3539  0.3309
12296TIP3    H158303   3.931   4.802   2.199 -0.1336 -2.7244  0.4565
12296TIP3    H258304   4.070   4.777   2.254  0.8155  2.3128  0.8890
12297TIP3   OH258305   6.545   1.864  11.529 -0.4005 -0.6432  0.3414
12297TIP3    H158306   6.493   1.809  11.587  2.2167 -3.4774  0.2509
12297TIP3    H258307   6.589   1.926  11.587  0.3886 -1.9234  1.1663
12298TIP3   OH258308   4.171   2.399  13.727  1.5313  0.2250 -0.1827
12298TIP3    H158309   4.101   2.465  13.731 -0.8201 -2.0619 -0.7896
12298TIP3    H258310   4.179   2.367  13.817 -0.2124 -1.3686 -0.5377
12299TIP3   OH258311   4.122   5.248   3.036  0.0064 -0.0114 -0.2382
12299TIP3    H158312   4.049   5.300   3.071  0.3091  0.2866 -0.0387
12299TIP3    H258313   4.088   5.210   2.956  0.0475  1.2240 -0.8708
12300TIP3   OH258314   0.512   0.312  16.261 -0.3714 -0.2320  0.2056
12300TIP3    H158315   0.421   0.340  16.272  0.0558  1.3695 -0.0533
12300TIP3    H258316   0.530   0.326  16.168  0.2592 -0.1100  0.3380
12301TIP3   OH258317   2.924   2.074   2.638 -0.2317  0.3487  0.4764
12301TIP3    H158318   2.953   2.004   2.579 -1.3573  0.7675 -0.6031
12301TIP3    H258319   2.829   2.079   2.625 -0.2187  1.8394  0.8114
12302TIP3   OH258320   3.661   1.052   2.853 -0.2402  0.4526  0.8211
12302TIP3    H158321   3.610   1.067   2.932  1.5055  1.4630  1.8286
12302TIP3    H258322   3.676   0.958   2.851 -1.6848  0.2006  0.7554
12303TIP3   OH258323   6.384   4.786   0.403  0.0635  0.3182  0.1172
12303TIP3    H158324   6.418   4.837   0.477 -0.8196 -1.0254  1.4935
12303TIP3    H258325   6.384   4.848   0.331 -1.8579  2.6357  1.9316
12304TIP3   OH258326   0.935   2.804   0.969 -0.1636  0.3467 -0.0467
12304TIP3    H158327   0.962   2.798   1.061 -0.0661 -0.7184 -0.1231
12304TIP3    H258328   0.957   2.893   0.942  2.3384 -0.1404  0.1845
12305TIP3   OH258329   4.826   0.506  11.675 -0.0341  0.5497  0.2912
12305TIP3    H158330   4.859   0.476  11.760 -1.7847  0.2299  0.8828
12305TIP3    H258331   4.738   0.537  11.693  0.1096  1.8857 -1.1590
12306TIP3   OH258332   1.049   4.915   4.903 -0.0770 -0.0312 -0.4069
12306TIP3    H158333   1.073   4.907   4.810  0.6892  0.7370 -0.2922
12306TIP3    H258334   1.030   5.008   4.914  3.3821  0.6533  0.9783
12307TIP3   OH258335   6.039   5.135  16.861 -0.5175 -0.2817  0.3036
12307TIP3    H158336   6.022   5.041  16.870  0.0556 -0.3921  0.2859
12307TIP3    H258337   6.128   5.146  16.896 -1.2982  0.5757  2.1670
12308TIP3   OH258338   3.333   1.921  12.931  0.2412 -0.6358 -0.2590
12308TIP3    H158339   3.266   1.854  12.927  1.4013 -1.8310 -0.4522
12308TIP3    H258340   3.414   1.873  12.950  1.3447  0.5209 -1.7846
12309TIP3   OH258341   0.511   6.344  14.641 -0.3408  0.2562 -0.4767
12309TIP3    H158342   0.584   6.347  14.703 -0.0231 -0.0311 -0.8311
12309TIP3    H258343   0.441   6.395  14.683  0.0513  0.5032 -0.1209
12310TIP3   OH258344   6.162   5.493  13.974 -0.5295  1.0899  0.4741
12310TIP3    H158345   6.187   5.546  13.898  1.0314  0.0856  0.2498
12310TIP3    H258346   6.151   5.405  13.940 -0.1380  0.6872  1.3624
12311TIP3   OH258347   5.691   5.676   1.385 -0.5160  0.2632  0.2630
12311TIP3    H158348   5.760   5.731   1.421 -1.3569  1.8243 -0.4208
12311TIP3    H258349   5.690   5.696   1.291 -0.1177 -1.7753 -0.2450
12312TIP3   OH258350   2.210   2.419  13.728  0.1189 -0.1274  0.4302
12312TIP3    H158351   2.196   2.503  13.684 -1.3320 -0.2074  0.6916
12312TIP3    H258352   2.200   2.353  13.659 -1.2432 -0.2006  0.6661
12313TIP3   OH258353   1.747   0.620   2.802 -0.3664  0.6662  0.2054
12313TIP3    H158354   1.802   0.590   2.874  1.7950  1.2115 -1.1364
12313TIP3    H258355   1.741   0.544   2.744 -2.2152  0.1854  0.9389
12314TIP3   OH258356   5.530   0.227  15.663 -0.0074  0.7010 -0.2707
12314TIP3    H158357   5.464   0.225  15.733 -0.6789  0.5851 -0.8899
12314TIP3    H258358   5.614   0.219  15.708 -0.4092  1.0489  0.5495
12315TIP3   OH258359   3.328   5.273  11.981  0.3453  0.4273 -0.3387
12315TIP3    H158360   3.354   5.341  12.042  1.6204  1.3132 -1.7963
12315TIP3    H258361   3.248   5.307  11.940 -0.1633  0.1032  0.3499
12316TIP3   OH258362   5.220   0.694  15.748 -0.2807  0.2417 -0.2232
12316TIP3    H158363   5.207   0.662  15.837  1.1437 -1.1730 -0.4743
12316TIP3    H258364   5.133   0.725  15.721 -1.1061 -0.8043  1.0765
12317TIP3   OH258365   1.620   3.937  12.102 -0.3998 -0.0553  0.2700
12317TIP3    H158366   1.559   4.001  12.066 -1.2333 -1.0622 -0.1875
12317TIP3    H258367   1.568   3.888  12.166 -0.0567 -0.8925 -0.0771
12318TIP3   OH258368   3.734   2.866   3.148 -0.0708 -0.0530  0.0781
12318TIP3    H158369   3.712   2.773   3.136  1.2572 -0.4889  0.7911
12318TIP3    H258370   3.649   2.910   3.153 -0.7312 -0.9734 -2.0117
12319TIP3   OH258371   4.873   3.408  14.213 -0.2833 -0.0950 -0.7321
12319TIP3    H158372   4.908   3.319  14.210 -0.3201 -0.0787 -1.8078
12319TIP3    H258373   4.871   3.429  14.307  1.0010 -0.7213 -0.5376
12320TIP3   OH258374   3.525   2.391  13.427 -0.2569  0.3010  0.5209
12320TIP3    H158375   3.468   2.315  13.417  1.8211 -1.4064  0.8442
12320TIP3    H258376   3.573   2.374  13.509  0.8510  1.5262  0.1582
12321TIP3   OH258377   5.628   0.308   4.370  0.1035 -0.8081 -0.0392
12321TIP3    H158378   5.612   0.240   4.435 -0.5672  0.8164  1.5895
12321TIP3    H258379   5.719   0.335   4.386  0.0413 -0.6280  0.0123
12322TIP3   OH258380   2.636   6.332  16.552 -0.3244 -0.0587 -0.2603
12322TIP3    H158381   2.661   6.295  16.467  0.7086  0.6731 -0.2886
12322TIP3    H258382   2.610   6.256  16.604  0.7977 -0.7162 -0.6426
12323TIP3   OH258383   1.691   2.526   1.111  1.1241 -0.2872  0.1539
12323TIP3    H158384   1.775   2.550   1.150  1.3574 -0.5310 -0.1890
12323TIP3    H258385   1.634   2.507   1.186  0.6417  2.1844  0.5000
12324TIP3   OH258386   3.819   3.172  11.057  0.0436  0.0065 -0.1089
12324TIP3    H158387   3.813   3.171  11.153 -1.2827  0.0651 -0.1727
12324TIP3    H258388   3.757   3.105  11.029  0.7136 -0.2909 -0.9317
12325TIP3   OH258389   0.995   0.525  16.017 -0.4207 -0.2617 -0.2203
12325TIP3    H158390   1.036   0.506  16.101 -1.7668 -0.8615  0.3315
12325TIP3    H258391   1.064   0.509  15.952 -0.1441 -2.5823  0.5523
12326TIP3   OH258392   4.239   4.375   1.628 -0.3264 -0.1345  0.3342
12326TIP3    H158393   4.155   4.338   1.602  0.2709 -1.0212 -0.3920
12326TIP3    H258394   4.299   4.300   1.631  0.2046  0.2951  1.9127
12327TIP3   OH258395   5.372   4.349  16.428 -0.2322  0.1629  0.0730
12327TIP3    H158396   5.295   4.295  16.412 -1.0444  1.4093 -0.3626
12327TIP3    H258397   5.441   4.308  16.375 -0.8578 -0.3733 -0.3440
12328TIP3   OH258398   1.562   4.958  14.397  0.3264 -0.1638 -0.2226
12328TIP3    H158399   1.634   4.961  14.461  0.5890  1.4102 -0.5304
12328TIP3    H258400   1.486   4.928  14.447  1.1969 -2.0029  0.0816
12329TIP3   OH258401   3.650   2.202  13.609 -0.1966 -0.2069  0.0413
12329TIP3    H158402   3.588   2.178  13.540  0.4003  0.4486 -0.7426
12329TIP3    H258403   3.731   2.157  13.586  0.9253  2.3540 -1.4313
12330TIP3   OH258404   3.912   2.568  14.367 -0.1970  0.3290 -0.1123
12330TIP3    H158405   3.847   2.505  14.336  0.5023 -0.1784 -0.5639
12330TIP3    H258406   3.987   2.515  14.393 -0.4835  0.7893  1.8084
12331TIP3   OH258407   4.775   4.171  16.251 -0.0461 -0.3891 -0.7887
12331TIP3    H158408   4.871   4.164  16.247  0.0489  0.0034  0.2833
12331TIP3    H258409   4.759   4.244  16.310 -1.0112 -0.6270 -0.7379
12332TIP3   OH258410   3.104   3.081   2.425  0.3977  0.7651 -0.3205
12332TIP3    H158411   3.048   3.039   2.360  1.9135 -0.7460 -0.7380
12332TIP3    H258412   3.176   3.018   2.438  1.0881  1.8583  1.4443
12333TIP3   OH258413   3.509   1.434  13.234 -0.3690 -0.6271  0.0635
12333TIP3    H158414   3.497   1.416  13.141  2.0872  1.5872 -0.7991
12333TIP3    H258415   3.578   1.500  13.237  0.9707 -1.9535  3.5632
12334TIP3   OH258416   6.723   3.378  11.392 -0.7546  0.6970  0.0196
12334TIP3    H158417   6.715   3.341  11.480  1.2868  0.6524  0.2265
12334TIP3    H258418   6.813   3.410  11.387 -1.0809  1.4842 -1.7695
12335TIP3   OH258419   4.131   6.529   5.429 -0.1007  0.4466  0.2144
12335TIP3    H158420   4.201   6.467   5.407 -1.3673 -1.6987  1.7700
12335TIP3    H258421   4.172   6.590   5.491  0.5421 -0.4664  0.7201
12336TIP3   OH258422   4.926   5.157  14.349  0.1676 -0.3522 -0.1443
12336TIP3    H158423   4.966   5.185  14.431 -0.5713 -0.6007  0.3122
12336TIP3    H258424   4.884   5.236  14.315  0.9762 -0.1027 -0.5998
12337TIP3   OH258425   6.060   4.680   1.846 -0.0290 -0.1902 -0.4912
12337TIP3    H158426   6.073   4.588   1.824 -0.8106 -0.6774  0.9772
12337TIP3    H258427   6.097   4.689   1.934 -0.6197  0.7277 -0.3291
12338TIP3   OH258428   2.949   3.240  15.376  0.2294  0.0547  0.2617
12338TIP3    H158429   2.911   3.153  15.377 -0.4855  0.2111 -3.0767
12338TIP3    H258430   3.027   3.233  15.432 -0.8726 -2.1124  1.6636
12339TIP3   OH258431   1.430   2.299  10.800 -0.5971 -0.0766 -0.2618
12339TIP3    H158432   1.424   2.392  10.778 -1.0499 -0.3194 -1.1951
12339TIP3    H258433   1.339   2.273  10.816 -0.6412 -0.7009 -1.4732
12340TIP3   OH258434   5.361   2.048  16.567  1.0128  0.0565  0.5270
12340TIP3    H158435   5.396   2.026  16.653  0.6313  0.4400  0.7860
12340TIP3    H258436   5.319   2.133  16.579  0.2317 -0.2677  0.1647
12341TIP3   OH258437   6.004   4.971  15.376  0.2308  0.8579  0.1940
12341TIP3    H158438   5.971   4.981  15.466 -0.8771 -0.2309 -0.0755
12341TIP3    H258439   6.082   4.917  15.385  1.1575  2.2320  0.6776
12342TIP3   OH258440   0.216   5.849  11.645 -0.1521  0.1131 -0.1754
12342TIP3    H158441   0.274   5.886  11.578  0.5823 -0.5315  0.0830
12342TIP3    H258442   0.194   5.762  11.612 -2.3915  0.9404 -1.0931
12343TIP3   OH258443   2.073   0.244   4.038 -0.0530 -0.3089  0.1317
12343TIP3    H158444   2.095   0.338   4.041  1.9826 -0.7576  2.2445
12343TIP3    H258445   1.985   0.242   4.000  0.1469  2.3864 -0.7235
12344TIP3   OH258446   5.581   6.634  13.712  0.5784  0.0865  0.1059
12344TIP3    H158447   5.598   6.674  13.627  1.1093 -1.4583 -0.5670
12344TIP3    H258448   5.486   6.638  13.723  0.6457  1.7940  0.2336
12345TIP3   OH258449   0.591   0.713   0.812  0.0776 -0.1274 -0.0217
12345TIP3    H158450   0.594   0.701   0.907 -0.7421 -1.4784 -0.1523
12345TIP3    H258451   0.659   0.655   0.779 -0.5312 -0.6615 -0.3438
12346TIP3   OH258452   2.212   4.741   4.814  0.3914  0.2725  0.0012
12346TIP3    H158453   2.176   4.829   4.807 -0.4925  0.1833  2.3776
12346TIP3    H258454   2.296   4.745   4.769  0.4129  2.3502  0.1278
12347TIP3   OH258455   3.378   4.751  12.836 -0.0682  0.2337 -0.1327
12347TIP3    H158456   3.372   4.672  12.782 -0.7652 -1.0140  1.6844
12347TIP3    H258457   3.320   4.735  12.910  1.8057  1.2911  1.6929
12348TIP3   OH258458   2.015   5.022   2.210 -0.4431  0.0612  0.4138
12348TIP3    H158459   2.025   4.977   2.294 -1.5081 -0.1746  0.4300
12348TIP3    H258460   1.976   5.107   2.232  0.2182  0.4090  0.2491
12349TIP3   OH258461   2.235   6.045  10.970 -0.0141 -0.0774  0.8028
12349TIP3    H158462   2.313   6.069  10.921  0.1807 -2.5177 -0.2220
12349TIP3    H258463   2.162   6.071  10.914 -0.0289  2.4949  1.9008
12350TIP3   OH258464   6.646   0.738   5.713 -0.3525 -0.3184  0.2043
12350TIP3    H158465   6.625   0.706   5.800  0.4618 -0.1415  0.4783
12350TIP3    H258466   6.739   0.718   5.702 -0.8263 -1.9671 -1.3282
12351TIP3   OH258467   4.143   3.852  13.357 -0.1573  0.1586 -0.1596
12351TIP3    H158468   4.089   3.923  13.322  0.8113  1.4841  0.9160
12351TIP3    H258469   4.081   3.784  13.383 -1.1003  0.5348 -1.3493
12352TIP3   OH258470   3.180   0.628  15.391  0.6965 -0.0679  0.2563
12352TIP3    H158471   3.246   0.572  15.350  1.3374  0.9108 -0.0775
12352TIP3    H258472   3.096   0.593  15.359  1.0869 -0.7550 -0.0367
12353TIP3   OH258473   5.745   6.348  13.059 -0.8106  0.1443  0.1385
12353TIP3    H158474   5.802   6.386  12.993  0.4563 -1.5422  0.1816
12353TIP3    H258475   5.801   6.288  13.107 -2.1797 -0.1371  1.4718
12354TIP3   OH258476   5.552   3.240  12.208 -0.3600  0.0868 -0.1212
12354TIP3    H158477   5.492   3.168  12.229 -1.1680  0.4577 -1.0909
12354TIP3    H258478   5.507   3.290  12.140  1.2922  0.0684 -1.2944
12355TIP3   OH258479   2.505   6.334  16.951 -0.0452 -0.0005  0.5118
12355TIP3    H158480   2.479   6.421  16.920 -3.5949 -1.8864 -2.7259
12355TIP3    H258481   2.524   6.284  16.871  3.1111 -2.0035  2.2974
12356TIP3   OH258482   3.441   1.130   3.039  0.4383 -0.0651  0.2591
12356TIP3    H158483   3.354   1.157   3.010  1.2841  0.3372 -2.0871
12356TIP3    H258484   3.486   1.211   3.062  1.3664  0.1781 -2.1279
12357TIP3   OH258485   6.108   1.348   3.569  0.0772 -0.2612 -0.3784
12357TIP3    H158486   6.120   1.254   3.575  0.6282 -0.1672  0.0479
12357TIP3    H258487   6.182   1.385   3.617 -1.1421  0.3619  1.1299
12358TIP3   OH258488   5.212   5.260  16.755  0.1157  0.2261 -0.0378
12358TIP3    H158489   5.223   5.279  16.662 -0.4394 -0.3211 -0.2183
12358TIP3    H258490   5.290   5.209  16.779  0.4001  0.6117 -0.1244
12359TIP3   OH258491   2.551   4.616  12.491 -0.2604  0.5355 -0.4952
12359TIP3    H158492   2.561   4.528  12.528  0.4547  0.4925 -0.7727
12359TIP3    H258493   2.538   4.600  12.397  0.3773  0.7379 -0.6247
12360TIP3   OH258494   2.391   6.422  11.094 -0.2778  0.0687 -0.0675
12360TIP3    H158495   2.466   6.378  11.053 -0.0152 -1.1055  1.5582
12360TIP3    H258496   2.342   6.459  11.021  0.6592 -1.1035 -1.3562
12361TIP3   OH258497   6.249   2.213   2.994  0.7910  0.0820 -0.7491
12361TIP3    H158498   6.240   2.286   2.933  0.0081  0.0635 -0.6608
12361TIP3    H258499   6.262   2.136   2.939 -2.3015 -0.3374 -1.0642
12362TIP3   OH258500   2.282   3.211  11.365 -0.4686 -0.1837  0.4995
12362TIP3    H158501   2.316   3.145  11.425 -0.5644 -1.2901 -0.6097
12362TIP3    H258502   2.303   3.294  11.406 -1.7085 -0.8695  2.7372
12363TIP3   OH258503   2.125   6.235   5.035  0.0211  0.0731  0.3106
12363TIP3    H158504   2.107   6.254   4.943  0.4117  1.4500  0.4946
12363TIP3    H258505   2.086   6.309   5.082  1.3105  0.2533  1.1227
12364TIP3   OH258506   0.478   6.147   3.739  0.2727  0.2991  0.5812
12364TIP3    H158507   0.486   6.239   3.717  1.2920  0.0483 -0.1663
12364TIP3    H258508   0.462   6.146   3.833 -0.5731  1.2554  0.4611
12365TIP3   OH258509   3.523   1.893  11.122 -0.5599 -0.5706  0.6222
12365TIP3    H158510   3.432   1.916  11.140 -0.3594 -0.1227  1.1076
12365TIP3    H258511   3.531   1.899  11.027 -0.7599  0.5226  0.6538
12366TIP3   OH258512   5.770   2.356   4.221 -0.3048 -0.3430 -0.2704
12366TIP3    H158513   5.854   2.372   4.264  1.2359 -0.1592 -3.0478
12366TIP3    H258514   5.742   2.271   4.253  0.1541  0.2295  1.8037
12367TIP3   OH258515   1.731   5.292  12.810 -0.3109 -0.1231 -0.1934
12367TIP3    H158516   1.798   5.264  12.747  0.1430 -0.7197  0.5279
12367TIP3    H258517   1.661   5.228  12.802  1.0471 -2.0635  1.9803
12368TIP3   OH258518   4.095   3.709  15.978 -0.4949  0.1087 -0.0533
12368TIP3    H158519   4.054   3.666  16.054  0.2450 -0.5152  0.0091
12368TIP3    H258520   4.057   3.797  15.977 -1.0271 -0.0990  0.6365
12369TIP3   OH258521   2.624   4.486  13.962  0.0231 -0.2511  0.2138
12369TIP3    H158522   2.572   4.483  14.042  1.4202  3.4148  1.4736
12369TIP3    H258523   2.714   4.498  13.992  0.8083 -0.2421 -1.9369
12370TIP3   OH258524   1.396   5.556   1.768  0.4413  0.1632  0.7032
12370TIP3    H158525   1.401   5.524   1.858 -0.4035  0.0947  0.7298
12370TIP3    H258526   1.380   5.650   1.777  1.4547  0.3535  0.6203
12371TIP3   OH258527   1.240   5.315   0.997  0.1500 -0.4689 -0.0905
12371TIP3    H158528   1.313   5.301   1.058  0.5412 -0.6150 -0.5827
12371TIP3    H258529   1.162   5.295   1.049  0.3013  1.6319  1.0311
12372TIP3   OH258530   1.913   4.656  17.149  0.3693 -0.8440  0.1637
12372TIP3    H158531   1.906   4.643  17.243  0.2367  0.1044  0.2950
12372TIP3    H258532   2.006   4.648  17.130  0.3806 -1.1708  0.3476
12373TIP3   OH258533   1.927   5.955  15.561 -0.0497  0.6379  0.5625
12373TIP3    H158534   1.936   5.865  15.530  0.1435  0.7749  0.2098
12373TIP3    H258535   2.001   5.968  15.619  0.8101  1.0583 -0.5995
12374TIP3   OH258536   5.587   6.702   3.051 -0.0257  0.1337  0.5838
12374TIP3    H158537   5.525   6.633   3.073 -0.6370  0.3680 -0.3391
12374TIP3    H258538   5.559   6.778   3.103  0.2875 -0.1408  1.1536
12375TIP3   OH258539   2.937   5.242  15.644 -0.1361 -0.2256  0.0831
12375TIP3    H158540   2.901   5.171  15.591 -0.1985  0.5670 -0.9674
12375TIP3    H258541   2.971   5.305  15.580  0.4767  0.4008  1.0032
12376TIP3   OH258542   2.944   2.944   5.396  0.1633  0.4715  0.2428
12376TIP3    H158543   3.007   2.937   5.468  1.0597  1.2834 -0.4364
12376TIP3    H258544   2.973   2.876   5.334  1.6762  2.1494 -0.9994
12377TIP3   OH258545   0.907   3.863   0.252 -0.0540 -0.0334  0.2940
12377TIP3    H158546   0.947   3.922   0.316  2.5149 -0.5627 -0.6986
12377TIP3    H258547   0.898   3.915   0.173  2.8547 -0.9963 -0.7944
12378TIP3   OH258548   6.116   0.106  11.804  0.3806  0.0790 -0.1848
12378TIP3    H158549   6.033   0.141  11.771  0.1397  0.3957  0.7240
12378TIP3    H258550   6.096   0.077  11.893  0.9965 -0.8373 -0.3336
12379TIP3   OH258551   0.611   3.050   4.464 -0.2714 -0.3056  0.4028
12379TIP3    H158552   0.577   3.091   4.384  0.3362 -2.4201 -1.0126
12379TIP3    H258553   0.532   3.023   4.512 -0.6313  0.4394  0.2547
12380TIP3   OH258554   4.032   2.288  16.395  0.2906 -0.0884  0.3598
12380TIP3    H158555   3.967   2.335  16.448 -0.0077  0.1572 -0.2069
12380TIP3    H258556   4.034   2.200  16.432 -1.0080 -0.3507 -0.1363
12381TIP3   OH258557   3.760   1.426   2.131  0.0458 -0.3231 -0.4869
12381TIP3    H158558   3.769   1.394   2.220 -1.6266  0.8688  0.1609
12381TIP3    H258559   3.705   1.362   2.087  1.5602 -1.3604 -0.9663
12382TIP3   OH258560   2.080   1.046   4.487  0.3332  0.1857 -0.6144
12382TIP3    H158561   2.148   1.105   4.454  0.1861  1.5023  1.3140
12382TIP3    H258562   2.127   0.978   4.534  0.3966 -0.0815 -1.0558
12383TIP3   OH258563   6.114   3.060  16.104  0.8465  0.1843 -0.6211
12383TIP3    H158564   6.053   3.103  16.165  0.2437 -0.5355 -0.7120
12383TIP3    H258565   6.071   3.065  16.019  1.7055  1.2173 -1.0258
12384TIP3   OH258566   5.903   0.590   5.291 -0.0008 -0.8504 -0.3699
12384TIP3    H158567   5.811   0.598   5.265  0.1746  1.2797 -0.5826
12384TIP3    H258568   5.904   0.618   5.382  0.6607  1.1610 -0.9470
12385TIP3   OH258569   4.604   2.731  12.810 -0.3283 -0.1162 -0.0337
12385TIP3    H158570   4.644   2.668  12.870  0.2416  1.6089  1.4555
12385TIP3    H258571   4.550   2.677  12.752  0.3329 -1.9935  1.0177
12386TIP3   OH258572   6.208   2.207  12.989  0.4011 -0.1587  0.2091
12386TIP3    H158573   6.173   2.247  13.069 -0.6795 -0.2189 -0.2129
12386TIP3    H258574   6.144   2.229  12.922  0.2821 -1.7784 -0.2449
12387TIP3   OH258575   6.541   3.058  14.012 -0.5388 -0.2740 -0.0220
12387TIP3    H158576   6.573   2.972  14.039 -0.2726  0.1305  1.0110
12387TIP3    H258577   6.466   3.039  13.956  1.1576 -1.2366 -2.0901
12388TIP3   OH258578   0.591   6.101   2.752 -0.0171  0.5808 -0.1534
12388TIP3    H158579   0.506   6.060   2.766  0.4883 -0.2035  0.7090
12388TIP3    H258580   0.596   6.169   2.819  1.2980 -1.4391  1.9667
12389TIP3   OH258581   5.200   3.178   0.560 -0.6173  0.0815 -0.3165
12389TIP3    H158582   5.207   3.171   0.656  0.3493  2.9711 -0.0888
12389TIP3    H258583   5.256   3.108   0.527  1.1814  0.6539  1.2974
12390TIP3   OH258584   4.342   6.040  17.024 -0.1292 -0.4198  0.7947
12390TIP3    H158585   4.385   5.989  16.956  1.7004 -0.8088  2.1643
12390TIP3    H258586   4.290   6.104  16.977  0.7539 -0.9297 -0.9545
12391TIP3   OH258587   2.358   5.665   0.607 -0.0677 -0.8039 -0.1357
12391TIP3    H158588   2.408   5.603   0.555 -0.3641  1.2537 -3.1195
12391TIP3    H258589   2.421   5.735   0.627 -0.4399 -0.7167  0.7890
12392TIP3   OH258590   4.632   0.008  12.738  0.1669 -0.3127 -0.1690
12392TIP3    H158591   4.669  -0.028  12.658 -0.4340  0.4270 -0.7908
12392TIP3    H258592   4.545  -0.032  12.745  0.9427 -1.9314  1.2103
12393TIP3   OH258593   1.091   3.257  13.978  0.6549 -0.1694 -0.1616
12393TIP3    H158594   1.165   3.291  13.928  1.6131 -0.7421  0.8313
12393TIP3    H258595   1.106   3.288  14.068 -0.4627 -0.0586  0.0090
12394TIP3   OH258596   3.103   2.496   3.455 -0.3256  0.0319  0.0679
12394TIP3    H158597   3.053   2.424   3.416 -0.1156 -0.2270  0.2768
12394TIP3    H258598   3.099   2.566   3.389  0.9219 -0.7761 -0.9096
12395TIP3   OH258599   2.775   3.289  17.107 -0.6661  0.2032 -0.0452
12395TIP3    H158600   2.767   3.196  17.126 -0.3169  0.4630  1.5671
12395TIP3    H258601   2.823   3.294  17.024 -1.5811 -1.0455 -0.6753
12396TIP3   OH258602   6.535   5.637  16.264  0.2336 -0.0108  0.2908
12396TIP3    H158603   6.630   5.632  16.266  0.1589 -1.7701  0.9250
12396TIP3    H258604   6.506   5.546  16.266 -1.4470  0.3704 -2.0453
12397TIP3   OH258605   5.969   4.875  16.841 -0.2298  0.3170  0.2596
12397TIP3    H158606   5.925   4.809  16.893  0.3856  0.3250  0.8018
12397TIP3    H258607   5.961   4.844  16.751 -0.7973  0.0094  0.4102
12398TIP3   OH258608   2.911   6.010   1.300 -0.3303  0.5044  0.0583
12398TIP3    H158609   2.983   5.964   1.258 -0.4747  0.5677 -0.2601
12398TIP3    H258610   2.849   6.028   1.229 -0.8874  0.0159  0.4176
12399TIP3   OH258611   4.371   5.175  13.191 -0.0647 -0.1143  0.6642
12399TIP3    H158612   4.411   5.109  13.135 -1.1689  0.6454 -1.1238
12399TIP3    H258613   4.307   5.218  13.134 -0.6059  1.3138  2.2818
12400TIP3   OH258614   2.189   3.852   4.787  0.3276  0.5251 -0.6473
12400TIP3    H158615   2.153   3.767   4.762 -2.5512  0.8573  1.8166
12400TIP3    H258616   2.191   3.850   4.882 -1.4053  3.7476 -0.4032
12401TIP3   OH258617   4.606   4.943   5.298  0.1188 -0.1497  0.4792
12401TIP3    H158618   4.638   4.934   5.208 -0.4701  0.4272  0.2012
12401TIP3    H258619   4.543   4.872   5.309 -2.3883  1.7177 -0.7483
12402TIP3   OH258620   4.937   4.754   5.372 -0.4775  0.0979  0.1152
12402TIP3    H158621   4.904   4.774   5.285  0.1101 -0.8151 -0.3276
12402TIP3    H258622   4.859   4.732   5.423 -0.5852 -2.9792 -1.1657
12403TIP3   OH258623   5.788   5.383   4.246  0.1175 -0.5047 -0.6053
12403TIP3    H158624   5.823   5.329   4.316  1.4201  2.0492  0.8589
12403TIP3    H258625   5.865   5.409   4.195  0.0107  2.3320  0.5386
12404TIP3   OH258626   0.506   5.159   3.119 -0.2633  1.1909  0.1579
12404TIP3    H158627   0.446   5.089   3.094 -1.1525  1.6627  0.9068
12404TIP3    H258628   0.526   5.204   3.037 -2.3403  2.1169  0.1031
12405TIP3   OH258629   4.738   5.342   3.014 -0.6303 -0.6187  0.1430
12405TIP3    H158630   4.798   5.300   3.077  0.0133 -2.6207 -1.6711
12405TIP3    H258631   4.784   5.421   2.987  0.1191 -0.9014  0.5472
12406TIP3   OH258632   5.247   6.475   4.886 -0.1641 -0.4443  0.4526
12406TIP3    H158633   5.162   6.519   4.881  0.5247  0.9168  0.2091
12406TIP3    H258634   5.233   6.390   4.846 -0.8647  0.6703 -1.8520
12407TIP3   OH258635   1.972   2.896  16.708 -0.2541 -0.0301 -0.2228
12407TIP3    H158636   2.017   2.834  16.650  2.0599 -1.0096  2.3640
12407TIP3    H258637   2.013   2.981  16.689  2.1228 -0.7241  1.3228
12408TIP3   OH258638   2.059   0.365   5.315  0.0003  0.0017 -0.9335
12408TIP3    H158639   2.102   0.287   5.279 -2.6901 -1.9180 -0.3062
12408TIP3    H258640   1.968   0.356   5.289 -0.7183  2.1506  0.5441
12409TIP3   OH258641   0.245   6.405  16.754  0.0196  0.0565  0.1354
12409TIP3    H158642   0.226   6.487  16.799 -1.3847 -1.4458  2.5231
12409TIP3    H258643   0.163   6.381  16.711  0.0833 -0.5906  0.3532
12410TIP3   OH258644   4.493   5.730  13.515 -0.3317 -0.0806  0.7587
12410TIP3    H158645   4.576   5.746  13.559  1.1373 -2.4271 -0.9289
12410TIP3    H258646   4.516   5.678  13.438 -3.4965 -1.7576  0.7791
12411TIP3   OH258647   3.116   1.007  13.829 -0.0138 -0.1728  0.2093
12411TIP3    H158648   3.128   1.040  13.918  0.5117  1.7016 -0.5280
12411TIP3    H258649   3.196   1.031  13.783 -0.8352  0.1021 -1.1273
12412TIP3   OH258650   5.831   4.580  13.574 -0.4125  0.0913 -0.4491
12412TIP3    H158651   5.804   4.672  13.565 -2.1499 -0.3043  0.2622
12412TIP3    H258652   5.920   4.584  13.609 -0.9726  1.5138  0.9211
12413TIP3   OH258653   4.005   5.905   4.201 -0.1288  0.1066 -0.2550
12413TIP3    H158654   4.062   5.835   4.167 -0.6279  0.1729 -1.2782
12413TIP3    H258655   3.939   5.916   4.133 -3.0967 -1.9093  2.0790
12414TIP3   OH258656   0.536   2.846  15.683  0.8610  0.6049 -0.8996
12414TIP3    H158657   0.574   2.824  15.599  0.5506 -0.0458 -0.8760
12414TIP3    H258658   0.525   2.762  15.728  3.0969  1.0794  0.7017
12415TIP3   OH258659   3.201   1.161   4.098 -0.3546  0.3562  0.1870
12415TIP3    H158660   3.144   1.129   4.168 -0.6895  0.5589  0.0127
12415TIP3    H258661   3.257   1.226   4.141 -0.4155  0.3258  0.3126
12416TIP3   OH258662   4.039   4.880   0.935 -0.4127  0.6316  0.2080
12416TIP3    H158663   3.969   4.858   0.997 -0.6198  0.7150  0.0085
12416TIP3    H258664   4.036   4.809   0.871  1.4422 -0.8179  1.6096
12417TIP3   OH258665   6.060   0.206   3.474  0.6260  1.3187 -0.7353
12417TIP3    H158666   6.032   0.280   3.528 -0.7149  0.3413 -0.0529
12417TIP3    H258667   6.062   0.131   3.534  0.8413  0.5555 -1.6631
12418TIP3   OH258668   3.101   3.126   1.988 -1.1107  0.1316 -0.3639
12418TIP3    H158669   3.032   3.126   2.055 -2.7142 -0.5068 -1.9257
12418TIP3    H258670   3.134   3.036   1.990 -1.1642  0.1103 -0.4253
12419TIP3   OH258671   5.433   3.348   4.548 -0.2211  0.5387  0.6526
12419TIP3    H158672   5.417   3.275   4.488 -0.1256 -0.8921  2.2790
12419TIP3    H258673   5.346   3.385   4.564 -0.2069  1.1410 -0.5906
12420TIP3   OH258674   5.126   2.288   3.093 -0.4091  0.0206  0.1602
12420TIP3    H158675   5.121   2.193   3.083  1.2844  0.0168 -0.9335
12420TIP3    H258676   5.062   2.322   3.030 -1.4711 -0.3771  0.9908
12421TIP3   OH258677   5.407   5.238   1.940 -0.1407 -0.4960 -0.2753
12421TIP3    H158678   5.416   5.157   1.991 -0.9752  0.5917  1.7230
12421TIP3    H258679   5.363   5.211   1.859 -1.4110 -1.8942  0.8172
12422TIP3   OH258680   2.116   4.626  11.048  0.3436  0.5569  0.2692
12422TIP3    H158681   2.042   4.669  11.006 -0.1256 -1.4028 -1.0303
12422TIP3    H258682   2.077   4.555  11.099  0.8882  2.7248  4.1370
12423TIP3   OH258683   3.787   6.662  16.012 -0.1144  0.0622  0.6931
12423TIP3    H158684   3.858   6.725  15.998 -0.7185  0.5073 -0.5036
12423TIP3    H258685   3.808   6.590  15.952 -0.2865 -0.1432  0.8796
12424TIP3   OH258686   2.730   3.301  14.007 -0.3604  0.3106  0.5839
12424TIP3    H158687   2.712   3.214  14.041  0.3222  0.9248  2.6438
12424TIP3    H258688   2.744   3.355  14.084  0.9003  1.8838 -0.6604
12425TIP3   OH258689   2.349   5.575  11.802 -0.4448  0.6263  0.1101
12425TIP3    H158690   2.358   5.635  11.728 -1.2693  0.1659 -0.3799
12425TIP3    H258691   2.322   5.631  11.875 -1.6869  0.8245 -0.4626
12426TIP3   OH258692   1.992   1.910   2.986  0.0731  0.3282 -0.2948
12426TIP3    H158693   1.922   1.951   3.037  0.4178 -0.7213  1.0894
12426TIP3    H258694   1.962   1.821   2.969  1.0409 -0.1440  0.3403
12427TIP3   OH258695   4.069   1.876   0.357 -0.7896 -0.6618  0.1952
12427TIP3    H158696   4.162   1.867   0.375 -0.7528  0.8519  0.8769
12427TIP3    H258697   4.065   1.913   0.269 -0.7918 -1.5058 -0.1735
12428TIP3   OH258698   2.100   0.969  12.966  0.6176 -0.2044 -0.2621
12428TIP3    H158699   2.121   0.887  12.921  0.0852 -2.0127  2.5193
12428TIP3    H258700   2.156   0.968  13.044 -1.4038  0.6763  1.2784
12429TIP3   OH258701   4.571   4.049   3.448  0.3911  0.0132  0.2873
12429TIP3    H158702   4.645   4.074   3.394 -0.2059  1.1301 -0.0598
12429TIP3    H258703   4.507   4.012   3.387 -0.6189  2.0332  0.0384
12430TIP3   OH258704   1.687   5.480   5.167  0.1927 -0.8996  0.0681
12430TIP3    H158705   1.624   5.417   5.134  0.3805 -2.2643  2.1112
12430TIP3    H258706   1.674   5.481   5.262  2.0159  0.1263  0.3754
12431TIP3   OH258707   3.869   2.042   0.479 -0.4480 -0.0298 -0.4347
12431TIP3    H158708   3.886   2.119   0.425  0.6753 -0.4066 -0.6376
12431TIP3    H258709   3.935   1.978   0.452  0.7146  0.0577  1.9542
12432TIP3   OH258710   5.116   6.182   3.297 -0.0650  0.6516 -0.5419
12432TIP3    H158711   5.049   6.183   3.229 -2.4325  1.0745  1.6489
12432TIP3    H258712   5.101   6.101   3.346 -1.5093  2.4000  2.2036
12433TIP3   OH258713   5.560   6.371   0.597  0.4102 -0.0635 -0.0538
12433TIP3    H158714   5.484   6.341   0.547 -0.0988  1.5656 -0.3461
12433TIP3    H258715   5.572   6.305   0.666 -0.7585 -0.7728 -0.5036
12434TIP3   OH258716   3.447   4.073   1.103 -0.5576  0.3755  0.5667
12434TIP3    H158717   3.362   4.073   1.148 -0.9514  0.8983 -0.1416
12434TIP3    H258718   3.467   4.165   1.089 -0.4111  0.2289 -0.2475
12435TIP3   OH258719   5.575   4.235  16.288 -0.1283 -0.1009 -0.6187
12435TIP3    H158720   5.648   4.188  16.328  0.6094 -0.3127 -2.1688
12435TIP3    H258721   5.532   4.170  16.232 -0.1253  0.6035 -1.4595
12436TIP3   OH258722   5.650   5.343   3.823  0.2604 -0.5214 -0.3274
12436TIP3    H158723   5.627   5.293   3.902 -0.5423 -0.0251 -0.2418
12436TIP3    H258724   5.576   5.330   3.765 -1.2732  2.7241  0.7070
12437TIP3   OH258725   4.284   0.793   2.984 -0.0074 -0.2306 -0.5038
12437TIP3    H158726   4.361   0.759   3.029 -0.5409  0.5765  1.0975
12437TIP3    H258727   4.296   0.888   2.983  0.7273 -0.2435 -3.5493
12438TIP3   OH258728   5.332   3.376  16.933  0.2475  0.4685  0.3945
12438TIP3    H158729   5.374   3.366  16.848  0.7782 -1.8165  0.8436
12438TIP3    H258730   5.386   3.440  16.979  1.7449 -0.4676  0.0331
12439TIP3   OH258731   0.866   0.953   1.133 -0.2307  0.4006  0.2927
12439TIP3    H158732   0.942   1.008   1.154  0.7052 -0.6302 -0.3114
12439TIP3    H258733   0.864   0.951   1.037  0.6161 -1.7522  0.2703
12440TIP3   OH258734   0.170   5.447  11.923 -0.6937  0.0701 -0.4314
12440TIP3    H158735   0.101   5.475  11.863 -1.0998 -0.4966 -0.2291
12440TIP3    H258736   0.165   5.352  11.923 -0.5586  0.0564  0.3373
12441TIP3   OH258737   6.357   5.134   0.356 -0.2773 -0.3832 -0.3063
12441TIP3    H158738   6.417   5.108   0.286  0.1762 -1.6528  0.5285
12441TIP3    H258739   6.396   5.099   0.436 -2.1700 -1.3766  0.2536
12442TIP3   OH258740   3.765   6.277  14.498  0.0967  0.1017 -0.3470
12442TIP3    H158741   3.812   6.213  14.551 -3.1036 -0.0797  2.6326
12442TIP3    H258742   3.721   6.225  14.432  2.0475  0.0265 -1.6755
12443TIP3   OH258743   5.424   0.350   5.246  0.3738 -0.4609  0.1368
12443TIP3    H158744   5.478   0.296   5.304 -0.4821 -1.3220  0.1695
12443TIP3    H258745   5.355   0.290   5.217 -1.5477  1.0438  1.4080
12444TIP3   OH258746   5.055   1.792   3.309  0.4805 -0.6740 -0.1134
12444TIP3    H158747   5.133   1.742   3.285  0.2714 -1.9548  1.7113
12444TIP3    H258748   4.985   1.754   3.256  0.7785 -0.5671 -0.5995
12445TIP3   OH258749   5.994   4.062  11.696  0.0172 -0.0583 -0.1258
12445TIP3    H158750   5.960   4.147  11.669  0.3695 -0.3185 -1.4427
12445TIP3    H258751   6.089   4.073  11.698 -0.0002  0.4496  2.8029
12446TIP3   OH258752   1.935   1.301  15.510  0.1777  0.4160 -0.3608
12446TIP3    H158753   1.909   1.351  15.432 -1.0398  1.7293  0.8302
12446TIP3    H258754   1.940   1.367  15.580  1.2798 -0.7203  0.6872
12447TIP3   OH258755   0.506   4.716  15.099 -0.1040  0.3409  0.1061
12447TIP3    H158756   0.508   4.779  15.027  1.3653 -1.5336 -1.5991
12447TIP3    H258757   0.570   4.750  15.162 -0.0022  1.0090 -0.3445
12448TIP3   OH258758   5.148   2.032   5.022 -0.0563 -0.4858 -0.0678
12448TIP3    H158759   5.119   2.122   5.007  1.1121  0.0056  0.4256
12448TIP3    H258760   5.193   2.007   4.941  0.3587 -0.3025  0.1009
12449TIP3   OH258761   4.626   0.970  12.122 -0.3194 -0.2620 -0.5361
12449TIP3    H158762   4.548   0.930  12.159  1.3415 -1.4910  1.9536
12449TIP3    H258763   4.697   0.908  12.143  1.6483  1.8103 -0.6603
12450TIP3   OH258764   6.205   1.975  13.865 -0.1448  0.1922 -0.2425
12450TIP3    H158765   6.140   2.041  13.886  0.8449  1.7166 -1.7909
12450TIP3    H258766   6.182   1.944  13.778  0.9563  0.4726 -0.6470
12451TIP3   OH258767   0.206   3.247  13.975  0.4421 -0.8199  0.3555
12451TIP3    H158768   0.222   3.341  13.962  0.5978 -0.9600 -0.5439
12451TIP3    H258769   0.123   3.230  13.929 -0.0672 -0.9432  1.3108
12452TIP3   OH258770   6.764   5.776  12.988 -0.2870 -0.1454 -0.3416
12452TIP3    H158771   6.854   5.754  12.962 -0.4768  0.8166 -1.9493
12452TIP3    H258772   6.766   5.778  13.084  1.9684  2.0725 -0.3366
12453TIP3   OH258773   3.673   5.121   5.514  0.2850 -0.3036 -0.3471
12453TIP3    H158774   3.621   5.057   5.465  1.3700 -1.7948  0.4025
12453TIP3    H258775   3.764   5.096   5.499  0.7403  1.0328  0.0246
12454TIP3   OH258776   5.941   2.041   1.627  0.2137 -0.3401  0.3636
12454TIP3    H158777   5.979   2.006   1.708  0.3924  1.0308  0.9001
12454TIP3    H258778   5.850   2.059   1.649  0.6039  1.3568  0.7287
12455TIP3   OH258779   1.442   4.521   0.744  0.2137  0.0247  0.4621
12455TIP3    H158780   1.533   4.491   0.742  0.8231  1.7869  0.1501
12455TIP3    H258781   1.441   4.598   0.687 -1.5063 -0.0352  0.3825
12456TIP3   OH258782   6.288   4.932   4.951 -0.1483 -0.1834 -0.1337
12456TIP3    H158783   6.331   4.897   5.029  1.7567 -1.4020 -1.6482
12456TIP3    H258784   6.202   4.889   4.951 -0.2003 -0.1374  1.2835
12457TIP3   OH258785   0.839   0.452   0.811 -0.1628 -0.2731 -0.3942
12457TIP3    H158786   0.865   0.414   0.727  1.7841  0.2249 -0.0678
12457TIP3    H258787   0.850   0.546   0.800  0.9261 -0.2482  0.6378
12458TIP3   OH258788   4.060   1.385   1.176 -0.5573  0.1196 -0.6409
12458TIP3    H158789   4.111   1.361   1.099 -0.8114  0.0378 -0.7853
12458TIP3    H258790   3.971   1.397   1.143 -0.7696 -0.4161 -0.2814
12459TIP3   OH258791   4.548   0.615  15.775 -0.8895  0.0727  0.1028
12459TIP3    H158792   4.523   0.584  15.861 -1.1764 -0.8400 -0.2982
12459TIP3    H258793   4.643   0.606  15.773 -1.0405 -1.7070 -0.3364
12460TIP3   OH258794   1.625   2.311   3.595  0.3087 -0.5310  0.0161
12460TIP3    H158795   1.570   2.373   3.548 -0.4813 -0.2447  1.2615
12460TIP3    H258796   1.649   2.357   3.675  1.0450 -1.2504  0.2186
12461TIP3   OH258797   0.929   2.592   4.160  0.3685 -0.4490 -0.4765
12461TIP3    H158798   0.993   2.540   4.111 -0.4336 -0.4801 -1.5268
12461TIP3    H258799   0.980   2.664   4.197  1.3365 -1.4667  0.2603
12462TIP3   OH258800   5.620   6.469   4.555 -0.1099  0.0287  0.0937
12462TIP3    H158801   5.575   6.387   4.573  0.3490 -0.0111  1.0853
12462TIP3    H258802   5.577   6.533   4.612 -1.4515  0.8238 -1.7047
12463TIP3   OH258803   5.327   2.278   0.831 -0.2162  0.0863 -0.1887
12463TIP3    H158804   5.341   2.271   0.737  0.7277 -0.2440 -0.0262
12463TIP3    H258805   5.333   2.372   0.848 -1.6429  0.2891 -0.6299
12464TIP3   OH258806   6.459   2.073  14.353 -0.1574 -0.3362 -0.4849
12464TIP3    H158807   6.371   2.109  14.358 -0.5600 -1.2769 -0.6508
12464TIP3    H258808   6.451   1.984  14.387  0.1890 -1.3798 -2.9481
12465TIP3   OH258809   5.125   3.765  11.512 -0.4356 -0.4450 -0.1931
12465TIP3    H158810   5.182   3.781  11.587 -2.3444  1.2290  1.0134
12465TIP3    H258811   5.037   3.761  11.549 -1.2602 -1.7063 -2.1198
12466TIP3   OH258812   5.379   0.439  12.263  0.3156  0.3319  0.5917
12466TIP3    H158813   5.335   0.524  12.274  0.0048  0.3741 -0.7614
12466TIP3    H258814   5.460   0.460  12.216  0.4601 -0.0617  0.6642
12467TIP3   OH258815   2.839   1.354   1.186 -0.3414  0.2499  0.4620
12467TIP3    H158816   2.846   1.335   1.280 -1.2215 -0.8451  0.3297
12467TIP3    H258817   2.891   1.285   1.145  1.6103  1.8011  0.1811
12468TIP3   OH258818   5.404   6.764  16.942 -0.3573 -0.0255 -0.6570
12468TIP3    H158819   5.336   6.701  16.961 -0.4063  0.2403  0.0834
12468TIP3    H258820   5.440   6.788  17.028 -0.2815  0.8748 -0.9226
12469TIP3   OH258821   4.363   6.557   5.631  0.8046  0.2825 -0.0856
12469TIP3    H158822   4.391   6.648   5.626 -0.9967  0.8206 -1.1905
12469TIP3    H258823   4.301   6.555   5.703  1.1551 -0.1639  0.2054
12470TIP3   OH258824   6.425   5.195  15.613  0.0851 -0.0545 -0.4361
12470TIP3    H158825   6.344   5.154  15.644  0.4386 -0.5746 -0.1789
12470TIP3    H258826   6.430   5.278  15.660  0.1764 -0.4494  0.2775
12471TIP3   OH258827   5.556   1.865   1.111  0.0029 -0.2929  0.5775
12471TIP3    H158828   5.548   1.960   1.101 -1.1879 -0.2473  1.7757
12471TIP3    H258829   5.539   1.848   1.204 -0.1192 -1.7156  0.3272
12472TIP3   OH258830   3.758   2.448   2.065  0.6725  0.2490 -0.2274
12472TIP3    H158831   3.849   2.455   2.036  1.1672  0.2072  1.2276
12472TIP3    H258832   3.746   2.355   2.084  0.1246  0.1558 -0.9708
12473TIP3   OH258833   1.932   6.554   3.538  0.2799  0.9433 -0.7260
12473TIP3    H158834   1.882   6.624   3.581  3.4674  2.0773  1.5575
12473TIP3    H258835   1.998   6.600   3.486  0.3734 -0.4487 -1.8980
12474TIP3   OH258836   4.008   4.562   3.719 -0.5826  0.4977  0.1401
12474TIP3    H158837   4.060   4.604   3.651 -0.4193 -0.3211 -0.2428
12474TIP3    H258838   3.918   4.568   3.687 -0.6593  1.2953  0.4803
12475TIP3   OH258839   1.512   2.703  13.491  0.1409  0.4488  0.1496
12475TIP3    H158840   1.564   2.652  13.552  1.8631  0.3044 -1.3633
12475TIP3    H258841   1.492   2.785  13.537  1.2913  0.2896  0.9428
12476TIP3   OH258842   4.756   1.991   1.080 -0.0633 -0.5532 -0.1030
12476TIP3    H158843   4.696   1.949   1.019 -0.7050 -0.7118  0.6268
12476TIP3    H258844   4.702   2.054   1.128  0.3844 -0.5800  0.4490
12477TIP3   OH258845   3.668   3.950  14.882 -0.4189  0.0389  0.4708
12477TIP3    H158846   3.636   4.040  14.876 -0.3429  0.0226 -0.2438
12477TIP3    H258847   3.763   3.958  14.872 -0.5295 -0.2386 -1.0547
12478TIP3   OH258848   0.431   4.295  12.276 -0.4264  0.1239 -0.3430
12478TIP3    H158849   0.392   4.215  12.241 -0.6522 -0.1362  0.4651
12478TIP3    H258850   0.363   4.331  12.334  0.2456  0.0567  0.5155
12479TIP3   OH258851   5.656   5.103   4.932  0.4400 -0.1364  0.2460
12479TIP3    H158852   5.740   5.130   4.969  0.1055 -0.1164  1.0085
12479TIP3    H258853   5.602   5.182   4.935  0.2221 -0.2861  0.2524
12480TIP3   OH258854   5.791   3.824  14.297 -0.3651  0.0511  0.0947
12480TIP3    H158855   5.785   3.919  14.288  0.8004  0.0021 -1.6809
12480TIP3    H258856   5.867   3.810  14.354  0.9938  0.2090 -1.5781
12481TIP3   OH258857   5.125   5.951  11.664 -0.2216  0.0392 -0.3352
12481TIP3    H158858   5.063   5.937  11.735  0.6347 -0.1486  0.3916
12481TIP3    H258859   5.100   6.036  11.626  0.0947  0.7608  1.0252
12482TIP3   OH258860   4.387   0.831  17.054  0.6172 -0.4616  0.0169
12482TIP3    H158861   4.455   0.899  17.054 -0.2701  0.4582  0.1298
12482TIP3    H258862   4.378   0.806  17.146 -1.4809  1.8555  0.5717
12483TIP3   OH258863   4.642   0.688   4.404 -0.1275 -0.6459  0.2399
12483TIP3    H158864   4.693   0.766   4.383 -1.3936 -0.1660 -1.2418
12483TIP3    H258865   4.581   0.717   4.472 -0.4572 -0.3908 -0.1612
12484TIP3   OH258866   1.271   4.244  16.706  0.2081  0.1598 -0.0345
12484TIP3    H158867   1.363   4.251  16.730  0.0271  0.3318  0.6541
12484TIP3    H258868   1.225   4.288  16.778 -0.3251  1.3385 -1.0711
12485TIP3   OH258869   3.885   0.793   0.653 -0.1997  0.2286  0.2265
12485TIP3    H158870   3.923   0.818   0.569  1.1739 -2.4969 -0.0724
12485TIP3    H258871   3.934   0.843   0.718  1.4591 -0.5113 -0.4029
12486TIP3   OH258872   3.685   2.813   3.858 -0.0899  0.6292 -0.0405
12486TIP3    H158873   3.758   2.821   3.797  0.7317 -0.5923  0.7375
12486TIP3    H258874   3.726   2.789   3.941 -1.2139  1.9384  0.9268
12487TIP3   OH258875   2.930   3.502   0.630  0.5305 -0.0141  0.1350
12487TIP3    H158876   2.930   3.597   0.638 -0.5985 -0.1720  2.5305
12487TIP3    H258877   2.918   3.486   0.536  0.0922  2.1771 -0.2258
12488TIP3   OH258878   2.652   3.512  14.383  0.5256  0.3761  0.0011
12488TIP3    H158879   2.648   3.425  14.344 -0.7894  0.7637 -0.7937
12488TIP3    H258880   2.561   3.534  14.401  1.0292  0.4408  2.8564
12489TIP3   OH258881   5.359   5.545  13.367 -0.8390 -0.1282  0.5240
12489TIP3    H158882   5.327   5.455  13.375  1.9432 -1.1231  1.4491
12489TIP3    H258883   5.391   5.567  13.455 -1.1638  1.6813  0.2376
12490TIP3   OH258884   4.587   6.443  11.234  0.2490 -0.3382 -0.7672
12490TIP3    H158885   4.628   6.490  11.161  1.9532 -0.8763 -0.1859
12490TIP3    H258886   4.500   6.420  11.201  1.0448 -0.7377 -2.7076
12491TIP3   OH258887   4.111   1.254  15.015 -0.8272 -0.2601  0.3785
12491TIP3    H158888   4.192   1.219  14.976 -0.6668  1.2774 -0.7502
12491TIP3    H258889   4.135   1.273  15.106 -0.4277 -1.3863  0.5345
12492TIP3   OH258890   6.058   3.705   2.139 -0.0215 -0.2874  0.4729
12492TIP3    H158891   6.069   3.668   2.227 -1.1930 -1.8015  0.0274
12492TIP3    H258892   6.006   3.640   2.092  0.2441  0.6745 -1.2380
12493TIP3   OH258893   3.407   5.413   1.844 -0.4002  0.0998 -0.5273
12493TIP3    H158894   3.374   5.329   1.877 -2.7716  1.3616  0.4916
12493TIP3    H258895   3.463   5.446   1.915 -0.8332  0.1559 -0.2096
12494TIP3   OH258896   5.798   2.317  13.525  0.0066 -0.1132  0.6185
12494TIP3    H158897   5.741   2.246  13.496  0.3995 -0.0924 -0.2331
12494TIP3    H258898   5.826   2.360  13.444  1.6622 -0.4619  0.9611
12495TIP3   OH258899   6.105   4.792  17.130 -0.1297  0.8603  0.0867
12495TIP3    H158900   6.088   4.698  17.138  1.1775  0.5215 -0.7571
12495TIP3    H258901   6.181   4.798  17.073 -1.5967  2.5475 -1.8251
12496TIP3   OH258902   0.722   2.584  13.185 -0.1667  0.1733 -0.7358
12496TIP3    H158903   0.637   2.628  13.182 -0.6904 -0.8006 -0.7789
12496TIP3    H258904   0.704   2.495  13.155  1.0095  0.1441 -1.4509
12497TIP3   OH258905   0.294   1.515   5.789 -0.5253  0.1621  0.5050
12497TIP3    H158906   0.218   1.558   5.829  0.0164  1.9992 -0.3606
12497TIP3    H258907   0.369   1.567   5.817  0.0436  0.4541 -1.4154
12498TIP3   OH258908   2.884   1.385  16.091 -0.4063  0.8960 -1.1793
12498TIP3    H158909   2.840   1.441  16.028  0.9788  0.4691 -2.5984
12498TIP3    H258910   2.968   1.364  16.051 -0.9588 -2.4882 -0.9409
12499TIP3   OH258911   0.351   1.171  15.908  0.2207  0.1602 -0.1035
12499TIP3    H158912   0.333   1.246  15.965 -0.6487 -0.3411  0.2907
12499TIP3    H258913   0.423   1.201  15.852  0.8408  0.7924  0.9941
12500TIP3   OH258914   5.878   0.746  13.698  0.0528  1.0066 -0.2536
12500TIP3    H158915   5.965   0.708  13.699 -0.6135 -0.6385 -1.4149
12500TIP3    H258916   5.847   0.739  13.789  0.9166  1.1256  0.0536
12501TIP3   OH258917   4.567   6.529  15.454 -0.4082 -0.1334 -0.4438
12501TIP3    H158918   4.652   6.537  15.498  0.5291  0.9391 -2.3204
12501TIP3    H258919   4.509   6.588  15.504  0.3386  0.2726 -0.0300
12502TIP3   OH258920   4.576   5.904  12.295 -0.5695 -0.1842 -0.2199
12502TIP3    H158921   4.543   5.920  12.383 -0.0109 -0.7619  0.1032
12502TIP3    H258922   4.595   5.810  12.293  1.0793  0.1246 -0.3553
12503TIP3   OH258923   5.679   6.738   1.473  0.1728 -0.2018 -0.1679
12503TIP3    H158924   5.756   6.790   1.451  0.2692 -0.2326  0.0876
12503TIP3    H258925   5.622   6.799   1.519 -0.1653 -0.0528 -0.7769
12504TIP3   OH258926   2.107   5.809  15.193  0.3317 -0.1139  0.5335
12504TIP3    H158927   2.164   5.736  15.172  0.2107  0.0455 -0.3898
12504TIP3    H258928   2.063   5.830  15.110 -0.3096  0.4138  0.9930
12505TIP3   OH258929   5.608   6.574  14.289 -0.4948  0.8747  0.3145
12505TIP3    H158930   5.536   6.544  14.233 -0.8590  0.5028  0.9783
12505TIP3    H258931   5.566   6.624  14.358 -0.1681  0.2160  1.0037
12506TIP3   OH258932   1.255   3.784   0.682  0.6449  0.4804 -0.4015
12506TIP3    H158933   1.268   3.879   0.688 -1.0764  0.6902  0.6072
12506TIP3    H258934   1.246   3.767   0.588  1.7872  1.1851 -0.6514
12507TIP3   OH258935   1.762   5.966   4.942 -0.5851 -0.1865 -0.0314
12507TIP3    H158936   1.837   5.933   4.892  0.0654 -0.5571  1.1390
12507TIP3    H258937   1.787   6.054   4.968 -1.3908  0.4359 -1.2674
12508TIP3   OH258938   0.671   3.067   6.447  0.5501 -0.1950  0.4483
12508TIP3    H158939   0.691   2.974   6.438  0.4313 -0.1723 -0.1080
12508TIP3    H258940   0.580   3.070   6.476  0.5495 -0.2553  0.4525
12509TIP3   OH258941   3.741   2.791  14.122 -0.6769 -0.0846 -0.3078
12509TIP3    H158942   3.780   2.721  14.070  1.6811  0.2261  0.9192
12509TIP3    H258943   3.742   2.759  14.212 -2.9527  0.1327 -0.1550
12510TIP3   OH258944   0.956   0.042  13.427 -0.1112 -0.0397 -0.2039
12510TIP3    H158945   1.026   0.026  13.490  1.1898  1.7173 -1.1247
12510TIP3    H258946   0.924   0.130  13.448 -0.9930 -0.2011 -0.8003
12511TIP3   OH258947   6.563   2.325  14.452  0.0743  0.0731 -0.1036
12511TIP3    H158948   6.547   2.250  14.395  0.9341  1.9780 -3.1550
12511TIP3    H258949   6.628   2.377  14.404  1.0773  1.7541  2.8325
12512TIP3   OH258950   5.244   3.441  13.518 -0.0384  0.2714 -0.0097
12512TIP3    H158951   5.185   3.435  13.592 -0.1146  1.1509  0.0098
12512TIP3    H258952   5.204   3.386  13.450 -1.5177  1.7761 -0.4162
12513TIP3   OH258953   1.094   2.266  14.821  0.2469 -0.4349  0.4711
12513TIP3    H158954   1.048   2.182  14.817  0.0941 -0.3270 -0.1024
12513TIP3    H258955   1.027   2.331  14.799  0.5922 -0.2465 -0.0412
12514TIP3   OH258956   2.670   3.494  12.374  0.6487  0.1699  0.2997
12514TIP3    H158957   2.598   3.531  12.425  0.2319 -0.7062  0.3742
12514TIP3    H258958   2.630   3.421  12.326  1.2078  0.4719 -0.6594
12515TIP3   OH258959   3.813   3.610  12.824 -0.0980  0.1986  0.1348
12515TIP3    H158960   3.806   3.611  12.728  1.6995 -2.2584 -0.1335
12515TIP3    H258961   3.864   3.688  12.845  1.2812 -0.3018 -1.1761
12516TIP3   OH258962   4.365   1.388   3.020 -0.4950 -0.2410 -0.2052
12516TIP3    H158963   4.345   1.438   2.941  0.5206  0.1611 -0.2233
12516TIP3    H258964   4.452   1.418   3.047 -0.9389 -0.1687  1.2387
12517TIP3   OH258965   1.948   0.217  17.091 -0.4539  0.4866 -0.3979
12517TIP3    H158966   1.971   0.187  17.179  0.7282  0.4328 -0.7113
12517TIP3    H258967   2.026   0.263  17.061 -0.7985  0.3734 -1.4795
12518TIP3   OH258968   3.332   4.772  14.713  0.6562  0.4309  0.0935
12518TIP3    H158969   3.271   4.761  14.640 -2.1039 -0.9596  2.3856
12518TIP3    H258970   3.364   4.861  14.704  0.5017  0.2949 -2.7874
12519TIP3   OH258971   5.249   2.502  17.192 -0.4717  0.1779 -0.3785
12519TIP3    H158972   5.161   2.529  17.217 -0.1522 -0.1818  1.3214
12519TIP3    H258973   5.306   2.573  17.223 -0.0106 -0.4940  0.3833
12520TIP3   OH258974   2.806   3.305   4.225 -0.2544  0.0992 -0.3957
12520TIP3    H158975   2.825   3.214   4.203  2.3206  0.3690  0.3820
12520TIP3    H258976   2.889   3.351   4.212 -1.1920  2.1338  0.2999
12521TIP3   OH258977   4.098   2.730  16.613 -0.0633  0.2596 -0.3280
12521TIP3    H158978   4.028   2.694  16.667  1.2420  2.2423  3.0202
12521TIP3    H258979   4.160   2.658  16.601 -1.4997 -0.8540 -1.3212
12522TIP3   OH258980   5.194   1.989   2.208  0.3423  0.0012 -0.6810
12522TIP3    H158981   5.136   2.031   2.144 -1.5927 -1.4285  0.0402
12522TIP3    H258982   5.186   2.044   2.286  0.1829 -0.0272 -0.6760
12523TIP3   OH258983   5.221   4.120   2.691  0.0926  0.0613  0.5780
12523TIP3    H158984   5.275   4.059   2.741 -0.9447 -0.4882  1.0803
12523TIP3    H258985   5.194   4.069   2.614  0.0743  0.2372  0.4686
12524TIP3   OH258986   3.762   2.582  12.314 -0.0050 -0.0368 -0.0302
12524TIP3    H158987   3.698   2.613  12.377  1.8299 -1.2801  2.6097
12524TIP3    H258988   3.783   2.660  12.262 -1.4373  1.0904  0.9884
12525TIP3   OH258989   3.383   1.787   5.974 -0.2191  0.2907 -0.3410
12525TIP3    H158990   3.389   1.881   5.989  1.0113  0.5799 -2.1856
12525TIP3    H258991   3.376   1.748   6.061 -0.6570  2.0767  0.4576
12526TIP3   OH258992   5.336   5.792   4.325  0.0549 -0.0276 -0.2734
12526TIP3    H158993   5.303   5.732   4.258  0.4263  0.0782 -0.5611
12526TIP3    H258994   5.259   5.816   4.376 -0.1677 -0.4227 -0.4143
12527TIP3   OH258995   6.692   0.251  15.883  0.4912  0.3301 -0.1766
12527TIP3    H158996   6.677   0.246  15.788  1.8561 -0.5118 -0.3693
12527TIP3    H258997   6.655   0.170  15.918  1.2067  0.0001 -0.1746
12528TIP3   OH258998   5.062   6.130   2.634 -0.0709  0.1658  0.4968
12528TIP3    H158999   5.083   6.128   2.540 -0.2157  0.1080  0.4646
12528TIP3    H259000   5.119   6.065   2.673 -0.0186  0.1809  0.4463
12529TIP3   OH259001   0.707   6.638   3.580  0.0045 -0.0423 -0.3036
12529TIP3    H159002   0.763   6.564   3.604 -2.9101 -1.9211  1.3121
12529TIP3    H259003   0.692   6.627   3.486  0.0918 -1.1827 -0.2012
12530TIP3   OH259004   3.298   5.938  15.798 -1.1454  0.5230 -0.6437
12530TIP3    H159005   3.224   5.935  15.737 -0.4683  1.6902 -1.5638
12530TIP3    H259006   3.298   6.028  15.832 -1.0201  0.1167  0.4858
12531TIP3   OH259007   1.042   0.618   2.896 -0.3770  0.0458 -0.3813
12531TIP3    H159008   1.079   0.687   2.841  2.7987 -0.5849  0.7600
12531TIP3    H259009   1.027   0.545   2.835  0.0273  0.4206 -0.9434
12532TIP3   OH259010   2.997   1.539  11.878 -0.0735 -0.1790 -0.2088
12532TIP3    H159011   3.041   1.554  11.794 -0.2114 -2.4949 -0.7448
12532TIP3    H259012   2.913   1.501  11.854 -0.7634  0.5762  0.9594
12533TIP3   OH259013   1.373   2.277  15.226  0.1099  0.8503  0.2762
12533TIP3    H159014   1.467   2.260  15.226  0.1175  0.8557 -0.4573
12533TIP3    H259015   1.350   2.281  15.133 -0.6348  0.7332  0.4547
12534TIP3   OH259016   1.686   6.143   4.159  0.3665  0.1245  0.2073
12534TIP3    H159017   1.679   6.234   4.131 -3.3604  0.2675  1.0126
12534TIP3    H259018   1.632   6.095   4.096  1.1559 -1.3085  0.5990
12535TIP3   OH259019   1.316   4.653   0.320  0.4362  0.0107  0.0284
12535TIP3    H159020   1.265   4.673   0.242  0.6264  2.1850  0.4110
12535TIP3    H259021   1.250   4.627   0.385 -0.1143  1.5833  0.1474
12536TIP3   OH259022   5.439   2.802   2.679 -0.0980 -0.0765  0.1051
12536TIP3    H159023   5.361   2.773   2.726  0.4181 -1.6533  0.0426
12536TIP3    H259024   5.511   2.753   2.720  0.9152  1.5112  0.3275
12537TIP3   OH259025   4.678   3.310  15.994  0.3099  0.0125 -0.5508
12537TIP3    H159026   4.728   3.229  15.983 -0.9596 -0.6738 -1.5616
12537TIP3    H259027   4.588   3.286  15.970 -0.4222  1.3236  0.7400
12538TIP3   OH259028   3.235   4.956   0.317  0.2486 -0.5768  0.0544
12538TIP3    H159029   3.291   4.878   0.315  0.4115 -0.4522 -0.5329
12538TIP3    H259030   3.257   5.003   0.236  0.6747  0.4530  0.7582
12539TIP3   OH259031   6.765   6.043  11.803  0.6723 -0.4189  0.0233
12539TIP3    H159032   6.693   6.075  11.749  0.8323  0.0692  0.0863
12539TIP3    H259033   6.799   5.967  11.757 -0.8197 -1.5709  0.7449
12540TIP3   OH259034   3.839   2.774   4.098 -0.1449 -0.2589  0.3614
12540TIP3    H159035   3.925   2.731   4.101 -0.4690 -1.0992 -1.1660
12540TIP3    H259036   3.856   2.865   4.123  0.9635 -0.6986  1.3115
12541TIP3   OH259037   4.055   3.440  13.047 -0.3097  0.1291 -0.0053
12541TIP3    H159038   4.041   3.382  13.122  0.3036 -0.4806 -0.3514
12541TIP3    H259039   4.131   3.402  13.001  0.1429  1.2373 -0.2030
12542TIP3   OH259040   4.733   4.182   1.561  0.4408 -0.1691  0.3347
12542TIP3    H159041   4.796   4.111   1.545  1.8196  1.4695 -2.2642
12542TIP3    H259042   4.787   4.259   1.576 -0.9393  1.0845 -0.8428
12543TIP3   OH259043   1.457   4.359   3.037 -0.4474 -0.0179 -0.3757
12543TIP3    H159044   1.524   4.357   2.969  1.3582  0.8099  1.2745
12543TIP3    H259045   1.491   4.420   3.103 -0.2073 -3.4267  3.0397
12544TIP3   OH259046   5.805   3.324  14.176  0.7735 -0.7123  0.3753
12544TIP3    H159047   5.857   3.383  14.122 -1.6017  2.2872  1.0450
12544TIP3    H259048   5.853   3.320  14.259  1.4899 -0.5777 -0.0203
12545TIP3   OH259049   5.247   2.892   2.492 -0.2497  0.2381  0.3138
12545TIP3    H159050   5.333   2.858   2.517 -0.6125 -0.5502  0.5036
12545TIP3    H259051   5.201   2.817   2.455 -0.1349  1.1002 -1.7375
12546TIP3   OH259052   3.126   3.206   4.687  0.1272 -0.5102 -0.1823
12546TIP3    H159053   3.134   3.286   4.737  0.2046 -0.1143 -0.8115
12546TIP3    H259054   3.169   3.139   4.741  0.4965 -0.0322  0.1246
12547TIP3   OH259055   6.590   6.481   0.788  0.1387 -0.0567 -0.0546
12547TIP3    H159056   6.578   6.568   0.750  0.7299  0.0438 -0.0102
12547TIP3    H259057   6.684   6.473   0.803 -0.0352 -0.2374  1.0537
12548TIP3   OH259058   1.948   0.913  14.051  0.2963  1.1501  0.2378
12548TIP3    H159059   2.007   0.865  13.992 -1.3191  0.7010 -1.0833
12548TIP3    H259060   1.967   1.006  14.032  0.0049  1.0106 -0.7914
12549TIP3   OH259061   3.115   4.636  16.704  0.2203  0.3870  0.0609
12549TIP3    H159062   3.086   4.715  16.750 -0.0073  0.3927 -0.0908
12549TIP3    H259063   3.050   4.623  16.635 -1.3057 -1.4518  1.7126
12550TIP3   OH259064   6.671   5.386   4.927 -0.3704  0.5399  0.5651
12550TIP3    H159065   6.632   5.381   4.840  0.4323  1.8891  0.0919
12550TIP3    H259066   6.605   5.348   4.985 -0.7196 -0.8514 -0.6646
12551TIP3   OH259067   2.354   1.156  11.728  0.1698 -0.0449 -0.2779
12551TIP3    H159068   2.312   1.071  11.746  0.0441  0.0968  0.1005
12551TIP3    H259069   2.345   1.167  11.634 -2.4161  0.8881 -0.0036
12552TIP3   OH259070   1.356   1.069   5.357 -0.1368 -0.2521  0.8457
12552TIP3    H159071   1.305   1.067   5.276  0.6283 -0.3568  0.3599
12552TIP3    H259072   1.292   1.092   5.425 -0.4783  1.4781 -0.0199
12553TIP3   OH259073   3.516   3.299   0.933  0.2393 -0.3663  0.5829
12553TIP3    H159074   3.479   3.211   0.925  0.0143 -0.4471  2.2505
12553TIP3    H259075   3.441   3.354   0.955  0.9323 -0.4212  3.3367
12554TIP3   OH259076   1.854   6.121  13.768  0.4147 -0.3341  0.3013
12554TIP3    H159077   1.870   6.193  13.707  1.0392  0.7604  1.7089
12554TIP3    H259078   1.793   6.064  13.722  0.8333  0.4710 -1.3239
12555TIP3   OH259079   2.406   3.795  13.567  0.1907  0.2979 -0.2272
12555TIP3    H159080   2.314   3.818  13.581 -0.5290 -1.5945 -1.4089
12555TIP3    H259081   2.455   3.870  13.601 -1.8220  2.0207 -0.8964
12556TIP3   OH259082   4.490   4.584  15.395 -0.7176  0.0552 -0.1066
12556TIP3    H159083   4.409   4.630  15.417 -1.2718 -0.8640 -0.1473
12556TIP3    H259084   4.560   4.647  15.414 -1.5103  1.4442 -1.6019
12557TIP3   OH259085   0.795   5.802   1.792 -0.0978 -0.0266  0.2244
12557TIP3    H159086   0.828   5.722   1.833 -1.9312 -1.2385 -0.5077
12557TIP3    H259087   0.732   5.837   1.855 -0.6836 -0.2324 -0.2278
12558TIP3   OH259088   2.303   4.339  13.917 -0.4127  0.5400 -0.5285
12558TIP3    H159089   2.288   4.432  13.934 -1.6228 -0.0824  2.4847
12558TIP3    H259090   2.389   4.321  13.957 -0.7819  0.1403  0.1101
12559TIP3   OH259091   2.677   3.944   0.927  0.1301 -0.7750  0.0868
12559TIP3    H159092   2.736   3.998   0.980  1.0068 -0.8600 -0.7723
12559TIP3    H259093   2.645   4.003   0.859  1.4117 -1.3772 -1.1027
12560TIP3   OH259094   4.082   3.466  13.327  0.5323  0.0455 -0.4050
12560TIP3    H159095   4.013   3.532  13.332 -1.1497 -1.4160 -2.4636
12560TIP3    H259096   4.144   3.500  13.262 -1.5344 -1.2361 -3.2798
12561TIP3   OH259097   2.244   5.004  15.673 -0.6795  0.1948 -0.2805
12561TIP3    H159098   2.264   5.043  15.588 -1.0648 -0.3482 -0.6199
12561TIP3    H259099   2.317   5.033  15.730 -0.6757  0.9537 -0.6598
12562TIP3   OH259100   5.017   4.257  14.997  0.3439  0.0596 -0.3950
12562TIP3    H159101   5.094   4.222  15.041 -0.2033 -1.2518 -0.4601
12562TIP3    H259102   4.943   4.224  15.046 -0.2440 -0.4528 -1.5846
12563TIP3   OH259103   5.061   3.646  13.300  0.1303 -0.1649  0.0847
12563TIP3    H159104   5.023   3.588  13.367  0.2737 -0.6417 -0.2398
12563TIP3    H259105   5.149   3.666  13.334 -0.3386  0.8298  0.7699
12564TIP3   OH259106   5.173   3.499   3.141  0.2020 -0.2652 -0.3461
12564TIP3    H159107   5.262   3.468   3.126  0.3461  0.4489 -1.0321
12564TIP3    H259108   5.182   3.562   3.213  0.1409 -0.6771  0.0280
12565TIP3   OH259109   3.010   1.940   3.833  0.2151  0.3638 -0.5433
12565TIP3    H159110   3.095   1.927   3.875 -0.1786  0.0106  0.1605
12565TIP3    H259111   3.031   1.973   3.746  1.0543  1.1100 -0.0792
12566TIP3   OH259112   3.554   3.921  12.107  0.6325  0.4962 -0.0890
12566TIP3    H159113   3.582   3.993  12.163  1.2195  1.4534 -1.5536
12566TIP3    H259114   3.631   3.902  12.052  0.3288 -0.9238 -0.0782
12567TIP3   OH259115   5.115   3.023   4.757  0.3668 -0.6082 -0.3312
12567TIP3    H159116   5.104   2.940   4.803  2.1554 -0.7387 -0.0599
12567TIP3    H259117   5.078   3.088   4.816  0.8763 -0.9937  0.4294
12568TIP3   OH259118   6.605   1.224   3.878 -0.7219  0.5138  0.3235
12568TIP3    H159119   6.618   1.135   3.912 -0.0511 -0.5498 -2.4344
12568TIP3    H259120   6.512   1.241   3.892 -0.9138 -0.7170  0.6741
12569TIP3   OH259121   6.360   3.261  14.923 -0.5224  0.0271 -0.2786
12569TIP3    H159122   6.324   3.347  14.900  0.9052  0.9713  0.8351
12569TIP3    H259123   6.427   3.244  14.857 -0.9280 -0.3411 -0.6057
12570TIP3   OH259124   6.682   3.757  11.508 -0.1918  0.2454 -0.0368
12570TIP3    H159125   6.668   3.843  11.549  0.0278 -0.3794  1.3974
12570TIP3    H259126   6.599   3.711  11.521 -0.3705  0.2956 -0.9659
12571TIP3   OH259127   5.298   3.993   1.620  0.3809 -0.0419 -0.3313
12571TIP3    H159128   5.260   4.079   1.601  1.2149  0.2706 -0.6038
12571TIP3    H259129   5.361   3.979   1.550  1.7826  0.0676  0.8728
12572TIP3   OH259130   5.369   3.741   1.992 -0.1235 -0.6243  0.2718
12572TIP3    H159131   5.320   3.736   1.910  0.9903  1.4484 -0.5979
12572TIP3    H259132   5.444   3.683   1.978 -0.8007 -1.5622  0.4853
12573TIP3   OH259133   1.654   6.497  13.404  0.2871  0.4307 -0.3334
12573TIP3    H159134   1.670   6.451  13.321 -0.9829  0.1575 -0.4444
12573TIP3    H259135   1.659   6.589  13.381  1.8712  0.3871 -0.3071
12574TIP3   OH259136   3.659   4.419   5.312 -0.0043 -0.1227  0.1892
12574TIP3    H159137   3.692   4.387   5.227  0.8752 -0.6072  0.6950
12574TIP3    H259138   3.738   4.434   5.364 -0.5326  0.2973  0.8812
12575TIP3   OH259139   5.060   2.845   1.007 -0.1368 -0.1303 -0.2991
12575TIP3    H159140   5.079   2.772   1.065 -2.3911 -0.7927 -0.3356
12575TIP3    H259141   5.144   2.864   0.965  1.0919 -0.9301  1.6596
12576TIP3   OH259142   0.714   1.084  15.873  0.5028  0.0388  0.1809
12576TIP3    H159143   0.724   0.991  15.888  1.1175  0.1765  0.6555
12576TIP3    H259144   0.687   1.091  15.781  0.4288 -0.6010  0.1545
12577TIP3   OH259145   3.082   3.180  11.900  0.0773 -0.0947 -0.1392
12577TIP3    H159146   3.115   3.142  11.981 -1.8095 -2.2315 -0.2835
12577TIP3    H259147   3.144   3.151  11.833  0.5208 -0.0231  0.2353
12578TIP3   OH259148   3.508   2.951   0.661  0.0191  0.1262 -0.2766
12578TIP3    H159149   3.490   3.010   0.589 -0.5805  1.1719  0.7004
12578TIP3    H259150   3.603   2.935   0.657  0.3118  1.6867 -0.1773
12579TIP3   OH259151   0.402   4.387  10.246 -0.3757 -0.3346  0.2921
12579TIP3    H159152   0.389   4.419  10.157  1.4818  1.1069  0.4578
12579TIP3    H259153   0.366   4.457  10.302  0.3329 -0.2451  0.6521
12580TIP3   OH259154   0.520   1.972   4.478  0.2185 -0.4483 -0.0454
12580TIP3    H159155   0.519   2.068   4.468 -0.6377 -0.4191  0.2624
12580TIP3    H259156   0.580   1.942   4.409  1.1112  0.3545  0.3548
12581TIP3   OH259157   4.392   3.622  11.153 -0.5318 -0.9659 -0.0752
12581TIP3    H159158   4.448   3.582  11.219 -0.2753 -0.4631  0.0100
12581TIP3    H259159   4.351   3.696  11.197  0.0213 -0.3318 -0.6186
12582TIP3   OH259160   3.487   0.040   4.683 -0.5126 -0.2830 -0.0206
12582TIP3    H159161   3.425  -0.029   4.662 -0.7823  0.0364 -0.2805
12582TIP3    H259162   3.515   0.022   4.773 -2.1854  0.4778  0.6914
12583TIP3   OH259163   0.204   6.714   1.970  0.4017 -0.0193 -0.2191
12583TIP3    H159164   0.136   6.711   1.903 -1.2157 -3.7185  1.2861
12583TIP3    H259165   0.185   6.794   2.020 -1.1308  0.4390 -1.4581
12584TIP3   OH259166   4.710   2.436   4.538  0.5216 -0.2286  0.4116
12584TIP3    H159167   4.652   2.359   4.540 -0.4733  0.4141 -1.2844
12584TIP3    H259168   4.794   2.403   4.570  0.3547 -2.2625 -1.0045
12585TIP3   OH259169   5.599   4.205   4.241  0.2324 -0.5517  0.0680
12585TIP3    H159170   5.516   4.159   4.228 -0.9228  0.8105  2.1164
12585TIP3    H259171   5.617   4.246   4.157 -0.8421 -1.3680 -0.5826
12586TIP3   OH259172   4.554   2.222  15.228  0.1306  0.0788  0.2027
12586TIP3    H159173   4.555   2.169  15.308 -1.2995  0.1133  0.2711
12586TIP3    H259174   4.642   2.261  15.224  1.0951 -1.9403  0.3538
12587TIP3   OH259175   0.301   1.731  16.915  0.1886  0.1575  0.0173
12587TIP3    H159176   0.388   1.694  16.897  0.0867 -0.7682  1.3515
12587TIP3    H259177   0.276   1.772  16.832  1.8127  0.2827 -0.4559
12588TIP3   OH259178   2.392   6.706   0.141  0.5435 -0.9347  0.4969
12588TIP3    H159179   2.404   6.616   0.173 -2.7530 -1.5196  0.4329
12588TIP3    H259180   2.368   6.756   0.218  0.4534 -0.5466  0.2167
12589TIP3   OH259181   4.409   0.706  14.365 -0.2882 -0.4627  0.0063
12589TIP3    H159182   4.382   0.703  14.457 -2.2163 -1.3627 -0.5211
12589TIP3    H259183   4.342   0.760  14.322  0.4008 -0.3288 -0.9375
12590TIP3   OH259184   3.253   4.236   6.042  0.3709  0.1438 -0.1078
12590TIP3    H159185   3.187   4.243   6.111 -0.5024  0.0715 -0.9270
12590TIP3    H259186   3.242   4.315   5.990  1.1139  0.2600 -0.1043
12591TIP3   OH259187   1.955   0.972   0.911 -0.1606 -0.3017 -0.1164
12591TIP3    H159188   1.929   1.030   0.839 -0.3158  0.1230  0.2723
12591TIP3    H259189   2.039   0.936   0.884  0.5401  1.0658  0.1713
12592TIP3   OH259190   4.885   3.599   3.601 -0.1186  0.1441  0.1808
12592TIP3    H159191   4.866   3.559   3.686 -1.2924  0.8900  0.3019
12592TIP3    H259192   4.980   3.610   3.600  0.1038 -1.4505  0.6669
12593TIP3   OH259193   4.945   2.186  10.667  0.5387 -0.2724 -0.0703
12593TIP3    H159194   4.884   2.114  10.681  1.1500 -0.3372  2.9623
12593TIP3    H259195   4.890   2.259  10.639 -0.3235 -1.3601 -1.3924
12594TIP3   OH259196   6.509   3.838  13.892  0.2070 -0.1063  0.5622
12594TIP3    H159197   6.555   3.921  13.901  0.9670 -0.3014 -1.0388
12594TIP3    H259198   6.498   3.828  13.797  0.2597 -1.8833  0.7150
12595TIP3   OH259199   6.223   1.928   0.753 -0.4034  0.1773 -0.1042
12595TIP3    H159200   6.177   2.011   0.766 -0.4944  0.1061  0.0265
12595TIP3    H259201   6.207   1.906   0.661 -3.9602 -1.8248  0.8151
12596TIP3   OH259202   5.214   3.777  17.021  0.0578  0.3090 -0.2323
12596TIP3    H159203   5.205   3.755  16.928 -0.6065  2.7207 -0.8034
12596TIP3    H259204   5.144   3.728  17.064 -0.2188 -0.1140 -1.1308
12597TIP3   OH259205   6.745   4.200   3.238 -0.0783 -0.2062 -0.0896
12597TIP3    H159206   6.728   4.281   3.191  1.7418 -0.4972 -1.3303
12597TIP3    H259207   6.669   4.145   3.219 -0.3166  0.4252 -1.0123
12598TIP3   OH259208   4.421   2.486   4.196  0.4981 -0.0057 -0.3232
12598TIP3    H159209   4.357   2.436   4.145  0.3276 -2.8911  2.4069
12598TIP3    H259210   4.505   2.464   4.156  0.3887 -2.3744  0.5784
12599TIP3   OH259211   2.877   1.953  12.983  0.0166  0.3754  0.0678
12599TIP3    H159212   2.874   1.975  13.076 -0.8198 -0.5714  0.2750
12599TIP3    H259213   2.926   2.025  12.944  2.9359 -0.5670  1.6303
12600TIP3   OH259214   3.020   4.010   3.091  0.2453  0.3988  0.0970
12600TIP3    H159215   3.020   4.047   3.179  0.0892  1.0329 -0.1659
12600TIP3    H259216   2.958   3.937   3.095  1.6373 -0.7866  1.0041
12601TIP3   OH259217   3.423   5.984   3.473 -0.4953 -0.4625  0.0558
12601TIP3    H159218   3.404   6.045   3.544 -0.3770  1.9667 -1.8742
12601TIP3    H259219   3.507   6.012   3.438 -0.1559 -2.1149 -0.5738
12602TIP3   OH259220   1.849   4.219   4.141 -0.0234  0.5490  0.2860
12602TIP3    H159221   1.814   4.229   4.230  0.2772  1.5230  0.3011
12602TIP3    H259222   1.807   4.139   4.108 -4.0794  2.7548 -0.5432
12603TIP3   OH259223   6.742   3.070  12.908 -0.0603  0.2652  0.2284
12603TIP3    H159224   6.695   3.124  12.843 -2.0350 -0.7127  0.7705
12603TIP3    H259225   6.704   3.096  12.992  2.5782  1.6315  1.1281
12604TIP3   OH259226   4.719   3.453  13.776 -0.3506  0.4041  0.0387
12604TIP3    H159227   4.710   3.361  13.754  1.5609  0.4667 -1.1996
12604TIP3    H259228   4.684   3.460  13.865  0.8689 -1.8120  0.7703
12605TIP3   OH259229   1.692   5.124  14.899 -0.4829  0.9048 -0.1998
12605TIP3    H159230   1.736   5.198  14.858  2.3481  0.0925  1.1397
12605TIP3    H259231   1.623   5.163  14.952  0.4574  2.5410 -0.1187
12606TIP3   OH259232   3.181   0.036   1.331 -0.2989 -0.3474 -0.5778
12606TIP3    H159233   3.185   0.067   1.421  0.1184  0.4491 -0.8599
12606TIP3    H259234   3.099  -0.013   1.326 -0.4074 -0.2543  0.1852
12607TIP3   OH259235   3.081   5.875  13.717  0.0636  0.2346 -0.3374
12607TIP3    H159236   3.160   5.917  13.681  0.4211 -0.1156  0.0209
12607TIP3    H259237   3.054   5.933  13.788  0.9863 -0.4918  0.6426
12608TIP3   OH259238   3.786   1.561  12.205  0.3709  0.4190 -0.8590
12608TIP3    H159239   3.876   1.531  12.189  0.0344  0.4922 -3.1205
12608TIP3    H259240   3.731   1.485  12.183 -0.1383 -0.0794  1.7823
12609TIP3   OH259241   4.260   4.942   3.035 -0.2103 -0.4182  0.1198
12609TIP3    H159242   4.179   4.909   2.996 -0.8527  0.1514  0.9472
12609TIP3    H259243   4.285   5.015   2.978 -0.0323 -0.8747 -0.3917
12610TIP3   OH259244   3.980   2.866   5.464  0.2499  0.6089  0.3329
12610TIP3    H159245   3.951   2.851   5.374 -0.0445  2.7308  0.0200
12610TIP3    H259246   4.024   2.785   5.490 -1.1049 -0.6403 -1.1320
12611TIP3   OH259247   3.306   2.176   2.964  0.3779 -0.5349  0.1496
12611TIP3    H159248   3.387   2.174   2.914 -0.3317  0.6840 -1.1315
12611TIP3    H259249   3.251   2.240   2.918 -1.0225 -0.7675  1.4167
12612TIP3   OH259250   2.283   1.197  16.220  0.0967 -0.0890 -0.2115
12612TIP3    H159251   2.368   1.218  16.259 -0.3335  0.4205  0.4803
12612TIP3    H259252   2.305   1.148  16.140  1.1289  1.6655 -1.0891
12613TIP3   OH259253   4.819   6.648  11.587  0.6839 -0.2634  0.5595
12613TIP3    H159254   4.765   6.727  11.592  0.3922 -0.5088  1.4855
12613TIP3    H259255   4.757   6.576  11.595  1.0335 -0.5725  0.4956
12614TIP3   OH259256   6.293   2.977  15.902 -0.1952  0.7288  0.3125
12614TIP3    H159257   6.235   2.988  15.977 -1.5766 -1.4222 -0.3388
12614TIP3    H259258   6.380   2.971  15.940 -0.9615 -1.5705  1.9776
12615TIP3   OH259259   2.305   4.429   5.182  0.6080  0.7063 -0.5502
12615TIP3    H159260   2.389   4.436   5.227 -0.1210  1.8906  0.6847
12615TIP3    H259261   2.251   4.375   5.239  0.8953 -1.2299 -1.9947
12616TIP3   OH259262   1.771   2.194  15.952 -0.3267 -0.2697  0.3569
12616TIP3    H159263   1.676   2.206  15.954 -0.6625 -2.5152 -0.0880
12616TIP3    H259264   1.806   2.280  15.976 -2.4902  0.1698  2.3427
12617TIP3   OH259265   5.280   6.475  16.362  0.3972 -0.3584 -0.0860
12617TIP3    H159266   5.283   6.571  16.358 -1.5035 -0.1742  1.4317
12617TIP3    H259267   5.187   6.454  16.360  0.7443 -2.1358  0.6142
12618TIP3   OH259268   2.435   3.568  12.815  0.3631 -0.2322 -0.2968
12618TIP3    H159269   2.358   3.548  12.868  1.0673 -0.1573  0.7941
12618TIP3    H259270   2.504   3.586  12.879  1.4644 -0.9553 -1.2409
12619TIP3   OH259271   1.800   6.765  12.507 -0.7054  0.1529  0.8544
12619TIP3    H159272   1.768   6.730  12.590  0.6249 -2.2824  0.4303
12619TIP3    H259273   1.892   6.738  12.504 -0.4365  1.1289 -0.9410
12620TIP3   OH259274   3.684   4.180  12.084 -0.2194 -0.0263 -0.3930
12620TIP3    H159275   3.750   4.110  12.081 -0.3680 -0.2644  1.1209
12620TIP3    H259276   3.670   4.203  11.992  0.1967 -1.6512 -0.9118
12621TIP3   OH259277   1.469   5.950  11.245  0.0870  0.2028 -0.2984
12621TIP3    H159278   1.494   6.042  11.257  0.0248 -0.0194  1.8726
12621TIP3    H259279   1.550   5.901  11.256 -0.2858 -0.1458  0.9827
12622TIP3   OH259280   1.537   4.322  14.965 -0.6716  0.5358 -0.6947
12622TIP3    H159281   1.509   4.380  14.894 -0.2256  0.7011 -0.7369
12622TIP3    H259282   1.544   4.235  14.924  0.2174  0.7492 -1.0117
12623TIP3   OH259283   4.225   4.547   4.808  0.0263 -0.2467 -0.1283
12623TIP3    H159284   4.225   4.470   4.751  2.0749 -0.5321  0.1949
12623TIP3    H259285   4.263   4.616   4.754  1.3433 -0.3512  0.6140
12624TIP3   OH259286   1.197   1.948  12.721  0.0635 -0.6799  0.0436
12624TIP3    H159287   1.176   2.017  12.658  0.1926  0.1963  0.9349
12624TIP3    H259288   1.245   1.993  12.791 -0.0060 -1.6387  0.7307
12625TIP3   OH259289   3.887   2.270   3.657  0.3240  0.6025 -0.4401
12625TIP3    H159290   3.911   2.188   3.615  0.2307  1.1442 -1.5928
12625TIP3    H259291   3.968   2.302   3.697  1.4121  1.8986 -3.3997
12626TIP3   OH259292   2.728   1.250   0.618 -0.2709 -0.6119 -0.3190
12626TIP3    H159293   2.700   1.179   0.676 -0.7497 -0.1576  0.0110
12626TIP3    H259294   2.683   1.234   0.536  0.3979 -1.2509 -0.5771
12627TIP3   OH259295   2.326   4.212   5.647 -0.6161  0.0735 -0.0776
12627TIP3    H159296   2.388   4.205   5.719 -0.8503 -0.9253  0.0410
12627TIP3    H259297   2.256   4.268   5.681 -0.1879  0.5305  0.0680
12628TIP3   OH259298   1.977   5.412  11.154 -0.3123 -0.5120 -0.5979
12628TIP3    H159299   1.959   5.394  11.246 -0.9751 -0.0991 -0.6331
12628TIP3    H259300   1.980   5.508  11.149  0.5374 -0.5486 -0.8622
12629TIP3   OH259301   4.261   3.022  15.962  0.7505  0.3188 -0.5868
12629TIP3    H159302   4.248   3.023  15.867  0.1946  0.6849 -0.5074
12629TIP3    H259303   4.179   2.990  15.997  0.5805  1.1747 -0.1733
12630TIP3   OH259304   2.599   5.996  11.639 -0.0607  0.2863 -0.2666
12630TIP3    H159305   2.681   6.025  11.600  0.4715  0.6505  1.0518
12630TIP3    H259306   2.624   5.927  11.701 -0.8769 -0.3405 -0.6169
12631TIP3   OH259307   6.082   2.704   0.221  0.4477 -0.0215  0.4055
12631TIP3    H159308   6.098   2.759   0.144  1.5645 -1.0427 -0.1345
12631TIP3    H259309   5.987   2.702   0.230  0.3587  2.7391  1.0390
12632TIP3   OH259310   5.275   4.462   3.703 -0.6678 -0.1242  0.5233
12632TIP3    H159311   5.324   4.413   3.637 -2.0815  1.2240 -1.6696
12632TIP3    H259312   5.193   4.413   3.714 -2.6521  2.1459 -2.6283
12633TIP3   OH259313   4.220   3.982  13.620  0.4882 -0.2388  0.3581
12633TIP3    H159314   4.304   4.026  13.602  1.1894 -1.2431  1.0505
12633TIP3    H259315   4.237   3.890  13.602 -1.2399 -0.1707 -1.9921
12634TIP3   OH259316   6.547   1.165  11.309  0.8236  0.5328  0.0171
12634TIP3    H159317   6.503   1.197  11.230  0.7966 -0.8118 -0.5425
12634TIP3    H259318   6.502   1.209  11.381  0.3738  1.2496 -0.6873
12635TIP3   OH259319   3.779   5.085  15.183  0.0515 -0.5097 -0.5277
12635TIP3    H159320   3.723   5.158  15.211  0.0958 -0.7397  0.1817
12635TIP3    H259321   3.720   5.023  15.141  0.1536  0.3629 -2.0407
12636TIP3   OH259322   3.546   4.880   4.202 -0.7058  0.2022  0.3332
12636TIP3    H159323   3.502   4.964   4.213 -0.7187  0.2147  0.1852
12636TIP3    H259324   3.593   4.866   4.284 -1.5523 -0.1426  0.7650
12637TIP3   OH259325   2.991   6.513  14.345  0.2528 -0.4927  0.3296
12637TIP3    H159326   3.032   6.522  14.258  1.1841  1.0900  0.8722
12637TIP3    H259327   3.010   6.424  14.372  0.5024 -0.8071 -0.8368
12638TIP3   OH259328   3.196   6.732  15.290 -0.1249  0.4660 -0.0506
12638TIP3    H159329   3.246   6.800  15.245  1.4511  0.9294  2.2361
12638TIP3    H259330   3.126   6.778  15.335  0.6440  0.5570  1.0923
12639TIP3   OH259331   3.702   6.293   2.315 -0.5457 -0.6037  0.3467
12639TIP3    H159332   3.748   6.218   2.354 -0.5262 -0.4417  0.6366
12639TIP3    H259333   3.640   6.320   2.382 -2.5119 -2.0656 -0.7729
12640TIP3   OH259334   2.653   3.913  14.247 -0.0761 -0.1090  0.5082
12640TIP3    H159335   2.670   3.903  14.341 -1.7064 -1.1413  0.7343
12640TIP3    H259336   2.577   3.971  14.243  0.1439  0.1317 -0.1792
12641TIP3   OH259337   3.507   3.581  10.197 -0.3579 -0.0182  0.2312
12641TIP3    H159338   3.425   3.568  10.244  0.8630 -2.5283  1.8655
12641TIP3    H259339   3.569   3.609  10.265  0.5461  0.1405 -0.6433
12642TIP3   OH259340   4.336   5.804  17.186 -0.7082 -0.4876  0.1740
12642TIP3    H159341   4.405   5.738  17.189  0.0068  0.2523  3.0822
12642TIP3    H259342   4.370   5.873  17.129  0.3355 -0.7711  0.4415
12643TIP3   OH259343   0.197   3.862  14.056  0.2681 -0.0874 -0.0345
12643TIP3    H159344   0.269   3.902  14.008  0.3776 -0.6736 -0.3769
12643TIP3    H259345   0.188   3.775  14.017  0.8326 -0.8600  1.4689
12644TIP3   OH259346   0.801   2.889   2.738 -0.6357  0.1294 -0.0691
12644TIP3    H159347   0.835   2.921   2.822  1.2070 -2.2031  0.1795
12644TIP3    H259348   0.839   2.947   2.673  0.4907  0.0625  0.5151
12645TIP3   OH259349   1.593   3.478   5.787 -0.3286  0.1525  0.1353
12645TIP3    H159350   1.530   3.535   5.744 -0.6248 -0.0684  0.2786
12645TIP3    H259351   1.550   3.392   5.791  0.1087 -0.0829 -0.0722
12646TIP3   OH259352   4.341   1.206   0.171  0.4082  0.6735  0.4057
12646TIP3    H159353   4.279   1.224   0.241  0.2054  0.3888  0.3011
12646TIP3    H259354   4.408   1.275   0.179 -1.6861  3.1754 -1.6078
12647TIP3   OH259355   1.761   6.054   0.106  0.5551  0.3845  0.1977
12647TIP3    H159356   1.673   6.083   0.131  0.4998  0.2700  0.1349
12647TIP3    H259357   1.748   5.971   0.062  0.7713 -0.0624  0.9426
12648TIP3   OH259358   4.180   3.114   2.364 -0.3418  0.4072  0.3815
12648TIP3    H159359   4.192   3.023   2.337 -1.4473 -0.2179  1.9213
12648TIP3    H259360   4.252   3.161   2.321 -0.4258 -0.9752 -1.3691
12649TIP3   OH259361   4.796   2.040   0.291 -0.1726  0.2895  0.6215
12649TIP3    H159362   4.856   1.991   0.234 -1.0698  0.6322 -0.6413
12649TIP3    H259363   4.826   2.018   0.380  1.2584 -0.2481  0.0451
12650TIP3   OH259364   6.068   5.275  11.348 -0.0625  0.1510  0.4367
12650TIP3    H159365   6.129   5.213  11.389  2.1770  0.4384 -2.1232
12650TIP3    H259366   6.119   5.314  11.277 -2.7035  1.8962 -0.6388
12651TIP3   OH259367   6.731   0.831   4.325 -0.3770 -0.5793 -0.4713
12651TIP3    H159368   6.686   0.769   4.382  1.7641 -0.0485  2.0280
12651TIP3    H259369   6.723   0.915   4.371  2.2485 -0.3072 -0.3128
12652TIP3   OH259370   6.099   6.601   0.163 -0.3595  0.0122  0.3255
12652TIP3    H159371   6.118   6.577   0.073 -0.8103 -0.3198  0.3190
12652TIP3    H259372   6.159   6.548   0.215 -1.3310 -1.1266  0.3099
12653TIP3   OH259373   5.113   6.026  12.434 -0.3839 -0.0949 -0.5847
12653TIP3    H159374   5.195   6.001  12.476 -0.2934 -1.2905 -1.4220
12653TIP3    H259375   5.104   5.965  12.361 -0.4955  1.9623 -2.3592
12654TIP3   OH259376   5.095   0.067   1.775 -0.0898  0.5242  0.1005
12654TIP3    H159377   5.037   0.092   1.847 -3.3312  1.0905 -2.4671
12654TIP3    H259378   5.098  -0.029   1.778 -2.4418  0.3828 -0.5341
12655TIP3   OH259379   5.752   4.576   1.998 -0.4559  0.2585 -0.1187
12655TIP3    H159380   5.784   4.549   1.912  2.1564 -0.1480  0.8856
12655TIP3    H259381   5.757   4.496   2.052 -0.1963  0.9291  0.8896
12656TIP3   OH259382   0.762   5.721   4.654 -0.4692 -0.8248  0.2484
12656TIP3    H159383   0.693   5.774   4.613  0.1698  0.0099  0.2252
12656TIP3    H259384   0.717   5.644   4.687 -1.3524 -0.4768 -0.1222
12657TIP3   OH259385   2.686   1.036   2.582 -0.1397  0.0572  0.3674
12657TIP3    H159386   2.703   1.014   2.490 -1.6255 -0.3012  0.1571
12657TIP3    H259387   2.649   0.956   2.619 -1.3826  0.7828  0.7579
12658TIP3   OH259388   4.076   5.997  10.894  0.2837 -0.2640  0.2336
12658TIP3    H159389   4.165   5.987  10.928 -0.1172 -0.0009  1.4125
12658TIP3    H259390   4.085   6.058  10.821  1.3753 -1.9279 -1.0999
12659TIP3   OH259391   2.914   3.725  11.722 -0.4442 -0.2552  0.5674
12659TIP3    H159392   2.917   3.665  11.648 -0.3826  0.3906  0.0417
12659TIP3    H259393   2.998   3.770  11.721 -1.3805  1.5700 -0.5180
12660TIP3   OH259394   1.142   1.191   4.913  0.0853  0.1598  0.2448
12660TIP3    H159395   1.051   1.205   4.940  0.1264  0.2619  0.3301
12660TIP3    H259396   1.175   1.279   4.893 -0.1568  0.0195 -0.8151
12661TIP3   OH259397   1.438   1.639  14.999  0.4491  0.1249  0.1108
12661TIP3    H159398   1.443   1.546  15.021 -0.6312 -0.0921 -0.5055
12661TIP3    H259399   1.402   1.642  14.911 -1.1534  1.1595  0.7298
12662TIP3   OH259400   3.318   4.429  12.973 -0.2726 -0.1607 -0.8344
12662TIP3    H159401   3.225   4.452  12.976 -0.7353 -1.8305 -0.8301
12662TIP3    H259402   3.335   4.391  13.059  0.4148  0.1522 -0.8346
12663TIP3   OH259403   5.809   6.584   0.171  0.0753 -0.0945  0.4865
12663TIP3    H159404   5.770   6.554   0.253  0.0702 -0.2117  0.4412
12663TIP3    H259405   5.880   6.523   0.155 -0.2682 -0.3993  0.1175
12664TIP3   OH259406   5.337   3.688   1.320 -0.3971 -0.4912 -0.2098
12664TIP3    H159407   5.287   3.651   1.393 -0.3362 -0.2707 -0.0549
12664TIP3    H259408   5.421   3.643   1.325 -0.6505 -1.0195 -0.6023
12665TIP3   OH259409   2.902   4.883  14.844  0.5196  0.0194  0.0653
12665TIP3    H159410   2.875   4.969  14.877  0.2850 -0.6176  1.5724
12665TIP3    H259411   2.833   4.859  14.782 -0.6176 -0.0634  1.3215
12666TIP3   OH259412   1.479   4.743  16.974  0.3603 -0.3399 -0.0617
12666TIP3    H159413   1.552   4.771  17.028 -1.4695  0.4916  2.1213
12666TIP3    H259414   1.501   4.653  16.948  2.6035  0.2584 -0.4042
12667TIP3   OH259415   3.756   0.484  11.758 -0.5319 -0.3102  0.1756
12667TIP3    H159416   3.774   0.427  11.684  1.4932 -1.0901  1.1789
12667TIP3    H259417   3.827   0.548  11.758 -1.0770  0.3296  0.8629
12668TIP3   OH259418   5.239   5.068  15.645  0.2250 -0.5163 -0.1073
12668TIP3    H159419   5.315   5.024  15.605 -0.9522 -1.2028 -1.7088
12668TIP3    H259420   5.186   4.997  15.680 -1.0841 -0.3310 -1.6053
12669TIP3   OH259421   2.813   1.783  15.123  0.1021  0.2810 -0.1299
12669TIP3    H159422   2.821   1.697  15.163 -1.1892 -0.4176 -1.2510
12669TIP3    H259423   2.902   1.807  15.098  0.7162  0.0730  1.7301
12670TIP3   OH259424   2.903   0.677  13.228  0.3526  0.3603  0.9521
12670TIP3    H159425   2.916   0.695  13.135  0.6225 -1.2497  0.6398
12670TIP3    H259426   2.860   0.755  13.262 -1.6204  0.1921 -0.9631
12671TIP3   OH259427   3.650   0.828   2.459  0.3929  0.4111  0.0183
12671TIP3    H159428   3.629   0.912   2.500 -1.3810 -1.3414  3.0958
12671TIP3    H259429   3.566   0.781   2.456  1.0021 -0.7202 -3.1718
12672TIP3   OH259430   4.459   3.867  12.948  0.4126 -0.3502  0.2726
12672TIP3    H159431   4.489   3.908  13.029 -0.8623 -1.0461  1.1429
12672TIP3    H259432   4.456   3.773  12.969 -0.3721 -0.4920 -0.4252
12673TIP3   OH259433   6.530   2.241  13.309  0.4245  0.1412  0.0427
12673TIP3    H159434   6.519   2.303  13.381 -0.7290 -0.4340  0.3843
12673TIP3    H259435   6.455   2.182  13.316 -1.2294  1.5918 -3.1887
12674TIP3   OH259436   0.112   1.210  13.099  0.0197 -0.0951 -0.0799
12674TIP3    H159437   0.121   1.305  13.109  0.6208 -0.1532 -0.0863
12674TIP3    H259438   0.102   1.197  13.004 -0.6614  0.0065 -0.0320
12675TIP3   OH259439   1.480   5.568   0.376  0.1301 -0.1489  0.3264
12675TIP3    H159440   1.562   5.576   0.327  0.4079  0.7897  0.9204
12675TIP3    H259441   1.488   5.486   0.424  0.5934 -0.2067  0.1484
12676TIP3   OH259442   2.687   6.722  14.204 -0.0180  0.2379  0.2559
12676TIP3    H159443   2.694   6.636  14.162  1.2658  0.4184  0.0701
12676TIP3    H259444   2.765   6.769  14.175  0.0717  0.9381  1.5568
12677TIP3   OH259445   5.178   2.414   3.450  0.2627 -0.7997  0.1370
12677TIP3    H159446   5.211   2.499   3.419 -0.4318 -1.5516 -3.0180
12677TIP3    H259447   5.150   2.431   3.539  1.2810  1.9749  0.0534
12678TIP3   OH259448   2.279   5.878  11.888 -0.4895 -0.5470  0.7206
12678TIP3    H159449   2.201   5.859  11.939  1.1356 -1.0148  3.2266
12678TIP3    H259450   2.340   5.917  11.951  0.7580  1.3530 -1.5037
12679TIP3   OH259451   3.676   0.553  11.050  0.6533  0.0133 -0.1888
12679TIP3    H159452   3.758   0.504  11.056  0.2473 -0.5040  2.4866
12679TIP3    H259453   3.661   0.586  11.139 -2.3476 -0.4936 -0.3700
12680TIP3   OH259454   4.864   0.155   0.196  0.3476 -0.0998  0.5790
12680TIP3    H159455   4.797   0.213   0.159  0.6103  0.0808  0.3881
12680TIP3    H259456   4.925   0.139   0.124  0.1172 -0.8572  0.5424
12681TIP3   OH259457   2.619   5.952  16.482 -0.0933 -0.7966 -0.4513
12681TIP3    H159458   2.650   6.015  16.417  2.2935 -0.6825  0.7083
12681TIP3    H259459   2.576   6.006  16.549 -2.1572 -0.8794 -1.6096
12682TIP3   OH259460   4.312   1.822  13.939 -0.2211 -0.2281 -0.3637
12682TIP3    H159461   4.236   1.763  13.931  0.9208 -1.9401  0.8267
12682TIP3    H259462   4.279   1.897  13.988 -1.5887 -0.0328 -1.4891
12683TIP3   OH259463   4.788   4.414  13.971  0.0976  0.0068  0.1409
12683TIP3    H159464   4.798   4.346  13.903  0.1996 -0.3592  0.5165
12683TIP3    H259465   4.843   4.486  13.941 -0.7023  0.2867 -0.7195
12684TIP3   OH259466   4.134   0.215  11.071 -0.5216  0.1345 -0.0181
12684TIP3    H159467   4.183   0.185  10.994 -0.0912 -0.6103  0.5280
12684TIP3    H259468   4.188   0.285  11.108  1.7477 -2.5162  2.2141
12685TIP3   OH259469   6.137   2.694   3.605 -0.6234 -0.1622  0.9872
12685TIP3    H159470   6.128   2.650   3.521 -2.5507  0.9642  0.5399
12685TIP3    H259471   6.217   2.658   3.643  0.7658 -0.0370 -1.6764
12686TIP3   OH259472   2.635   0.065  13.816 -0.2924  0.0580 -0.0614
12686TIP3    H159473   2.728   0.050  13.801 -0.3632 -0.7650  0.2737
12686TIP3    H259474   2.615   0.144  13.766  0.8809  1.0317  0.9416
12687TIP3   OH259475   6.336   3.803   3.829 -0.4550 -0.5470 -0.3258
12687TIP3    H159476   6.297   3.736   3.885 -2.1536 -1.3535 -2.3654
12687TIP3    H259477   6.261   3.850   3.791  0.5066 -1.1184 -3.1672
12688TIP3   OH259478   5.491   1.616   1.015 -0.3084 -0.1784  0.0072
12688TIP3    H159479   5.446   1.687   0.969 -0.7184  1.0908  2.2359
12688TIP3    H259480   5.577   1.652   1.035 -0.2073 -0.6375  0.4127
12689TIP3   OH259481   0.709   5.541   0.401  0.2166 -0.7420  0.1822
12689TIP3    H159482   0.738   5.505   0.317  0.5597 -1.2218  0.4954
12689TIP3    H259483   0.658   5.618   0.378 -0.7164 -1.5444 -0.5267
12690TIP3   OH259484   6.603   4.735   2.726 -0.0511  0.7346  0.0474
12690TIP3    H159485   6.605   4.795   2.651 -1.3916 -0.6395 -1.1663
12690TIP3    H259486   6.517   4.751   2.766  0.6109  1.3782  1.2552
12691TIP3   OH259487   3.830   4.732   5.103 -0.1597  0.3085 -0.3558
12691TIP3    H159488   3.753   4.677   5.085 -0.5072  1.1858 -1.6670
12691TIP3    H259489   3.902   4.685   5.062 -0.6618  1.3940 -2.6638
12692TIP3   OH259490   5.901   2.848  16.173 -0.2668  0.3870  0.1382
12692TIP3    H159491   5.961   2.918  16.146 -0.4893  0.4504 -0.1975
12692TIP3    H259492   5.833   2.893  16.223 -2.6879  1.1265 -3.4113
12693TIP3   OH259493   1.521   3.380  15.076  0.9058  0.2291 -0.0749
12693TIP3    H159494   1.543   3.315  15.009  2.5478  1.6636 -1.0060
12693TIP3    H259495   1.473   3.447  15.029  0.8098  0.5609  0.4940
12694TIP3   OH259496   4.016   3.923  11.518 -0.2183 -0.1591  0.1337
12694TIP3    H159497   4.071   3.941  11.442 -0.3311  0.2331  0.1469
12694TIP3    H259498   4.078   3.892  11.585 -0.1031 -0.3746 -0.0712
12695TIP3   OH259499   0.420   2.674   0.656 -0.2776 -0.0514 -0.0475
12695TIP3    H159500   0.401   2.762   0.623 -0.8087 -0.3019 -0.4234
12695TIP3    H259501   0.334   2.638   0.678  0.0946  0.3601  2.3101
12696TIP3   OH259502   0.023   4.664  15.217 -0.1232 -0.1151 -0.2616
12696TIP3    H159503  -0.039   4.710  15.161 -0.2202 -1.2889 -1.1414
12696TIP3    H259504   0.103   4.717  15.214 -0.6943  0.7686 -0.0678
12697TIP3   OH259505   0.504   3.658  10.236 -0.3418 -0.4124  0.5417
12697TIP3    H159506   0.462   3.728  10.187  1.5947 -1.1906 -2.4981
12697TIP3    H259507   0.461   3.578  10.206  1.1207 -0.9403 -0.2449
12698TIP3   OH259508   5.733   1.775  10.519 -0.0092 -0.1678  0.2252
12698TIP3    H159509   5.730   1.708  10.451  1.4039  0.6593 -0.6779
12698TIP3    H259510   5.810   1.753  10.571  0.2116  0.5089  0.1877
12699TIP3   OH259511   3.314   3.807  14.951  0.9056  0.4890  0.2053
12699TIP3    H159512   3.291   3.719  14.980  0.7539  0.4963  0.1083
12699TIP3    H259513   3.247   3.864  14.989  1.1198  0.5892  0.4369
12700TIP3   OH259514   6.086   4.440   0.145  0.3854 -0.0693 -0.7160
12700TIP3    H159515   6.076   4.434   0.240  0.0504 -1.8412 -0.8231
12700TIP3    H259516   6.110   4.352   0.118  1.6814  0.6842 -2.1645
12701TIP3   OH259517   4.112   5.774   3.823 -0.1205 -0.4349  0.3772
12701TIP3    H159518   4.159   5.852   3.851  0.2600 -0.5063 -0.0613
12701TIP3    H259519   4.033   5.808   3.781  0.3982 -0.2561 -0.4710
12702TIP3   OH259520   1.149   1.495  13.960  0.3387 -0.2675 -0.4305
12702TIP3    H159521   1.215   1.425  13.966  0.6312  0.0059 -0.4283
12702TIP3    H259522   1.168   1.552  14.035  0.7713  0.3843 -1.0276
12703TIP3   OH259523   6.367   1.786   0.975  0.0253  0.0854 -0.1167
12703TIP3    H159524   6.411   1.702   0.963 -0.1340  0.2321 -2.0856
12703TIP3    H259525   6.344   1.814   0.887  1.9798  3.2238  0.1890
12704TIP3   OH259526   2.560   2.362   4.746  0.3211 -0.5419  0.2297
12704TIP3    H159527   2.509   2.378   4.825 -1.1021  1.4210 -0.9963
12704TIP3    H259528   2.511   2.293   4.700  0.8583 -1.3055  0.7840
12705TIP3   OH259529   6.074   0.693  14.795 -0.0505  0.0865 -0.2747
12705TIP3    H159530   6.087   0.618  14.737  0.0598  0.4831 -0.7717
12705TIP3    H259531   6.027   0.757  14.741  0.0337  0.4529  0.0807
12706TIP3   OH259532   4.505   4.851   3.659 -0.3528  0.3284 -0.1651
12706TIP3    H159533   4.469   4.763   3.654 -0.1150  0.2479 -0.5410
12706TIP3    H259534   4.591   4.844   3.616 -0.3239  0.7348 -0.1765
12707TIP3   OH259535   6.048   4.519  15.174 -0.9564 -0.5900  0.5673
12707TIP3    H159536   5.983   4.526  15.244 -0.8535 -1.1933  0.7264
12707TIP3    H259537   6.058   4.609  15.142 -0.3643 -0.1636  1.8939
12708TIP3   OH259538   3.732   4.608   2.580 -0.9006 -0.4175  0.6593
12708TIP3    H159539   3.753   4.630   2.671  2.0853  1.0934 -0.2658
12708TIP3    H259540   3.781   4.527   2.564  1.4020  1.1041 -0.4632
12709TIP3   OH259541   4.779   5.986   4.343  0.0501  0.5252 -0.0054
12709TIP3    H159542   4.689   5.955   4.340 -0.2354  1.3419 -0.1270
12709TIP3    H259543   4.800   6.011   4.253  0.2026  0.8843  0.1278
12710TIP3   OH259544   3.164   3.664  14.145  0.0832 -0.3168  0.0753
12710TIP3    H159545   3.114   3.672  14.063 -1.9573 -0.7333  1.2189
12710TIP3    H259546   3.176   3.754  14.175 -0.6366 -0.2493  0.1666
12711TIP3   OH259547   1.200   5.424   2.912 -0.5572 -0.1386  0.4401
12711TIP3    H159548   1.139   5.349   2.917 -0.1765 -0.4897 -0.1160
12711TIP3    H259549   1.222   5.442   3.004  0.3516 -1.5514  0.5365
12712TIP3   OH259550   1.464   6.193   4.447  0.0839  0.2155 -0.0160
12712TIP3    H159551   1.439   6.126   4.510 -1.3091 -0.1529 -0.9246
12712TIP3    H259552   1.554   6.170   4.423  0.6218  0.3252  1.7336
12713TIP3   OH259553   5.337   1.614  10.370 -0.2556  0.2375  0.0529
12713TIP3    H159554   5.268   1.663  10.323  0.0636 -0.9979 -1.7996
12713TIP3    H259555   5.401   1.681  10.393 -0.4451  0.9250 -1.2719
12714TIP3   OH259556   5.136   3.978  12.845 -0.1113 -0.4487  0.2431
12714TIP3    H159557   5.149   3.973  12.940 -1.5639 -0.9063  0.4446
12714TIP3    H259558   5.164   3.892  12.813  1.0146 -0.0638  0.1523
12715TIP3   OH259559   1.136   4.018  15.646  1.1538 -0.2392  0.0629
12715TIP3    H159560   1.110   3.949  15.707  2.8093 -0.4505  0.5783
12715TIP3    H259561   1.065   4.082  15.649  0.8215 -0.6548  1.5721
12716TIP3   OH259562   2.250   2.298   1.564 -0.4101 -0.2717  0.2245
12716TIP3    H159563   2.240   2.232   1.633  0.3718 -1.6680 -0.9544
12716TIP3    H259564   2.339   2.330   1.574  0.0680 -1.2436 -0.7640
12717TIP3   OH259565   2.402   4.535  10.989  0.2969 -0.2128  0.5838
12717TIP3    H159566   2.432   4.484  10.914 -0.3124 -2.4710  1.7826
12717TIP3    H259567   2.322   4.579  10.958  0.9680  0.2425 -0.5532
12718TIP3   OH259568   0.874   6.469   3.742 -0.0773  0.2711  0.0250
12718TIP3    H159569   0.859   6.448   3.834  0.4689  0.5734  0.1838
12718TIP3    H259570   0.959   6.431   3.721 -2.2038 -4.1875 -1.7373
12719TIP3   OH259571   3.605   5.947   1.359 -0.4056  0.1868 -0.4649
12719TIP3    H159572   3.650   6.020   1.316 -1.6539  0.4610 -1.3609
12719TIP3    H259573   3.577   5.983   1.443 -1.1344  0.7963 -0.9602
12720TIP3   OH259574   1.886   2.657  12.200 -0.3549  0.0068 -0.9947
12720TIP3    H159575   1.795   2.644  12.175 -0.2108 -0.2211 -1.4059
12720TIP3    H259576   1.891   2.749  12.226 -0.9213 -0.2245 -0.0089
12721TIP3   OH259577   5.688   0.315   2.008 -0.0473  0.5604  0.3049
12721TIP3    H159578   5.694   0.366   2.089 -0.0212 -1.8760  1.9250
12721TIP3    H259579   5.684   0.224   2.037 -2.1730 -0.3273 -2.3571
12722TIP3   OH259580   2.370   2.300  16.198  0.0928  0.4327 -0.2342
12722TIP3    H159581   2.322   2.321  16.279  1.0571  0.8099  0.2573
12722TIP3    H259582   2.462   2.299  16.225  0.2874 -3.7416 -0.3151
12723TIP3   OH259583   1.871   4.177  12.002 -0.0565 -0.2762 -0.5542
12723TIP3    H159584   1.916   4.122  11.938 -2.1655 -1.0845 -1.4482
12723TIP3    H259585   1.821   4.239  11.949 -1.6049 -0.7555  0.2808
12724TIP3   OH259586   6.412   0.068   3.718  0.4310 -0.3626 -0.0496
12724TIP3    H159587   6.386   0.148   3.673 -0.1541  0.0060  0.9146
12724TIP3    H259588   6.363  -0.002   3.674 -1.1143  0.1522  0.8188
12725TIP3   OH259589   1.554   0.084   3.732 -0.4410  0.7428  0.4731
12725TIP3    H159590   1.463   0.077   3.702 -0.0508  0.1864 -0.6379
12725TIP3    H259591   1.571   0.178   3.736 -2.1365  1.0654  4.1991
12726TIP3   OH259592   4.027   2.513   3.286 -0.2395 -0.3238  0.2712
12726TIP3    H159593   3.946   2.512   3.337 -0.1641  0.6903  0.4376
12726TIP3    H259594   4.000   2.539   3.198 -0.1778 -0.5989  0.1712
12727TIP3   OH259595   1.551   1.913  16.424 -0.3239 -0.1465  0.0727
12727TIP3    H159596   1.487   1.892  16.357  1.0938 -3.3457 -0.4712
12727TIP3    H259597   1.587   1.998  16.398 -0.2915 -0.9553 -2.9157
12728TIP3   OH259598   6.123   5.786   6.514  0.4695  0.0251 -0.2957
12728TIP3    H159599   6.048   5.835   6.481  0.5083 -0.2439 -0.7873
12728TIP3    H259600   6.124   5.705   6.463 -0.1908 -0.9696  1.2011
12729TIP3   OH259601   1.067   0.812  16.210 -0.3168 -0.3800 -0.7727
12729TIP3    H159602   1.084   0.719  16.198 -1.1566 -0.5172 -0.9058
12729TIP3    H259603   0.983   0.817  16.254  0.3088  0.2880  0.3951
12730TIP3   OH259604   2.393   4.895  16.509  0.2378 -0.0434 -0.8605
12730TIP3    H159605   2.388   4.802  16.530  1.1820 -0.1379 -1.0037
12730TIP3    H259606   2.383   4.899  16.413  1.5249 -0.1355 -1.0164
12731TIP3   OH259607   5.131   6.704   0.601 -0.0935 -0.7186 -0.3573
12731TIP3    H159608   5.048   6.678   0.641  0.7786 -1.8872  0.7802
12731TIP3    H259609   5.120   6.686   0.508 -0.8947 -1.4879 -0.1257
12732TIP3   OH259610   2.213   2.862   2.205 -0.1353  0.0699  0.4723
12732TIP3    H159611   2.157   2.897   2.135  1.0746 -0.8994 -1.0461
12732TIP3    H259612   2.177   2.775   2.222 -0.9420  0.6224  1.6902
12733TIP3   OH259613   4.082   4.968   3.783  0.4134 -0.1964 -0.3496
12733TIP3    H159614   4.092   5.044   3.726  1.3552 -1.2245 -1.6059
12733TIP3    H259615   4.054   4.898   3.725 -2.6218 -0.3606  1.1357
12734TIP3   OH259616   6.558   0.403   1.526 -0.5107 -0.5018 -0.4358
12734TIP3    H159617   6.507   0.388   1.605 -1.0883  2.4458 -0.1431
12734TIP3    H259618   6.649   0.410   1.556 -0.3678 -2.0308 -0.4484
12735TIP3   OH259619   0.404   4.417  12.020 -0.0272  0.3385 -0.5252
12735TIP3    H159620   0.431   4.380  12.104  0.3060  0.5689 -0.5247
12735TIP3    H259621   0.487   4.431  11.974 -0.2542 -0.7458 -1.3086
12736TIP3   OH259622   1.864   1.695  13.149 -0.2558  0.8059  0.5940
12736TIP3    H159623   1.891   1.697  13.240 -1.8062  0.5066  1.0982
12736TIP3    H259624   1.785   1.749  13.147  0.8446  2.4735 -0.9897
12737TIP3   OH259625   4.162   1.697   3.692  0.1969 -0.1569 -0.2557
12737TIP3    H159626   4.204   1.700   3.606  1.9490  1.5690  0.5752
12737TIP3    H259627   4.140   1.605   3.706  1.3878 -0.7119 -1.8549
12738TIP3   OH259628   2.036   2.822   0.860 -0.2597 -0.2897  0.0954
12738TIP3    H159629   1.990   2.872   0.927 -0.7547  0.1590 -0.5672
12738TIP3    H259630   1.993   2.845   0.778 -0.0069 -1.2328 -0.3243
12739TIP3   OH259631   2.484   6.386  13.109 -0.2888  0.6955  0.3796
12739TIP3    H159632   2.474   6.415  13.199 -0.3940 -1.3774  1.0645
12739TIP3    H259633   2.577   6.400  13.089  0.5364 -1.8869  1.9831
12740TIP3   OH259634   1.980   5.860   3.290 -0.0336  0.2300 -0.4074
12740TIP3    H159635   2.070   5.889   3.307 -0.1971 -0.1218  1.2630
12740TIP3    H259636   1.963   5.793   3.357 -1.5062  0.2186 -0.7475
12741TIP3   OH259637   3.190   0.369   3.619  0.1556  0.5662 -0.6233
12741TIP3    H159638   3.257   0.307   3.647  0.2096  0.2622 -1.4174
12741TIP3    H259639   3.162   0.412   3.701  0.9393  0.3321 -0.2204
12742TIP3   OH259640   3.338   0.011  11.368  0.0860 -0.7164 -0.2236
12742TIP3    H159641   3.321   0.037  11.277  0.5144 -0.2029 -0.1615
12742TIP3    H259642   3.414  -0.047  11.363 -0.0157 -0.8506 -0.2145
12743TIP3   OH259643   4.597   1.723   1.504  0.2202  0.4628 -0.7782
12743TIP3    H159644   4.550   1.678   1.575 -0.1935  0.0083 -1.3289
12743TIP3    H259645   4.665   1.661   1.478  0.5695  0.7578 -0.5738
12744TIP3   OH259646   1.315   2.514  10.196  0.3021 -0.4528 -0.5674
12744TIP3    H159647   1.364   2.516  10.278  2.6441  0.9316 -1.8910
12744TIP3    H259648   1.349   2.589  10.146 -0.4941 -1.6720 -3.1012
12745TIP3   OH259649   3.398   2.464   3.488 -0.0994 -0.4743  0.6588
12745TIP3    H159650   3.310   2.500   3.494 -0.3659 -0.9135 -0.3327
12745TIP3    H259651   3.455   2.536   3.512 -0.6754  0.2687 -0.1181
12746TIP3   OH259652   5.973   6.599   4.231  0.8246  0.2329  0.1791
12746TIP3    H159653   5.978   6.596   4.136  0.3807 -1.3828  0.1719
12746TIP3    H259654   5.884   6.627   4.250  0.8512  0.3558  0.1232
12747TIP3   OH259655   3.801   0.149   1.861  0.4438 -0.3855 -0.2290
12747TIP3    H159656   3.832   0.238   1.878 -2.0161  0.5149 -0.0543
12747TIP3    H259657   3.723   0.161   1.807  1.3182 -2.6012 -2.1545
12748TIP3   OH259658   1.704   1.382  10.918  0.5861  0.1371  0.7381
12748TIP3    H159659   1.645   1.359  10.846  0.5352  0.0922  0.7939
12748TIP3    H259660   1.704   1.304  10.974  1.5575 -0.2859  0.1665
12749TIP3   OH259661   3.884   6.769  11.619  0.4761  0.3896  0.5186
12749TIP3    H159662   3.968   6.725  11.628  0.0221 -0.6691 -0.2438
12749TIP3    H259663   3.819   6.699  11.624 -0.3923  1.2293  1.4083
12750TIP3   OH259664   4.852   0.866   3.799 -0.5257  0.5935 -0.1101
12750TIP3    H159665   4.918   0.871   3.868  0.2335 -2.4850 -0.4490
12750TIP3    H259666   4.897   0.896   3.720  1.1962 -2.8613 -0.6580
12751TIP3   OH259667   3.946   3.969   0.403  0.4527 -0.2548 -0.1364
12751TIP3    H159668   3.873   3.907   0.404  0.1450  0.0723 -1.1077
12751TIP3    H259669   4.010   3.932   0.464 -0.7633 -0.2348  1.1937
12752TIP3   OH259670   6.443   1.080   0.301  0.2517  0.5818 -0.0099
12752TIP3    H159671   6.465   1.075   0.208 -2.0476 -0.3586 -0.5781
12752TIP3    H259672   6.470   0.995   0.336 -2.0225 -0.5050 -0.6707
12753TIP3   OH259673   1.174   5.858   0.073 -0.1964 -0.6104 -0.2408
12753TIP3    H159674   1.103   5.796   0.093  0.5180 -1.6250 -0.7923
12753TIP3    H259675   1.253   5.805   0.073  0.6654  0.5914  0.8512
12754TIP3   OH259676   2.775   2.075  10.747  0.3481 -0.3021 -0.3089
12754TIP3    H159677   2.692   2.075  10.796  0.5590  0.5997  0.0598
12754TIP3    H259678   2.816   2.158  10.769  2.4380 -1.6448  1.3419
12755TIP3   OH259679   4.090   2.299   5.047  0.0618  0.7836 -0.6147
12755TIP3    H159680   4.066   2.292   5.139  0.9946  0.6947 -0.3650
12755TIP3    H259681   4.052   2.222   5.005  0.5117  0.2796 -0.1017
12756TIP3   OH259682   3.881   4.421   5.492  0.0355  0.6672  0.3881
12756TIP3    H159683   3.888   4.515   5.507  0.2551  0.7797 -0.3520
12756TIP3    H259684   3.971   4.394   5.473 -0.0721  0.3609  0.3127
12757TIP3   OH259685   3.639   5.649  11.613  0.4770 -0.2168  0.0142
12757TIP3    H159686   3.570   5.582  11.613 -1.0383  1.2578  0.5351
12757TIP3    H259687   3.655   5.667  11.705 -0.1216  1.0760 -0.1167
12758TIP3   OH259688   1.391   6.047   1.565  0.7101 -0.4214 -0.6089
12758TIP3    H159689   1.457   5.989   1.527  0.3115  0.3904 -2.6180
12758TIP3    H259690   1.440   6.105   1.623  1.4339 -1.2042 -0.4151
12759TIP3   OH259691   6.681   3.232  11.132  0.4778  0.1121 -0.3842
12759TIP3    H159692   6.713   3.259  11.218  1.9695 -1.8704 -0.2623
12759TIP3    H259693   6.586   3.221  11.145  0.7660 -0.8231  1.2176
12760TIP3   OH259694   1.990   6.207   3.924  0.9636  0.0391 -0.0967
12760TIP3    H159695   1.949   6.289   3.952  0.1128 -0.2490 -0.4683
12760TIP3    H259696   1.998   6.155   4.004  1.4865  0.4714  0.1362
12761TIP3   OH259697   5.383   2.632   3.235 -0.0989 -0.5670 -0.2039
12761TIP3    H159698   5.302   2.675   3.261  0.7242  0.6791  0.4196
12761TIP3    H259699   5.408   2.677   3.153  0.1390 -0.7005 -0.2057
12762TIP3   OH259700   4.048   0.106  16.912 -0.1112 -0.1178  0.0480
12762TIP3    H159701   3.957   0.106  16.880 -0.6276  1.1920  1.4042
12762TIP3    H259702   4.090   0.179  16.866  0.0485 -0.2431 -0.0075
12763TIP3   OH259703   1.351   1.334   2.413 -0.4924  0.1401  0.0796
12763TIP3    H159704   1.323   1.386   2.488 -0.8188 -1.5368  1.1691
12763TIP3    H259705   1.443   1.313   2.432 -0.0548  1.1133 -0.8472
12764TIP3   OH259706   1.645   6.668  15.089  0.2428  0.2905  0.3426
12764TIP3    H159707   1.727   6.660  15.138 -0.9741 -1.8427  2.2019
12764TIP3    H259708   1.602   6.745  15.126 -0.4884 -1.0829  2.4757
12765TIP3   OH259709   4.096   4.127   4.115  0.2857 -0.3380 -0.2150
12765TIP3    H159710   4.162   4.120   4.046 -1.0314  1.8047 -1.8516
12765TIP3    H259711   4.112   4.213   4.154 -0.8254 -0.2647  0.1135
12766TIP3   OH259712   0.385   2.929   0.574  0.0801  0.3366  0.4868
12766TIP3    H159713   0.304   2.975   0.554 -0.6427 -0.9496  0.3947
12766TIP3    H259714   0.438   2.994   0.621 -1.6050  0.7169  1.9638
12767TIP3   OH259715   2.692   2.638   2.972 -0.2006  0.6968  0.1001
12767TIP3    H159716   2.736   2.571   2.920 -2.0408 -0.5327  0.0340
12767TIP3    H259717   2.759   2.669   3.033  1.1172 -0.0835 -0.9122
12768TIP3   OH259718   3.344   5.736  12.435  0.1122  0.3174  0.3319
12768TIP3    H159719   3.307   5.680  12.367  0.8093  0.7670 -0.4327
12768TIP3    H259720   3.431   5.760  12.402  1.5872 -1.5584  2.5424
12769TIP3   OH259721   6.600   0.455   2.682 -0.4801  0.1613  0.1384
12769TIP3    H159722   6.583   0.387   2.618  1.4798 -0.3090  0.0499
12769TIP3    H259723   6.601   0.536   2.631 -0.6863 -0.0025 -0.1254
12770TIP3   OH259724   6.369   4.421  15.648 -0.3588  0.2287 -0.4368
12770TIP3    H159725   6.435   4.352  15.657 -0.3906  0.2657  0.0919
12770TIP3    H259726   6.393   4.486  15.713 -0.8308  0.3151 -0.3452
12771TIP3   OH259727   2.225   0.012   2.135  0.1165  0.1921 -0.0036
12771TIP3    H159728   2.202  -0.081   2.143 -0.8103  0.3761 -0.4683
12771TIP3    H259729   2.272   0.032   2.216  2.2373 -1.2228 -0.7901
12772TIP3   OH259730   3.817   6.079  13.935 -0.5255 -0.3003  0.6092
12772TIP3    H159731   3.778   6.036  13.858 -0.3321  0.3078  0.1586
12772TIP3    H259732   3.747   6.082  13.999 -1.3776  1.0915 -0.3161
12773TIP3   OH259733   2.665   0.150  16.128  0.1593 -0.1597  0.3913
12773TIP3    H159734   2.593   0.185  16.180 -0.0928 -0.0125 -0.0493
12773TIP3    H259735   2.637   0.061  16.107 -0.2369  0.1455 -0.4040
12774TIP3   OH259736   0.295   2.723   4.971 -0.1671 -0.1427 -0.1059
12774TIP3    H159737   0.387   2.730   4.944 -0.6319 -0.9004 -2.1287
12774TIP3    H259738   0.286   2.633   5.002 -0.5899 -0.6540 -1.6296
12775TIP3   OH259739   1.958   0.721   3.930 -0.1996  0.0594 -0.3401
12775TIP3    H159740   1.936   0.679   3.847  1.3921  0.3292 -0.9294
12775TIP3    H259741   2.030   0.781   3.908  1.2475 -0.9182  1.4843
12776TIP3   OH259742   6.339   6.336   2.316  0.7778  0.3399  0.1986
12776TIP3    H159743   6.328   6.243   2.337 -1.4360  0.8103  1.3849
12776TIP3    H259744   6.259   6.360   2.271  0.8949  1.9023  0.7750
12777TIP3   OH259745   5.348   2.036   5.598 -0.6238  0.0284 -0.7768
12777TIP3    H159746   5.255   2.025   5.619  0.0844 -0.8577  2.3772
12777TIP3    H259747   5.391   1.962   5.641  1.8393  2.0275  0.4532
12778TIP3   OH259748   2.697   1.928  14.747  0.0755  0.1526 -0.1207
12778TIP3    H159749   2.682   1.914  14.840  0.0165 -0.8667 -0.2704
12778TIP3    H259750   2.665   2.016  14.730 -1.6720 -0.3357  0.4625
12779TIP3   OH259751   0.794   1.878   5.870  0.0513 -0.0974 -0.0759
12779TIP3    H159752   0.710   1.864   5.826 -1.2431  0.2969  2.1227
12779TIP3    H259753   0.839   1.795   5.862 -0.2304 -0.1330 -1.8370
12780TIP3   OH259754   0.206   4.939   6.260  0.5447 -1.0087  0.1991
12780TIP3    H159755   0.272   4.993   6.302 -0.0443  0.8929 -1.2149
12780TIP3    H259756   0.133   4.998   6.242  0.1780 -2.0384 -2.1472
12781TIP3   OH259757   6.023   0.786   1.991  0.3886 -0.5836 -0.2357
12781TIP3    H159758   5.974   0.709   2.020 -1.0056  0.4947  0.4115
12781TIP3    H259759   5.982   0.859   2.037  1.0792  0.6561 -1.5096
12782TIP3   OH259760   2.538   6.719   2.872 -0.2541  0.0858  0.7840
12782TIP3    H159761   2.502   6.668   2.945 -2.2151  0.2135 -0.0406
12782TIP3    H259762   2.534   6.660   2.797 -0.7949  0.8349  0.2131
12783TIP3   OH259763   6.602   1.501  12.337  0.2107  0.0255 -0.1519
12783TIP3    H159764   6.626   1.584  12.378  0.8016 -0.5258  0.6737
12783TIP3    H259765   6.570   1.447  12.410 -0.2876 -0.4265 -0.6949
12784TIP3   OH259766   4.718   6.637  16.374 -0.2574  0.3438  0.0307
12784TIP3    H159767   4.781   6.632  16.446  0.2734  3.7580 -0.0237
12784TIP3    H259768   4.663   6.559  16.384  2.3370 -1.4238  1.6144
12785TIP3   OH259769   1.455   5.510  14.373  0.3266 -0.3196  0.0940
12785TIP3    H159770   1.421   5.590  14.332  0.5734  0.5261  1.4689
12785TIP3    H259771   1.426   5.440  14.316  0.5659  0.7864 -1.4680
12786TIP3   OH259772   2.638   1.252   4.962  0.4948 -0.0055  0.3115
12786TIP3    H159773   2.663   1.219   4.875 -0.6081 -1.1906  0.4170
12786TIP3    H259774   2.721   1.254   5.011  1.1660  0.8536 -0.7918
12787TIP3   OH259775   3.612   4.065   2.291  0.3708 -0.2450 -0.2161
12787TIP3    H159776   3.554   4.054   2.215  0.1252 -0.7409  0.0350
12787TIP3    H259777   3.626   4.159   2.298  0.3220 -0.1929 -0.8248
12788TIP3   OH259778   3.675   3.238   0.514  0.0139 -0.0098 -0.3014
12788TIP3    H159779   3.634   3.319   0.545 -0.3490  0.0038 -0.8169
12788TIP3    H259780   3.613   3.169   0.539  0.7210 -0.2325  0.9120
12789TIP3   OH259781   5.962   6.026  17.053 -0.3697  0.1489 -0.3580
12789TIP3    H159782   5.899   6.097  17.037  0.6630  1.0105 -0.7219
12789TIP3    H259783   6.046   6.062  17.025  0.6810 -0.1810  2.1383
12790TIP3   OH259784   4.133   6.609   0.012  0.6695 -0.4766  0.0273
12790TIP3    H159785   4.204   6.550  -0.012  0.3336 -0.8602 -0.0206
12790TIP3    H259786   4.153   6.634   0.103  1.9070  0.9402 -0.6034
12791TIP3   OH259787   1.332   2.731   2.132  0.6841 -0.1297  0.0608
12791TIP3    H159788   1.401   2.681   2.090 -0.4384 -2.4637  0.7958
12791TIP3    H259789   1.361   2.739   2.223  0.5508 -0.0648  0.0978
12792TIP3   OH259790   3.480   3.147  13.921 -0.2981  1.0520  0.0818
12792TIP3    H159791   3.388   3.133  13.899 -0.1914 -0.4329  0.4559
12792TIP3    H259792   3.511   3.061  13.949  1.4878  1.2998 -1.0178
12793TIP3   OH259793   0.449   2.378   5.378 -0.0042  0.3184  0.2194
12793TIP3    H159794   0.498   2.460   5.377 -0.2322  0.4604 -1.0833
12793TIP3    H259795   0.516   2.311   5.394 -0.0762  0.8521  3.3451
12794TIP3   OH259796   2.493   2.644   4.677  0.0914 -0.2619  0.2566
12794TIP3    H159797   2.498   2.652   4.772  1.5613  0.4271  0.1448
12794TIP3    H259798   2.508   2.551   4.659 -0.9192 -0.5241  0.7198
12795TIP3   OH259799   2.974   1.168   1.025 -0.1876 -0.3844  0.2945
12795TIP3    H159800   2.983   1.140   1.116  0.3347 -0.2443  0.2917
12795TIP3    H259801   2.942   1.091   0.979  2.0337 -1.2856  0.1198
12796TIP3   OH259802   1.557   1.791  16.937 -0.1633  0.7406 -0.3070
12796TIP3    H159803   1.580   1.880  16.910 -0.2751  0.8600 -0.0035
12796TIP3    H259804   1.500   1.802  17.013  0.3579  0.3903  0.1437
12797TIP3   OH259805   0.985   3.372   3.832 -0.4373 -0.3325  0.2253
12797TIP3    H159806   1.075   3.342   3.846 -0.1137  0.5642  0.1641
12797TIP3    H259807   0.930   3.298   3.857  0.3484 -1.4763 -1.3336
12798TIP3   OH259808   3.492   5.306   2.095 -0.2508 -0.0183  0.7813
12798TIP3    H159809   3.465   5.343   2.179 -1.4761 -0.6626  0.7046
12798TIP3    H259810   3.493   5.211   2.110 -2.4269 -0.3128 -0.3872
12799TIP3   OH259811   0.959   1.121  16.167 -0.0694  0.0593 -0.4033
12799TIP3    H159812   0.928   1.044  16.215 -0.2019  1.1535  1.3292
12799TIP3    H259813   0.906   1.123  16.088 -2.1688  0.0223  0.9312
12800TIP3   OH259814   6.150   4.226  16.979  0.2072  0.1548  0.1395
12800TIP3    H159815   6.075   4.285  16.971 -0.7474 -0.8860  0.9851
12800TIP3    H259816   6.138   4.161  16.909  0.5436  0.2149  0.0241
12801TIP3   OH259817   5.405   3.032   3.317 -0.2537 -0.1888  0.5705
12801TIP3    H159818   5.448   2.954   3.351  0.3743  0.8591  2.3890
12801TIP3    H259819   5.333   3.048   3.378 -1.0171  0.0619 -0.3833
12802TIP3   OH259820   5.967   0.525   4.656  0.2118  0.3770  0.3104
12802TIP3    H159821   5.957   0.479   4.740  0.0550  0.2394  0.2151
12802TIP3    H259822   6.040   0.585   4.671  0.2996  0.2261  0.4920
12803TIP3   OH259823   0.754   1.283   4.338 -0.2820 -0.5371 -0.4280
12803TIP3    H159824   0.669   1.270   4.379  1.5090  0.7691  4.3498
12803TIP3    H259825   0.751   1.373   4.305 -0.7065 -0.4321 -0.1141
12804TIP3   OH259826   3.337   1.637   3.271 -0.4626 -0.1119 -0.4129
12804TIP3    H159827   3.266   1.667   3.328  0.3857  1.5435 -0.1799
12804TIP3    H259828   3.344   1.705   3.203  1.5917  0.3483  0.1915
12805TIP3   OH259829   0.331   6.314   3.108  0.3801  0.1436 -0.8441
12805TIP3    H159830   0.359   6.280   3.193 -0.5208 -2.6534 -1.5687
12805TIP3    H259831   0.263   6.378   3.129  0.9392  0.3177  0.5498
12806TIP3   OH259832   5.385   0.801  12.547  0.2020 -0.0248  0.4743
12806TIP3    H159833   5.345   0.871  12.496  0.9904 -0.6587 -1.0448
12806TIP3    H259834   5.465   0.778  12.500  1.2089 -0.3228  2.2410
12807TIP3   OH259835   0.988   3.118  13.546  0.0545 -0.2541  0.2075
12807TIP3    H159836   1.083   3.116  13.547  0.0857 -0.3711 -1.0020
12807TIP3    H259837   0.963   3.139  13.636  1.2751  1.6057  0.1644
12808TIP3   OH259838   0.205   4.642  11.825  0.2293 -0.5565  0.0393
12808TIP3    H159839   0.240   4.580  11.760  0.4560 -0.2682 -0.1140
12808TIP3    H259840   0.233   4.728  11.794 -0.0320 -0.3807  0.2888
12809TIP3   OH259841   0.997   2.758   2.547  0.2734 -0.3654 -0.6204
12809TIP3    H159842   1.043   2.684   2.508  2.1858  0.0069  0.8380
12809TIP3    H259843   1.056   2.792   2.614 -2.1201  0.1423  1.3889
12810TIP3   OH259844   5.045   2.648  16.323 -0.7907 -0.0997  0.1890
12810TIP3    H159845   4.964   2.699  16.328 -0.7842 -0.1802  1.2499
12810TIP3    H259846   5.049   2.620  16.231 -0.9363  1.5647 -0.3774
12811TIP3   OH259847   4.033   1.061   2.842 -0.0406  0.1134 -0.3023
12811TIP3    H159848   3.985   1.089   2.920 -1.7014  0.0656 -1.2702
12811TIP3    H259849   4.000   0.973   2.824  2.7965 -1.3301  0.8335
12812TIP3   OH259850   5.279   5.623   1.828 -0.0655  0.1548  0.7578
12812TIP3    H159851   5.370   5.608   1.853 -0.4425 -2.3401  0.8502
12812TIP3    H259852   5.270   5.581   1.743 -0.2855  3.5865 -1.0989
12813TIP3   OH259853   3.211   1.103  10.235 -0.0346 -0.0272  0.2326
12813TIP3    H159854   3.295   1.072  10.269  1.2102  1.5238 -1.2896
12813TIP3    H259855   3.203   1.061  10.150 -0.8563 -0.1996  0.3873
12814TIP3   OH259856   1.970   2.919   4.298 -0.0842  0.0154  0.8617
12814TIP3    H159857   1.877   2.901   4.283 -0.3913  0.8782  1.5887
12814TIP3    H259858   1.973   3.014   4.315  1.2477  0.4235 -1.3704
12815TIP3   OH259859   5.931   4.919   5.427 -0.1128 -0.3218  0.5069
12815TIP3    H159860   5.847   4.950   5.459 -0.0361 -1.3353  1.8078
12815TIP3    H259861   5.995   4.957   5.488  0.0479 -2.2376  1.6043
12816TIP3   OH259862   1.521   4.302  11.193  0.4972 -0.0857  0.8797
12816TIP3    H159863   1.492   4.224  11.240  1.1270 -1.0037 -0.2132
12816TIP3    H259864   1.602   4.275  11.150  1.4274  1.5612  1.5277
12817TIP3   OH259865   3.898   2.602   2.470  0.5174 -0.2887  0.3413
12817TIP3    H159866   3.853   2.581   2.552  1.3891  0.2130  0.9642
12817TIP3    H259867   3.882   2.696   2.457  2.2372  0.1623  1.1525
12818TIP3   OH259868   2.930   0.658   5.823 -0.0710 -0.2704  0.5264
12818TIP3    H159869   2.939   0.690   5.913 -0.5447 -1.7857  1.1451
12818TIP3    H259870   2.837   0.671   5.803  0.1439  0.5862  0.0245
12819TIP3   OH259871   2.994   1.445   3.619  0.4531  0.7058  0.2552
12819TIP3    H159872   2.993   1.454   3.714 -0.6619  1.6742  0.1724
12819TIP3    H259873   3.012   1.352   3.604  1.1941  0.6494  1.3911
12820TIP3   OH259874   4.172   1.526   3.431  0.0042  0.4878 -0.2429
12820TIP3    H159875   4.098   1.486   3.477 -0.2093  0.9413 -0.1795
12820TIP3    H259876   4.249   1.479   3.462  0.0115  1.5902  1.5218
12821TIP3   OH259877   2.383   3.790  14.136 -0.3557 -0.5813  0.0619
12821TIP3    H159878   2.413   3.699  14.138  0.7663 -0.2190  0.5380
12821TIP3    H259879   2.351   3.806  14.225 -1.7668 -0.8840 -0.3698
12822TIP3   OH259880   4.213   3.336  15.793  0.3195  0.0961  0.8834
12822TIP3    H159881   4.185   3.424  15.766 -0.3104 -0.0531  1.0437
12822TIP3    H259882   4.207   3.283  15.713  0.3114  0.1003  0.8816
12823TIP3   OH259883   5.859   1.044  11.005 -0.0229  0.3733 -0.0011
12823TIP3    H159884   5.810   1.040  11.087 -1.0333  0.6121 -0.5748
12823TIP3    H259885   5.877   1.137  10.992  1.8729  0.1824  0.9188
12824TIP3   OH259886   6.596   3.526   1.621 -0.2889 -0.4208  0.0292
12824TIP3    H159887   6.507   3.560   1.614  0.4748  1.7808 -0.0566
12824TIP3    H259888   6.609   3.511   1.715 -0.0418  1.5607  0.3651
12825TIP3   OH259889   5.528   3.546   5.147  0.0412  0.8823 -0.3500
12825TIP3    H159890   5.577   3.626   5.166  0.6166 -0.0578  2.7841
12825TIP3    H259891   5.594   3.477   5.148 -0.8505  0.0120  0.3790
12826TIP3   OH259892   3.796   2.623   1.678  0.1683  0.2109  0.2873
12826TIP3    H159893   3.759   2.542   1.713 -2.2372  1.2521  0.4167
12826TIP3    H259894   3.836   2.666   1.754  0.4268 -0.3160  0.4540
12827TIP3   OH259895   3.249   3.931   5.510  0.3719  0.1799  0.2910
12827TIP3    H159896   3.214   3.842   5.508  1.2095 -0.2190  1.7135
12827TIP3    H259897   3.276   3.943   5.601  0.2683  1.9017  0.1147
12828TIP3   OH259898   6.371   0.853  14.755  0.4529 -0.0815  0.3952
12828TIP3    H159899   6.286   0.810  14.752  0.9148 -1.0051 -1.7070
12828TIP3    H259900   6.433   0.787  14.722  1.3227  1.7745 -2.0424
12829TIP3   OH259901   5.861   5.204   4.452 -0.3567  0.1277 -0.6595
12829TIP3    H159902   5.891   5.114   4.455  1.2124  0.5943 -1.2164
12829TIP3    H259903   5.887   5.241   4.537 -0.8378  0.1130 -0.5018
12830TIP3   OH259904   3.356   1.368   1.129 -0.2811  0.8532 -0.5278
12830TIP3    H159905   3.362   1.315   1.208 -1.2555 -0.4459 -1.2863
12830TIP3    H259906   3.332   1.455   1.160  0.5027  0.6501  0.6818
12831TIP3   OH259907   1.619   1.877   1.222 -0.0401  0.0945  0.2117
12831TIP3    H159908   1.531   1.892   1.186 -0.7404 -0.7551  1.4789
12831TIP3    H259909   1.647   1.794   1.183  0.3892  0.5772 -0.5194
12832TIP3   OH259910   1.034   2.973  16.290 -0.2484 -0.2580  0.4514
12832TIP3    H159911   1.107   2.987  16.351  0.0580 -0.4033  0.1216
12832TIP3    H259912   1.039   3.048  16.230 -1.2094  0.4722  1.2398
12833TIP3   OH259913   2.929   2.742  13.362 -0.2007  0.2667 -0.3999
12833TIP3    H159914   2.962   2.768  13.276 -1.8883  0.4209 -1.0432
12833TIP3    H259915   3.005   2.705  13.407  1.1426  1.8717 -1.2556
12834TIP3   OH259916   5.836   4.738  11.963 -0.2082 -0.1367 -0.3540
12834TIP3    H159917   5.790   4.775  11.888 -0.4200 -2.6248 -1.5658
12834TIP3    H259918   5.908   4.798  11.979 -2.0777  2.2695 -0.3187
12835TIP3   OH259919   3.398   0.429   2.686 -0.5315 -0.0392 -0.1603
12835TIP3    H159920   3.322   0.390   2.643 -0.8366 -1.0649  1.2375
12835TIP3    H259921   3.473   0.398   2.634 -1.0442  1.8134 -2.1732
12836TIP3   OH259922   2.918   1.503  15.586 -0.7071  0.2962  0.3859
12836TIP3    H159923   2.975   1.558  15.640  0.6440  0.3253 -1.0315
12836TIP3    H259924   2.921   1.542  15.499  0.6781 -2.2107 -0.7991
12837TIP3   OH259925   6.276   4.453   3.515 -0.0211 -0.2961  0.3886
12837TIP3    H159926   6.315   4.400   3.445  0.1969  0.2298  0.1057
12837TIP3    H259927   6.245   4.389   3.579 -1.0153 -0.8277 -0.5959
12838TIP3   OH259928   0.544   0.920   4.423 -0.9113  0.4302 -0.6617
12838TIP3    H159929   0.539   0.885   4.512  4.0005 -1.7947 -0.9588
12838TIP3    H259930   0.589   1.004   4.433  0.7411 -0.3678 -1.0072
12839TIP3   OH259931   5.565   2.052  16.854 -0.4697  0.2580  0.2868
12839TIP3    H159932   5.636   2.114  16.870  0.7669 -1.4812  1.9991
12839TIP3    H259933   5.485   2.103  16.873  0.5150  1.2151  2.2626
12840TIP3   OH259934   4.610   3.570   3.859 -0.3777  0.1770  0.2706
12840TIP3    H159935   4.602   3.620   3.777 -0.0038  0.4137  0.3781
12840TIP3    H259936   4.527   3.586   3.905  0.1897  1.6210  0.8224
12841TIP3   OH259937   0.038   5.099   3.497 -0.6007  0.1010  0.0185
12841TIP3    H159938  -0.052   5.121   3.518 -0.8380 -1.0790  0.2810
12841TIP3    H259939   0.091   5.154   3.555 -1.0404  2.4418 -1.6237
12842TIP3   OH259940   3.782   4.998  10.345  0.0888 -0.0149  0.1998
12842TIP3    H159941   3.795   4.906  10.365 -2.1944 -0.5946 -0.6642
12842TIP3    H259942   3.688   5.006  10.326  0.0210  2.6658  1.1711
12843TIP3   OH259943   4.744   2.272  12.084 -0.1748  0.0404  0.1853
12843TIP3    H159944   4.791   2.338  12.135 -0.6716 -0.0994  0.8368
12843TIP3    H259945   4.804   2.249  12.013 -0.0976  1.3745 -0.2146
12844TIP3   OH259946   6.393   1.127   6.613  0.0620  0.6975  0.0601
12844TIP3    H159947   6.428   1.202   6.662  2.7993 -0.0187 -0.6722
12844TIP3    H259948   6.342   1.167   6.542  0.2133  1.8125  0.5562
12845TIP3   OH259949   4.093   4.384   2.876  0.0578  0.5930 -0.4213
12845TIP3    H159950   4.116   4.314   2.936 -0.9998  0.4190 -0.2030
12845TIP3    H259951   4.116   4.464   2.922  0.1528  0.4266 -0.1810
12846TIP3   OH259952   4.596   2.669  15.354  0.2487 -0.0929  0.3295
12846TIP3    H159953   4.644   2.590  15.331  2.0759  0.6076  1.4922
12846TIP3    H259954   4.541   2.643  15.428 -0.0725 -0.5433 -0.0598
12847TIP3   OH259955   1.541   3.877   3.467  0.2669 -0.2276 -0.5676
12847TIP3    H159956   1.577   3.832   3.543  0.6523 -1.0050 -1.1911
12847TIP3    H259957   1.455   3.906   3.495  0.7415  0.2660  0.4382
12848TIP3   OH259958   1.650   4.755   1.860 -0.4787  0.8155  0.0621
12848TIP3    H159959   1.612   4.691   1.800  0.8361  0.5142 -0.4853
12848TIP3    H259960   1.581   4.820   1.874 -2.1496 -1.1018  1.2782
12849TIP3   OH259961   4.470   0.538  16.019  0.4097  0.0082 -0.3697
12849TIP3    H159962   4.465   0.442  16.015  2.0585 -0.1098 -0.5980
12849TIP3    H259963   4.383   0.566  16.047  0.3563 -1.6539  1.3160
12850TIP3   OH259964   0.428   4.517   3.346 -0.1933 -0.0952  0.2770
12850TIP3    H159965   0.441   4.542   3.255  2.1537  0.1946  0.6232
12850TIP3    H259966   0.343   4.554   3.369  0.6204  2.7805 -0.8581
12851TIP3   OH259967   2.652   5.776  13.684  0.3679 -0.8104  0.1071
12851TIP3    H159968   2.739   5.740  13.665 -0.7318 -2.4609 -2.4369
12851TIP3    H259969   2.651   5.860  13.639  1.1818  0.0297  1.6042
12852TIP3   OH259970   6.211   3.172   0.823  0.4011  0.0497  0.1660
12852TIP3    H159971   6.234   3.237   0.757  0.9729  0.3387  0.6439
12852TIP3    H259972   6.294   3.133   0.849  0.2279  0.2187  0.9985
12853TIP3   OH259973   5.163   1.790   1.995  0.1492 -0.0033  0.2701
12853TIP3    H159974   5.076   1.789   2.035 -0.7248  0.8399 -1.4968
12853TIP3    H259975   5.166   1.711   1.941 -1.4666  2.1359 -3.3480
12854TIP3   OH259976   3.428   0.848   0.327 -0.0606 -0.3391 -0.0190
12854TIP3    H159977   3.378   0.904   0.387 -0.0959 -0.0427 -0.3190
12854TIP3    H259978   3.506   0.824   0.376  1.5038  2.4678 -0.8803
12855TIP3   OH259979   4.126   2.175   2.296  0.0083 -0.4215  0.0977
12855TIP3    H159980   4.073   2.108   2.339 -1.8250  1.1512  0.4302
12855TIP3    H259981   4.213   2.166   2.335 -0.8141 -1.0723  1.8849
12856TIP3   OH259982   5.081   1.305  15.045  0.3960  0.0743  0.3448
12856TIP3    H159983   5.147   1.305  14.975 -1.0753 -3.6652 -1.3270
12856TIP3    H259984   5.096   1.387  15.092  4.2219  0.8201 -1.7430
12857TIP3   OH259985   0.654   2.583  12.112  0.4199  0.1176 -0.0138
12857TIP3    H159986   0.656   2.643  12.038  0.9056 -0.3116 -0.3567
12857TIP3    H259987   0.732   2.528  12.101  0.5512  0.1136  0.8706
12858TIP3   OH259988   1.755   2.501   4.755 -0.0065 -0.0440  0.5545
12858TIP3    H159989   1.821   2.539   4.813 -0.4239  0.0388  0.9831
12858TIP3    H259990   1.794   2.505   4.668  0.9753 -0.9597  0.9351
12859TIP3   OH259991   3.250   3.744  15.840 -0.5138  0.5292  0.0145
12859TIP3    H159992   3.265   3.650  15.851  1.1403  0.8605  0.9023
12859TIP3    H259993   3.283   3.763  15.752  0.7387  0.5428  0.4632
12860TIP3   OH259994   1.052   5.512   4.159  0.0371 -0.2575 -0.5365
12860TIP3    H159995   1.101   5.586   4.124  0.0792  0.7072  1.4303
12860TIP3    H259996   1.099   5.487   4.239 -0.7854 -1.5086 -0.4082
12861TIP3   OH259997   2.331   5.897  13.788 -0.1917  0.6773  0.5612
12861TIP3    H159998   2.247   5.885  13.743  0.3102  0.8454 -0.4579
12861TIP3    H259999   2.319   5.853  13.873 -1.3141  0.7325  0.4528
12862TIP3   OH260000   0.472   1.838  14.006 -0.0969  0.1658 -0.3341
12862TIP3    H160001   0.564   1.865  14.000 -0.7898  2.4397 -2.0093
12862TIP3    H260002   0.428   1.912  14.048 -1.5077  0.1176 -1.6397
12863TIP3   OH260003   4.943   1.250   1.480 -0.1772  0.2289 -0.1202
12863TIP3    H160004   5.036   1.254   1.460 -0.5200 -0.1967 -1.9578
12863TIP3    H260005   4.924   1.334   1.521  1.3017 -0.2883  1.7777
12864TIP3   OH260006   2.498   4.393  16.803  0.2920 -0.0605  0.0973
12864TIP3    H160007   2.576   4.406  16.749  0.1863  0.0183 -0.0383
12864TIP3    H260008   2.530   4.348  16.881  0.5393  0.3235  0.2210
12865TIP3   OH260009   2.417   1.843   5.687 -0.1442 -0.6714 -0.1847
12865TIP3    H160010   2.397   1.918   5.631 -0.1522 -1.0206 -0.6550
12865TIP3    H260011   2.366   1.772   5.650 -1.5518 -0.5051  1.3212
12866TIP3   OH260012   2.970   5.876   0.417 -0.2344  0.2266 -0.2320
12866TIP3    H160013   2.889   5.831   0.393  0.7378 -2.0018  0.4836
12866TIP3    H260014   2.984   5.939   0.347 -2.0470 -0.0403 -0.8873
12867TIP3   OH260015   3.291   2.030  11.444 -0.5431  0.4090 -0.7839
12867TIP3    H160016   3.196   2.039  11.456 -0.4489 -1.1081  2.0954
12867TIP3    H260017   3.329   2.058  11.527  1.3309 -1.3385 -0.9686
12868TIP3   OH260018   5.523   3.441  16.330  0.0836  0.1252 -0.2635
12868TIP3    H160019   5.559   3.501  16.264  1.4368 -0.0498  0.2962
12868TIP3    H260020   5.575   3.457  16.408 -0.3390 -0.9320  0.2511
12869TIP3   OH260021   5.494   0.628  14.977  0.4976 -0.6174 -0.0949
12869TIP3    H160022   5.553   0.612  14.903  0.6674 -1.0655  0.1292
12869TIP3    H260023   5.529   0.573  15.048 -0.5251 -1.3494 -0.1365
12870TIP3   OH260024   5.045   1.378  11.322  0.4455  0.4694  0.1687
12870TIP3    H160025   5.034   1.296  11.369  3.0267 -0.5296 -0.7921
12870TIP3    H260026   5.139   1.383  11.303  0.1937  3.0546 -0.8685
12871TIP3   OH260027   6.069   5.912  14.038  0.2435 -0.1584 -0.4559
12871TIP3    H160028   6.075   5.882  14.128  1.2294 -0.9730 -0.7730
12871TIP3    H260029   6.132   5.858  13.990 -0.0161  0.4880 -1.5716
12872TIP3   OH260030   2.286   3.364  12.576 -0.1252  0.2640  0.8435
12872TIP3    H160031   2.318   3.454  12.586  1.1444 -0.1619  0.8678
12872TIP3    H260032   2.335   3.314  12.642  0.5910 -0.7538 -0.3979
12873TIP3   OH260033   0.699   4.941  12.633 -0.2037 -0.0451  0.4865
12873TIP3    H160034   0.649   4.866  12.664  0.7569  0.2460  2.9848
12873TIP3    H260035   0.789   4.908  12.625 -0.1155  0.3636 -0.3757
12874TIP3   OH260036   1.746   4.831   2.627  0.3779  0.2961  0.3565
12874TIP3    H160037   1.758   4.762   2.691  1.5551  0.1908  0.0485
12874TIP3    H260038   1.788   4.798   2.547  0.9100  1.3261  0.1854
12875TIP3   OH260039   1.317   5.196   3.268  0.0179  0.2068 -0.2597
12875TIP3    H160040   1.367   5.254   3.210 -1.1798  0.6026 -0.9227
12875TIP3    H260041   1.382   5.134   3.301  1.4151  2.0438  0.6603
12876TIP3   OH260042   1.796   2.263  10.848  1.4352 -0.9877  0.3461
12876TIP3    H160043   1.773   2.241  10.758  0.6905  1.6527 -0.2042
12876TIP3    H260044   1.891   2.260  10.850  1.5616  0.6810 -1.0884
12877TIP3   OH260045   3.252   6.064  13.230 -0.0248 -0.6036 -1.3191
12877TIP3    H160046   3.243   6.144  13.283 -1.1543  0.9265 -3.6810
12877TIP3    H260047   3.341   6.069  13.195  0.3084 -1.0215 -0.5752
12878TIP3   OH260048   3.366   1.120  11.463  0.0388 -0.1791 -0.7784
12878TIP3    H160049   3.327   1.188  11.518  1.2683  0.9478 -1.2461
12878TIP3    H260050   3.318   1.125  11.381 -0.7409 -0.7715 -0.3605
12879TIP3   OH260051   6.453   0.419  11.392 -0.0922 -0.1087 -0.5092
12879TIP3    H160052   6.465   0.345  11.452 -1.2715 -0.2950 -0.4705
12879TIP3    H260053   6.434   0.379  11.308 -0.0879  0.1524 -0.6348
12880TIP3   OH260054   2.631   2.624   5.850 -0.2877  0.4512 -0.0501
12880TIP3    H160055   2.554   2.637   5.905  1.1045  0.7385  1.9186
12880TIP3    H260056   2.660   2.712   5.827 -0.1603  0.3611 -0.2413
12881TIP3   OH260057   1.087   5.618  10.765 -0.5293 -0.1956 -0.1247
12881TIP3    H160058   1.125   5.635  10.679 -0.2475 -1.7092 -0.3111
12881TIP3    H260059   1.051   5.530  10.759 -1.4592  0.0878  0.9829
12882TIP3   OH260060   2.927   3.311   0.128 -0.4522 -0.2057 -0.7278
12882TIP3    H160061   2.868   3.315   0.052  0.6138  0.7137 -1.5327
12882TIP3    H260062   2.947   3.218   0.136 -0.7489 -0.3460 -1.4453
12883TIP3   OH260063   6.538   2.090  12.209  0.1640  0.2815 -0.0792
12883TIP3    H160064   6.537   2.186  12.206  0.7896  0.2977  0.0762
12883TIP3    H260065   6.608   2.069  12.271 -1.1139 -0.2462  1.2540
12884TIP3   OH260066   1.456   0.331  14.313  0.5210 -0.1383  0.5829
12884TIP3    H160067   1.394   0.263  14.286  0.1633  0.0711  0.8828
12884TIP3    H260068   1.471   0.314  14.406  0.0210  0.5161  0.7901
12885TIP3   OH260069   2.981   2.275   3.655  0.6302 -0.2555 -0.2606
12885TIP3    H160070   2.914   2.293   3.589 -0.2534  0.7281  0.8588
12885TIP3    H260071   2.951   2.323   3.733  2.6247  0.1965  0.2812
12886TIP3   OH260072   4.777   1.529   4.096 -0.0282  0.4147 -0.3881
12886TIP3    H160073   4.778   1.596   4.164 -0.1451  2.2083 -2.0711
12886TIP3    H260074   4.831   1.564   4.025  0.0213 -1.3335 -1.2853
12887TIP3   OH260075   1.349   3.943   4.764  0.1639 -0.1529  0.1796
12887TIP3    H160076   1.273   3.946   4.823  0.2723  2.3580  0.2963
12887TIP3    H260077   1.322   3.885   4.693 -0.4390 -2.2779  2.0012
12888TIP3   OH260078   6.416   3.460  13.786  0.2176 -0.1109 -0.2419
12888TIP3    H160079   6.482   3.519  13.751 -0.1669  0.8300  0.5839
12888TIP3    H260080   6.459   3.416  13.860  0.0205  0.2895  0.1150
12889TIP3   OH260081   3.544   6.188   3.673 -0.3399  0.4994  0.3897
12889TIP3    H160082   3.500   6.260   3.626 -3.1890 -1.0827  0.3774
12889TIP3    H260083   3.535   6.212   3.765 -0.3321  0.6567  0.3510
12890TIP3   OH260084   3.122   5.864  12.495  0.6244  0.2728  0.2798
12890TIP3    H160085   3.213   5.833  12.489  0.4260 -0.0845 -1.5852
12890TIP3    H260086   3.127   5.958  12.478  0.6814  0.3538  0.7186
12891TIP3   OH260087   1.859   3.252  13.779  0.1405 -0.4477  0.0138
12891TIP3    H160088   1.767   3.239  13.802 -0.0777 -0.1151 -0.6479
12891TIP3    H260089   1.895   3.298  13.855 -0.5201  0.4513 -0.1961
12892TIP3   OH260090   2.746   0.445  13.954 -0.1181  0.1923  0.0101
12892TIP3    H160091   2.778   0.528  13.991 -1.1358  0.5013  0.2477
12892TIP3    H260092   2.737   0.388  14.030  1.4911 -0.4814 -0.2641
12893TIP3   OH260093   3.245   6.272   1.704 -0.1580 -0.6787 -1.0568
12893TIP3    H160094   3.232   6.302   1.613 -0.5053  1.0159 -0.4953
12893TIP3    H260095   3.182   6.322   1.754  0.2699 -1.3479  0.1783
12894TIP3   OH260096   5.637   2.908   4.045 -0.0802  0.3047  0.3030
12894TIP3    H160097   5.550   2.947   4.058  0.3499  1.3995 -0.0418
12894TIP3    H260098   5.629   2.859   3.963 -0.7758 -0.8219  1.0105
12895TIP3   OH260099   0.306   3.492  11.769  0.2564 -0.2878 -0.2756
12895TIP3    H160100   0.260   3.545  11.703 -0.1139 -0.6436 -0.3078
12895TIP3    H260101   0.265   3.516  11.852 -0.0843 -0.7039 -0.3207
12896TIP3   OH260102   0.666   3.334   6.383  0.0525  0.2071 -0.2917
12896TIP3    H160103   0.652   3.242   6.364 -1.9260  0.5204 -0.6429
12896TIP3    H260104   0.578   3.372   6.382  0.7544  1.9794  0.4733
12897TIP3   OH260105   1.665   5.063  11.200 -0.0411 -0.2470  0.7184
12897TIP3    H160106   1.744   5.041  11.249 -0.4973 -3.2947  0.3066
12897TIP3    H260107   1.617   5.122  11.257  2.6735  2.1474  0.7589
12898TIP3   OH260108   2.634   4.436   4.938 -0.5402 -0.1063  0.0743
12898TIP3    H160109   2.583   4.397   4.868 -3.1265 -0.1564  1.8432
12898TIP3    H260110   2.660   4.362   4.993  1.0091 -0.0134 -0.4752
12899TIP3   OH260111   5.570   4.925   3.355  0.1156 -0.0989 -0.0452
12899TIP3    H160112   5.570   4.856   3.421 -0.9898 -0.4093 -0.3515
12899TIP3    H260113   5.503   4.897   3.292  1.1175  0.1961 -1.2820
12900TIP3   OH260114   2.882   2.820  10.864  0.0390 -0.7967  0.5236
12900TIP3    H160115   2.916   2.795  10.778  1.5146  0.7298  0.6128
12900TIP3    H260116   2.949   2.789  10.926 -1.4963 -2.8343  1.2943
12901TIP3   OH260117   6.393   4.590  16.844  0.3288  0.5635 -0.1256
12901TIP3    H160118   6.316   4.562  16.893 -0.2157  0.1977 -1.1881
12901TIP3    H260119   6.413   4.517  16.785  0.7595  1.1449 -0.7134
12902TIP3   OH260120   5.806   4.501   5.720 -0.1502  0.1589 -0.3284
12902TIP3    H160121   5.732   4.448   5.691  0.4158 -0.9598  0.2439
12902TIP3    H260122   5.882   4.443   5.714  0.7045  1.2935 -0.9255
12903TIP3   OH260123   1.868   5.998  11.254 -0.3335  0.3318  0.3153
12903TIP3    H160124   1.950   5.950  11.249 -0.6655 -0.3155  0.9684
12903TIP3    H260125   1.803   5.940  11.213 -0.9596 -0.3174  2.1336
12904TIP3   OH260126   3.087   2.505   1.645 -0.5597  0.2683 -0.4617
12904TIP3    H160127   3.164   2.490   1.701 -1.1775 -2.0211 -0.0945
12904TIP3    H260128   3.026   2.553   1.700 -1.0929 -1.8137  0.9004
12905TIP3   OH260129   2.063   0.589  14.918  0.2099 -0.0170  0.7764
12905TIP3    H160130   2.047   0.565  15.009 -1.5471 -0.8053  0.2994
12905TIP3    H260131   2.026   0.678  14.911 -3.3770 -1.4032 -0.0377
12906TIP3   OH260132   1.347   3.447   4.466 -0.0207  0.1141  0.9945
12906TIP3    H160133   1.418   3.399   4.421  0.3318 -0.2342  1.9086
12906TIP3    H260134   1.361   3.429   4.559 -1.9515 -0.8349  1.1441
12907TIP3   OH260135   5.472   3.313  16.699 -0.1608 -0.1940 -0.9194
12907TIP3    H160136   5.528   3.235  16.707 -0.0690 -0.2559 -2.0451
12907TIP3    H260137   5.448   3.316  16.607 -0.0609  1.1936 -0.9141
12908TIP3   OH260138   3.924   5.506  14.220  0.0285  0.5434 -0.1739
12908TIP3    H160139   3.932   5.422  14.265 -0.7054  0.5282 -0.0444
12908TIP3    H260140   4.013   5.532  14.201  0.2386 -0.7413 -1.0940
12909TIP3   OH260141   4.240   2.480  16.426 -0.5092 -0.4878 -0.2614
12909TIP3    H160142   4.297   2.448  16.496  0.7120 -0.7215 -1.3413
12909TIP3    H260143   4.165   2.420  16.427 -0.6609 -0.3112  1.0180
12910TIP3   OH260144   1.194   2.197   3.887  0.5565 -0.2433 -0.1504
12910TIP3    H160145   1.176   2.183   3.980 -1.0840  1.3605 -0.1651
12910TIP3    H260146   1.277   2.244   3.886 -0.2733  1.3418  0.6875
12911TIP3   OH260147   2.858   5.106   0.932  0.6364 -0.2703  0.4904
12911TIP3    H160148   2.813   5.063   1.005  0.9216 -1.5323 -0.0425
12911TIP3    H260149   2.871   5.036   0.868 -0.7265  1.0385 -1.3305
12912TIP3   OH260150   4.802   0.610   4.187  0.1650 -0.3407 -0.1992
12912TIP3    H160151   4.755   0.644   4.262 -2.0430 -0.6754 -1.3566
12912TIP3    H260152   4.848   0.685   4.151 -0.1502  0.1897  0.4834
12913TIP3   OH260153   2.516   1.211   3.058 -0.1051  0.3191 -0.0155
12913TIP3    H160154   2.430   1.252   3.067 -0.2452  0.3737 -1.3756
12913TIP3    H260155   2.541   1.229   2.967  0.0718 -2.1463 -0.5157
12914TIP3   OH260156   2.603   4.913   2.076 -0.1752 -0.0938  0.7764
12914TIP3    H160157   2.517   4.955   2.073  0.0760  0.5177  1.6964
12914TIP3    H260158   2.590   4.829   2.031 -0.7133  0.9022 -1.0584
12915TIP3   OH260159   5.302   0.336  13.482  0.2415  0.6609 -0.6251
12915TIP3    H160160   5.374   0.398  13.470 -0.4338  1.4219 -0.8391
12915TIP3    H260161   5.239   0.382  13.536 -0.2833  0.1665 -0.8024
12916TIP3   OH260162   2.841   3.508   4.832 -0.5284 -0.4161  0.4734
12916TIP3    H160163   2.758   3.467   4.808 -0.7676  0.0909  0.4278
12916TIP3    H260164   2.823   3.556   4.913  0.1452 -1.6747  1.3925
12917TIP3   OH260165   6.015   2.601   4.265  0.3148 -0.2115 -0.5239
12917TIP3    H160166   5.953   2.554   4.320 -0.5482  0.1111 -1.2064
12917TIP3    H260167   6.082   2.632   4.326 -1.2255  1.1648  0.5640
12918TIP3   OH260168   3.142   0.454   0.787 -0.3251 -0.4816  0.1614
12918TIP3    H160169   3.206   0.421   0.851 -0.4699 -0.4315  0.3314
12918TIP3    H260170   3.185   0.440   0.702 -0.5575 -1.4927  0.1988
12919TIP3   OH260171   5.693   2.938   0.220 -0.2151  0.1551 -0.2077
12919TIP3    H160172   5.636   2.984   0.158 -0.3092  2.4078  1.4418
12919TIP3    H260173   5.763   3.000   0.240 -0.4430 -0.2692  2.2595
12920TIP3   OH260174   6.101   3.243   1.956  0.2496  0.2179 -0.5094
12920TIP3    H160175   6.013   3.215   1.980  0.3074 -0.5532 -1.1413
12920TIP3    H260176   6.150   3.161   1.945  0.6398  0.5793 -1.6157
12921TIP3   OH260177   3.793   5.510   2.164  0.2606 -0.6643 -0.6174
12921TIP3    H160178   3.855   5.567   2.209 -0.2001  0.1088 -0.9421
12921TIP3    H260179   3.733   5.481   2.232  1.9698 -2.8669  0.0749
12922TIP3   OH260180   5.994   0.616   2.230  0.1367  0.1607 -0.7064
12922TIP3    H160181   6.007   0.568   2.312 -1.8423 -0.3750 -0.6515
12922TIP3    H260182   6.004   0.708   2.255  0.2755 -0.0367 -0.0111
12923TIP3   OH260183   1.585   3.774   6.031  0.4800  0.7446 -0.0768
12923TIP3    H160184   1.644   3.699   6.030  1.1053  1.2289 -0.4236
12923TIP3    H260185   1.498   3.737   6.017  0.0730 -0.4569  4.2148
12924TIP3   OH260186   0.521   5.893  13.708  0.1073 -0.3231 -0.2089
12924TIP3    H160187   0.515   5.803  13.740  0.1448 -0.8180 -1.5402
12924TIP3    H260188   0.525   5.885  13.613  1.1199  1.0306 -0.3191
12925TIP3   OH260189   5.858   5.658  14.037 -0.0576  0.7797  0.0782
12925TIP3    H160190   5.902   5.673  13.953  0.6454 -0.5783  0.1600
12925TIP3    H260191   5.876   5.736  14.089  1.7649  0.5439 -0.1264
12926TIP3   OH260192   1.011   1.352  12.294 -0.6780 -0.3259 -0.0590
12926TIP3    H160193   1.074   1.391  12.233 -1.0446 -0.8939 -0.8263
12926TIP3    H260194   0.986   1.424  12.352 -0.8389  0.4249 -1.0229
12927TIP3   OH260195   5.625   3.271  11.251  0.5243  0.0525  0.0999
12927TIP3    H160196   5.699   3.290  11.192 -0.3995  1.1387 -0.7491
12927TIP3    H260197   5.576   3.202  11.207  0.3404  0.2200  0.0401
12928TIP3   OH260198   6.176   3.362  16.060 -0.3613  0.3347 -0.5216
12928TIP3    H160199   6.199   3.295  16.125 -0.8323  1.9733  1.4239
12928TIP3    H260200   6.239   3.350  15.990  1.3011 -0.4114  1.0178
12929TIP3   OH260201   2.095   2.388   1.372 -0.6609  0.3430  0.2073
12929TIP3    H160202   2.015   2.353   1.411 -0.0902  2.2917  3.4893
12929TIP3    H260203   2.163   2.373   1.438  1.0315  1.3927 -1.2017
12930TIP3   OH260204   4.888   0.136   5.897 -0.7355  0.0163  0.2497
12930TIP3    H160205   4.833   0.157   5.973 -0.3857  2.6220 -0.1341
12930TIP3    H260206   4.971   0.179   5.915  0.9497 -2.9799  0.3290
12931TIP3   OH260207   4.435   5.937  10.385 -0.2281 -0.2171 -0.5576
12931TIP3    H160208   4.493   5.907  10.456  0.0017 -2.2855 -1.5458
12931TIP3    H260209   4.386   6.009  10.424  1.0076 -0.2536  1.2087
12932TIP3   OH260210   5.350   4.887   3.169 -0.4793  0.0141 -0.4197
12932TIP3    H160211   5.415   4.897   3.099 -1.2146 -2.0324 -1.4897
12932TIP3    H260212   5.291   4.962   3.158 -0.3146 -0.0194 -1.7156
12933TIP3   OH260213   2.132   1.070  14.969  0.1956  0.3379  0.6564
12933TIP3    H160214   2.143   1.134  14.898  0.8901 -0.1613  0.3011
12933TIP3    H260215   2.101   1.122  15.043  0.7031  1.0886  0.3643
12934TIP3   OH260216   2.357   2.603   1.965 -0.4587 -0.3895  0.3131
12934TIP3    H160217   2.262   2.594   1.972 -0.9770  2.4353 -1.3681
12934TIP3    H260218   2.378   2.562   1.881  0.1298 -2.4399  1.4049
12935TIP3   OH260219   4.611   1.431   3.876 -0.3504  0.5096  0.1397
12935TIP3    H160220   4.601   1.509   3.821  1.6209  0.6684 -0.0576
12935TIP3    H260221   4.651   1.464   3.957  0.5095 -0.2698  0.0548
12936TIP3   OH260222   1.001   1.765   5.160  0.0225 -0.0060 -0.4392
12936TIP3    H160223   0.922   1.797   5.117  0.8632  1.1767 -1.1651
12936TIP3    H260224   1.012   1.675   5.129 -0.9877 -0.1536 -0.3795
12937TIP3   OH260225   3.955   2.568  11.587 -0.9437  0.1506  0.0358
12937TIP3    H160226   3.896   2.499  11.615 -0.0953  0.2189  2.1813
12937TIP3    H260227   3.906   2.616  11.521 -2.2899 -1.3082 -0.0832
12938TIP3   OH260228   1.471   0.415   4.277  0.4891  0.1909 -0.9853
12938TIP3    H160229   1.387   0.431   4.234  0.5714 -0.4053 -1.3827
12938TIP3    H260230   1.482   0.489   4.336 -0.2812  0.3102 -0.9788
12939TIP3   OH260231   6.128   2.050  16.574 -0.0361 -0.5397 -0.3930
12939TIP3    H160232   6.117   2.068  16.667 -1.2162 -0.5945 -0.5053
12939TIP3    H260233   6.106   2.133  16.531 -0.5409 -0.8109 -0.6672
12940TIP3   OH260234   3.491   3.569   6.027  0.0471  0.2033  0.6471
12940TIP3    H160235   3.396   3.563   6.023 -0.1383  1.0135  2.6142
12940TIP3    H260236   3.516   3.513   6.100  1.1081 -0.1294  0.0503
12941TIP3   OH260237   2.316   0.382  11.801 -0.2313 -0.0933 -0.1801
12941TIP3    H160238   2.240   0.407  11.854  0.4630  0.3698  0.6142
12941TIP3    H260239   2.299   0.421  11.715 -2.1697 -2.2270 -0.8952
12942TIP3   OH260240   5.768   3.313   4.887 -0.2473 -0.2626  0.0360
12942TIP3    H160241   5.681   3.289   4.854 -0.0696 -1.5013  0.3903
12942TIP3    H260242   5.776   3.407   4.870 -1.3965 -0.2611 -0.5814
12943TIP3   OH260243   1.529   6.091   0.259 -0.1185 -0.2892  0.2442
12943TIP3    H160244   1.456   6.061   0.312  0.6383  0.4426  1.7654
12943TIP3    H260245   1.598   6.112   0.322  1.0871 -0.0837 -1.0798
12944TIP3   OH260246   6.714   3.227   1.766  0.5489 -0.3517  0.1619
12944TIP3    H160247   6.755   3.146   1.798 -0.7349 -0.3969  1.8140
12944TIP3    H260248   6.684   3.271   1.845 -0.5418  0.7792 -0.8447
12945TIP3   OH260249   3.382   5.129   4.189 -0.1056 -0.3665 -0.8003
12945TIP3    H160250   3.351   5.164   4.272  1.1441 -0.7454 -0.1501
12945TIP3    H260251   3.306   5.084   4.152 -0.3118 -1.4469  0.8282
12946TIP3   OH260252   1.052   2.178  11.883  0.2592  0.0923  0.3942
12946TIP3    H160253   1.128   2.228  11.855 -0.0635  1.3785  1.6565
12946TIP3    H260254   1.049   2.190  11.978 -2.1198  1.0354  0.2864
12947TIP3   OH260255   6.379   5.186  14.033 -0.2126 -0.1110  0.0726
12947TIP3    H160256   6.301   5.229  13.997 -0.7153 -1.0054  0.0645
12947TIP3    H260257   6.450   5.209  13.973 -0.8758 -0.9086 -1.0459
12948TIP3   OH260258   0.186   0.069   3.502 -0.5243 -0.4240  0.1210
12948TIP3    H160259   0.096   0.057   3.533 -0.5049 -2.1791 -0.3948
12948TIP3    H260260   0.184   0.040   3.411  0.5601 -0.4417  0.0886
12949TIP3   OH260261   6.553   4.496   3.477 -0.4151  0.1233 -0.1246
12949TIP3    H160262   6.547   4.428   3.410  2.4538  1.1370 -1.6150
12949TIP3    H260263   6.578   4.450   3.557 -0.3674 -0.7589 -0.6468
12950TIP3   OH260264   6.570   1.115   0.690  0.4075 -0.6063 -0.3421
12950TIP3    H160265   6.491   1.062   0.681  2.1657 -3.0714 -3.3553
12950TIP3    H260266   6.580   1.158   0.605  1.2102  1.4304  0.7201
12951TIP3   OH260267   0.002   5.093  11.973 -0.2335  0.5577  0.3630
12951TIP3    H160268  -0.077   5.039  11.970 -0.8400  1.1486  3.1501
12951TIP3    H260269  -0.031   5.183  11.967  0.3516  0.7650  0.2514
12952TIP3   OH260270   6.090   2.568  13.322  0.5058  0.2919  0.6111
12952TIP3    H160271   6.045   2.575  13.406  3.2698  2.1256  2.0984
12952TIP3    H260272   6.104   2.659  13.295 -0.0293 -0.2537 -1.7325
12953TIP3   OH260273   3.796   5.179   0.317  0.3261 -0.4179  0.0600
12953TIP3    H160274   3.872   5.138   0.278  0.3066 -1.4858  1.0865
12953TIP3    H260275   3.794   5.146   0.407 -2.6554 -2.3004 -0.5491
12954TIP3   OH260276   2.299   6.566   4.948  0.2832  0.1898  0.6991
12954TIP3    H160277   2.220   6.545   4.998 -0.7464  1.7947 -0.1781
12954TIP3    H260278   2.354   6.489   4.959 -0.6761 -0.3033  2.7227
12955TIP3   OH260279   0.120   3.071   2.385  0.4306  0.6136  0.1398
12955TIP3    H160280   0.182   3.142   2.400 -0.1368  0.7542  2.1780
12955TIP3    H260281   0.045   3.092   2.442  0.5468 -1.9425  1.4164
12956TIP3   OH260282   3.896   2.656   0.681  0.7134 -0.1272  0.6849
12956TIP3    H160283   3.955   2.646   0.606  0.0338  2.1894 -0.2726
12956TIP3    H260284   3.953   2.685   0.752  0.9476  0.7551  0.1535
12957TIP3   OH260285   1.779   1.277  12.005 -0.2010 -0.6935  0.1196
12957TIP3    H160286   1.757   1.351  12.062 -1.0093 -0.3436 -0.6241
12957TIP3    H260287   1.729   1.204  12.039 -2.1162 -0.0612 -1.1594
12958TIP3   OH260288   1.533   5.910  16.491  0.1027 -0.1738  0.1798
12958TIP3    H160289   1.489   5.897  16.574 -0.8515 -0.5098 -0.3648
12958TIP3    H260290   1.463   5.909  16.425  0.9930 -1.9282 -0.8320
12959TIP3   OH260291   4.478   1.412  13.339 -0.0868  0.7235 -0.3429
12959TIP3    H160292   4.526   1.333  13.364 -1.7041 -0.3688 -0.5278
12959TIP3    H260293   4.394   1.404  13.384 -1.1628  1.1842 -2.1526
12960TIP3   OH260294   3.061   3.684   2.067 -0.3812  0.4718  0.0994
12960TIP3    H160295   3.056   3.638   2.151  0.6646  0.4984  0.1930
12960TIP3    H260296   3.014   3.627   2.006 -0.8790  0.2977  0.6375
12961TIP3   OH260297   2.524   1.222   1.423  0.8422  0.2563  0.7245
12961TIP3    H160298   2.569   1.143   1.452 -0.8461  0.3264  4.0255
12961TIP3    H260299   2.452   1.190   1.370  0.8502 -0.3589  1.0710
12962TIP3   OH260300   4.856   6.031  15.495 -0.0431 -0.0012  0.1310
12962TIP3    H160301   4.860   5.940  15.467  1.8649  0.2593 -0.5461
12962TIP3    H260302   4.938   6.070  15.465 -0.7560  1.9234  0.5047
12963TIP3   OH260303   5.796   0.832   1.477  0.7675 -0.2928 -0.2179
12963TIP3    H160304   5.843   0.915   1.476  1.8335 -0.8853 -0.5604
12963TIP3    H260305   5.827   0.785   1.400  1.1275 -1.5127  0.6319
12964TIP3   OH260306   5.978   0.373  11.579 -0.0151 -0.0640 -0.2732
12964TIP3    H160307   6.011   0.398  11.493 -1.2175  1.2752 -0.3826
12964TIP3    H260308   5.976   0.278  11.578  2.8334 -0.2058 -0.6130
12965TIP3   OH260309   2.207   1.175  12.514  0.7038 -0.3903  0.7075
12965TIP3    H160310   2.219   1.205  12.604  1.7393  1.1010  0.0971
12965TIP3    H260311   2.296   1.158  12.482  0.4072 -0.1770 -0.2624
12966TIP3   OH260312   3.021   1.872   1.219 -0.1209  0.0373 -0.5812
12966TIP3    H160313   2.985   1.800   1.166  0.8093 -0.4533 -0.5745
12966TIP3    H260314   3.006   1.950   1.166  0.1200 -0.3498 -1.2329
12967TIP3   OH260315   0.978   3.439  10.551 -0.1543 -0.3230 -0.3076
12967TIP3    H160316   0.990   3.353  10.511 -1.1501 -0.6754  0.1303
12967TIP3    H260317   1.012   3.428  10.640 -0.0328 -0.1787 -0.3354
12968TIP3   OH260318   0.895   1.014   3.596  0.3672 -0.6414  0.0330
12968TIP3    H160319   0.807   1.012   3.634  1.1108  0.4546  1.9672
12968TIP3    H260320   0.888   1.076   3.523  0.0162  1.3047  1.6378
12969TIP3   OH260321   0.020   1.819  17.090 -0.1974 -0.4628  0.6015
12969TIP3    H160322   0.030   1.909  17.059  1.5467 -0.0451  2.1663
12969TIP3    H260323   0.054   1.765  17.018 -0.9257  0.1387 -0.2052
12970TIP3   OH260324   2.152   4.740  12.109  0.3371  0.5879  0.0775
12970TIP3    H160325   2.174   4.734  12.202  0.4870  0.7522  0.0546
12970TIP3    H260326   2.212   4.679  12.066 -1.9895 -2.1201  0.4108
12971TIP3   OH260327   0.019   1.736   2.452  0.0370 -0.0194 -0.2663
12971TIP3    H160328   0.091   1.677   2.430 -0.8220 -1.2132  0.0360
12971TIP3    H260329  -0.042   1.726   2.380 -0.4074  0.0056  0.1055
12972TIP3   OH260330   5.317   4.964   2.852 -0.1116  0.2245 -0.0537
12972TIP3    H160331   5.304   5.053   2.819  0.4055  0.0087 -0.8970
12972TIP3    H260332   5.395   4.969   2.907  0.8290  0.0293 -1.3148
12973TIP3   OH260333   2.762   1.426  16.894 -0.5990 -0.4156  0.3254
12973TIP3    H160334   2.725   1.464  16.814  2.2063 -3.4879 -2.7557
12973TIP3    H260335   2.708   1.349  16.910 -0.1417 -0.7286  0.3636
12974TIP3   OH260336   3.838   5.226  13.464 -0.2893  0.4268 -0.1847
12974TIP3    H160337   3.821   5.139  13.500 -0.9156  1.1082  1.2376
12974TIP3    H260338   3.926   5.248  13.497  0.2891 -0.0393 -1.3538
12975TIP3   OH260339   3.847   0.529   1.779 -0.2442  0.4902  0.0096
12975TIP3    H160340   3.755   0.508   1.765 -0.1051  0.4018 -0.8887
12975TIP3    H260341   3.894   0.455   1.739  0.2226  1.2541 -0.8813
12976TIP3   OH260342   6.112   6.162   4.177 -0.5411 -0.1286  0.3329
12976TIP3    H160343   6.198   6.184   4.142 -0.7764 -0.9628 -0.8259
12976TIP3    H260344   6.129   6.134   4.267  0.3410  0.1275  0.2509
12977TIP3   OH260345   2.401   4.276  13.360 -0.1181  0.4752  0.2748
12977TIP3    H160346   2.318   4.323  13.366 -1.4013 -1.5675 -0.2340
12977TIP3    H260347   2.407   4.249  13.268  0.3410 -0.6634  0.6169
12978TIP3   OH260348   3.896   4.784  13.665  0.3157 -0.7633  0.4929
12978TIP3    H160349   3.829   4.843  13.630  0.5557 -1.0599 -0.4972
12978TIP3    H260350   3.965   4.786  13.599  1.4176 -0.2467  1.6190
12979TIP3   OH260351   4.985   6.611   4.860 -0.3873 -0.2340  0.1963
12979TIP3    H160352   4.913   6.563   4.820 -1.0043  1.5494 -0.9385
12979TIP3    H260353   4.956   6.702   4.862  0.8672  0.1951  1.9671
12980TIP3   OH260354   2.826   3.011  15.493 -0.4575  0.3895 -0.9487
12980TIP3    H160355   2.742   3.018  15.538 -0.8027  0.3524 -1.5766
12980TIP3    H260356   2.876   2.948  15.545 -1.2747 -0.5395 -1.2638
12981TIP3   OH260357   0.319   4.230   3.924 -1.0074  0.2620  0.2384
12981TIP3    H160358   0.257   4.160   3.942 -2.1914  1.3153  0.4061
12981TIP3    H260359   0.390   4.217   3.987  1.1144 -3.3739 -2.5271
12982TIP3   OH260360   0.872   4.504  12.176  0.2261  0.3781 -0.0149
12982TIP3    H160361   0.858   4.569  12.245 -1.6829  0.3615 -0.3416
12982TIP3    H260362   0.793   4.451  12.176  0.3166  0.1580 -1.9862
12983TIP3   OH260363   2.238   6.541  13.354  0.1498 -0.2035 -0.3448
12983TIP3    H160364   2.306   6.579  13.409  1.2997  0.7870 -2.3718
12983TIP3    H260365   2.282   6.520  13.272 -2.0928  1.1504 -2.0068
12984TIP3   OH260366   5.701   4.617   3.489  0.0187 -0.6786 -0.2975
12984TIP3    H160367   5.757   4.539   3.494  1.1445  0.0390 -1.0975
12984TIP3    H260368   5.755   4.687   3.525 -0.4664 -0.0246 -0.8155
12985TIP3   OH260369   4.551   6.169  13.998  0.0804 -0.3072 -0.1949
12985TIP3    H160370   4.568   6.210  13.914 -1.7954 -1.7365 -1.3604
12985TIP3    H260371   4.461   6.194  14.020  0.2054 -0.7386  0.9136
12986TIP3   OH260372   4.149   5.280   0.972 -0.2654 -0.8703  0.0928
12986TIP3    H160373   4.152   5.215   0.901  0.0070  0.4612 -1.1480
12986TIP3    H260374   4.188   5.359   0.934  2.7406 -0.9568  2.6532
12987TIP3   OH260375   4.133   0.601   5.375  0.0218 -0.4598  0.7190
12987TIP3    H160376   4.089   0.605   5.460  0.1338  0.8812  0.7425
12987TIP3    H260377   4.085   0.664   5.321 -0.8137 -2.1316 -0.6123
12988TIP3   OH260378   1.365   3.715   1.694 -0.7633  0.4277  0.3061
12988TIP3    H160379   1.456   3.735   1.674 -0.2899 -1.5036  0.3519
12988TIP3    H260380   1.359   3.720   1.789 -0.4012 -0.5441  0.3898
12989TIP3   OH260381   2.933   0.153  13.288 -0.0675  0.4655 -0.1165
12989TIP3    H160382   2.943   0.220  13.355  1.5775 -0.0614  0.1908
12989TIP3    H260383   2.838   0.137  13.284 -0.2117  0.4423  2.1485
12990TIP3   OH260384   5.446   0.700   2.882 -0.7878 -0.7225  0.6921
12990TIP3    H160385   5.482   0.650   2.956 -0.7725 -1.0451  0.4713
12990TIP3    H260386   5.460   0.643   2.806  0.7061  0.2867  0.1559
12991TIP3   OH260387   1.777   3.195   1.999  0.0460  0.1107  0.1149
12991TIP3    H160388   1.788   3.290   2.000 -1.2861  0.2896  0.4958
12991TIP3    H260389   1.860   3.161   1.966  0.6056  1.3951  0.1443
12992TIP3   OH260390   2.193   2.972   0.054 -0.4015 -0.0482 -0.5278
12992TIP3    H160391   2.246   3.012  -0.015 -0.3029 -0.7939 -0.8832
12992TIP3    H260392   2.141   2.905   0.010 -0.0331 -0.8225  0.1850
12993TIP3   OH260393   4.534   3.972  11.774 -0.3265 -0.2805  0.0495
12993TIP3    H160394   4.562   3.881  11.765 -2.0850 -0.7725 -0.8582
12993TIP3    H260395   4.545   3.991  11.867  0.8028 -1.1434  0.1215
12994TIP3   OH260396   0.541   0.972  13.377 -0.1065 -0.0020  0.4138
12994TIP3    H160397   0.627   0.989  13.416 -0.2333  1.9903 -0.0725
12994TIP3    H260398   0.498   1.058  13.376 -0.9847 -0.4049 -1.9623
12995TIP3   OH260399   2.190   2.457  15.562 -0.4847 -0.6660 -0.0741
12995TIP3    H160400   2.159   2.514  15.492  0.6722 -0.3073 -0.3111
12995TIP3    H260401   2.174   2.369  15.530  0.0389 -0.5051 -0.8120
12996TIP3   OH260402   5.604   0.135  14.395  0.1377  0.0382 -0.0205
12996TIP3    H160403   5.690   0.163  14.363 -0.4368  1.0760 -0.7434
12996TIP3    H260404   5.544   0.200  14.359 -0.7746  0.2438  1.7625
12997TIP3   OH260405   5.879   3.507  13.580 -0.0136 -0.6289  0.2655
12997TIP3    H160406   5.886   3.571  13.509  1.8744  0.2396  1.1413
12997TIP3    H260407   5.800   3.532  13.627  0.7017  1.1827  0.6271
12998TIP3   OH260408   3.649   4.810   4.450 -0.4851 -0.7975 -0.0492
12998TIP3    H160409   3.589   4.825   4.523 -0.0167 -1.7164  0.5359
12998TIP3    H260410   3.641   4.717   4.431 -0.5014 -0.5976 -1.0949
12999TIP3   OH260411   3.709   5.181   0.581 -0.4805  0.2969 -0.2663
12999TIP3    H160412   3.701   5.269   0.616 -2.1676 -0.3951  1.2573
12999TIP3    H260413   3.783   5.143   0.629 -1.6976 -0.0779  1.3984
13000TIP3   OH260414   3.521   5.644   4.216  0.0754 -0.0108 -0.4109
13000TIP3    H160415   3.439   5.597   4.232 -1.2215  1.8427 -1.2502
13000TIP3    H260416   3.535   5.696   4.294 -1.2525  1.9701 -1.4039
13001TIP3   OH260417   1.344   6.291  15.912  0.4830  0.2254 -0.2285
13001TIP3    H160418   1.427   6.244  15.923 -0.4823 -2.3199 -2.7016
13001TIP3    H260419   1.369   6.384  15.914  3.0850 -0.4044  0.9031
13002TIP3   OH260420   1.200   3.324   2.228  0.3927 -0.0153  0.5569
13002TIP3    H160421   1.161   3.240   2.207  0.2287  0.3681 -0.7418
13002TIP3    H260422   1.126   3.380   2.252  0.2822  0.2549 -0.3523
13003TIP3   OH260423   1.647   6.741  13.328 -0.8580  0.3049 -0.4148
13003TIP3    H160424   1.652   6.759  13.234 -0.9049  0.2682 -0.4240
13003TIP3    H260425   1.557   6.765  13.352 -0.4505  1.6016 -0.1155
13004TIP3   OH260426   4.796   1.785  16.303  0.1030  0.4008  0.9723
13004TIP3    H160427   4.762   1.696  16.314  4.7252 -1.6474  1.1587
13004TIP3    H260428   4.784   1.803  16.210 -0.2490 -0.7901  0.7597
13005TIP3   OH260429   2.498   1.620   2.230  0.0505  0.3576  0.1620
13005TIP3    H160430   2.505   1.578   2.144  0.8531 -0.6090  0.6766
13005TIP3    H260431   2.506   1.713   2.212  1.0268  0.1178 -0.7400
13006TIP3   OH260432   2.463   5.014   2.954 -0.1699 -0.0550  0.2982
13006TIP3    H160433   2.482   4.964   3.034 -2.7673  1.4027  1.9688
13006TIP3    H260434   2.407   4.956   2.903 -1.7738  0.4187  1.4417
13007TIP3   OH260435   3.626   4.704  14.500 -0.0029 -0.0256  0.1974
13007TIP3    H160436   3.678   4.783  14.510 -0.7865  0.4377  0.6911
13007TIP3    H260437   3.553   4.715  14.562 -2.2253  0.6004 -2.3640
13008TIP3   OH260438   1.156   5.348  14.245 -0.0201 -0.5279  0.5650
13008TIP3    H160439   1.221   5.406  14.205 -0.4099 -0.7976 -0.4996
13008TIP3    H260440   1.095   5.329  14.174 -0.1507 -1.8856  1.0190
13009TIP3   OH260441   0.566   2.770  13.488  0.0592 -0.0201  0.1341
13009TIP3    H160442   0.490   2.818  13.455  0.7252  0.6973 -0.3821
13009TIP3    H260443   0.573   2.798  13.580 -1.3495 -1.4600  0.7381
13010TIP3   OH260444   4.609   6.271  16.668 -0.2041  0.8680  0.4961
13010TIP3    H160445   4.552   6.213  16.617  0.1832  0.9948 -0.0949
13010TIP3    H260446   4.614   6.230  16.754 -0.1881  0.1902  0.1817
13011TIP3   OH260447   2.727   5.561  15.761 -0.3364 -0.5184  0.3201
13011TIP3    H160448   2.757   5.493  15.821 -0.0989 -1.0606 -0.4069
13011TIP3    H260449   2.641   5.587  15.795 -0.7355 -1.6651  0.2116
13012TIP3   OH260450   1.083   5.978  13.365  0.2073 -0.7140  0.0657
13012TIP3    H160451   1.061   5.930  13.445 -0.7874  0.8630  0.8018
13012TIP3    H260452   1.094   6.069  13.394  1.4096 -0.3624 -1.3621
13013TIP3   OH260453   0.051   1.229   3.182 -0.4613 -0.1288  0.0759
13013TIP3    H160454   0.078   1.290   3.251  1.2949 -0.5053 -0.2338
13013TIP3    H260455   0.014   1.285   3.114  2.4113  0.8412 -0.8184
13014TIP3   OH260456   0.157   5.823   1.839  0.3160  0.0415  0.4625
13014TIP3    H160457   0.185   5.792   1.753  1.3179 -0.1115  0.8349
13014TIP3    H260458   0.087   5.886   1.820 -0.0367 -0.5922 -0.4147
13015TIP3   OH260459   2.542   5.492   1.981 -0.2217  0.1170  0.4709
13015TIP3    H160460   2.578   5.415   2.024  0.6946  0.0298 -0.4039
13015TIP3    H260461   2.469   5.460   1.929  1.8163 -0.7420 -2.1124
13016TIP3   OH260462   5.202   5.900   0.819  0.2670  0.3324  0.1778
13016TIP3    H160463   5.262   5.936   0.753 -0.4433 -1.7358 -1.7103
13016TIP3    H260464   5.258   5.852   0.879  0.7115  0.1383 -0.3826
13017TIP3   OH260465   0.221   5.427   4.922 -0.1943 -0.0588  0.4329
13017TIP3    H160466   0.133   5.430   4.885  0.4506  2.1927 -1.1537
13017TIP3    H260467   0.221   5.495   4.990  0.2061 -0.3968  0.7840
13018TIP3   OH260468   1.464   1.623  13.910 -0.0880  0.0030  0.5818
13018TIP3    H160469   1.454   1.536  13.871 -1.5813  0.5661 -0.3638
13018TIP3    H260470   1.448   1.608  14.004  1.8097 -1.0597  0.7993
13019TIP3   OH260471   3.745   6.529  12.229 -0.5503 -0.1610 -0.3439
13019TIP3    H160472   3.670   6.483  12.266  0.2982 -2.0862 -0.9122
13019TIP3    H260473   3.813   6.462  12.222  0.4748  0.9845 -2.0000
13020TIP3   OH260474   1.446   3.747  11.453 -0.0396 -0.0755  0.3181
13020TIP3    H160475   1.376   3.741  11.519 -0.6801 -0.6321 -0.3886
13020TIP3    H260476   1.419   3.687  11.384  0.8568  0.1444 -0.2442
13021TIP3   OH260477   4.230   1.969  11.565  0.4154 -0.2764 -0.4103
13021TIP3    H160478   4.306   1.930  11.608 -0.7353 -2.2830 -0.0263
13021TIP3    H260479   4.190   2.025  11.631  0.6399 -0.5365 -0.0514
13022TIP3   OH260480   1.618   3.873   2.200  0.2298 -0.5753  0.0143
13022TIP3    H160481   1.601   3.789   2.244  0.7852 -0.3989  0.5775
13022TIP3    H260482   1.590   3.939   2.264  0.3150 -0.3204 -0.2112
13023TIP3   OH260483   6.180   2.533   0.438  0.1990 -0.7056  0.2879
13023TIP3    H160484   6.226   2.456   0.406  0.3257 -1.2741  1.7772
13023TIP3    H260485   6.173   2.590   0.361  2.4689 -1.0390 -0.2472
13024TIP3   OH260486   6.611   0.642   2.467 -0.3449 -0.1058 -0.1591
13024TIP3    H160487   6.589   0.700   2.394  2.9175 -0.7937 -1.8934
13024TIP3    H260488   6.562   0.562   2.449 -0.1926  0.0177 -1.2010
13025TIP3   OH260489   4.703   6.686   5.909  0.0645 -0.2649  0.5805
13025TIP3    H160490   4.777   6.726   5.863 -0.8829  1.0108  0.1312
13025TIP3    H260491   4.716   6.592   5.897  0.8754 -0.0177 -0.6493
13026TIP3   OH260492   5.826   4.046   4.241  0.0422 -0.3770 -0.0767
13026TIP3    H160493   5.740   4.078   4.268 -0.7265 -2.1301 -0.2842
13026TIP3    H260494   5.862   4.005   4.320  0.0241 -0.9589 -0.3611
13027TIP3   OH260495   5.209   2.425  12.760  0.3470  0.5192  0.4710
13027TIP3    H160496   5.194   2.368  12.684 -1.3006  0.3410  0.9020
13027TIP3    H260497   5.264   2.495  12.726 -0.5203  0.5492 -0.9598
13028TIP3   OH260498   4.586   1.564  16.115  0.0770  0.0108 -0.5376
13028TIP3    H160499   4.657   1.501  16.126 -0.2120 -0.2632 -0.1699
13028TIP3    H260500   4.562   1.559  16.023  0.7350  0.3300 -0.7278
13029TIP3   OH260501   5.770   4.485  15.382 -0.4168 -0.4828  0.3172
13029TIP3    H160502   5.793   4.394  15.400  0.3420 -0.6084 -1.1152
13029TIP3    H260503   5.706   4.480  15.311  0.4278  0.1072 -0.5199
13030TIP3   OH260504   0.516   4.846  11.342  0.0845  0.6077 -0.3213
13030TIP3    H160505   0.558   4.858  11.427 -0.8368  3.2057 -0.1736
13030TIP3    H260506   0.551   4.917  11.288  0.1070 -0.5712 -1.9411
13031TIP3   OH260507   3.752   5.807  14.095 -0.1662  0.1894 -0.1120
13031TIP3    H160508   3.813   5.737  14.074  0.9788  1.0694  0.2110
13031TIP3    H260509   3.778   5.880  14.039 -1.4179  0.3339 -0.5348
13032TIP3   OH260510   4.499   5.431  14.244  0.7980 -0.6797 -0.0503
13032TIP3    H160511   4.519   5.499  14.179  1.7478 -0.2760  0.6309
13032TIP3    H260512   4.565   5.444  14.313 -1.6627  0.5308  2.2403
13033TIP3   OH260513   1.931   0.178  13.942  0.2457 -0.3989 -0.4152
13033TIP3    H160514   1.926   0.185  13.847 -0.0446 -0.1210 -0.3795
13033TIP3    H260515   1.845   0.147  13.969  0.1577  0.0308 -0.1975
13034TIP3   OH260516   3.899   0.677   4.324 -0.4671  0.3424 -0.2251
13034TIP3    H160517   3.894   0.751   4.263  1.1794  0.7039  0.0270
13034TIP3    H260518   3.901   0.599   4.268 -1.1987  0.5432 -0.5351
13035TIP3   OH260519   3.065   2.318  12.625  0.4625  0.2400 -0.0337
13035TIP3    H160520   3.128   2.255  12.661  1.1569  0.6603 -0.4984
13035TIP3    H260521   3.114   2.400  12.620  0.2691  0.2929 -1.5461
13036TIP3   OH260522   2.996   4.139  16.384  0.2935  0.6684 -0.1718
13036TIP3    H160523   2.990   4.190  16.465 -0.0823  0.9898 -0.3985
13036TIP3    H260524   3.065   4.182  16.334  1.9001 -0.6870  0.7798
13037TIP3   OH260525   0.718   6.649   4.673 -0.0513 -0.5889  0.5906
13037TIP3    H160526   0.706   6.724   4.732 -1.4710 -1.7478  1.9030
13037TIP3    H260527   0.715   6.686   4.585  0.6394  1.0368  1.2158
13038TIP3   OH260528   5.825   0.438   3.080 -0.1154 -0.6162 -0.1728
13038TIP3    H160529   5.835   0.443   3.175 -2.0228 -1.0327  0.0963
13038TIP3    H260530   5.866   0.354   3.056 -0.2003 -0.8165  0.3792
13039TIP3   OH260531   0.927   4.685  16.825  0.7141 -0.5566 -0.2218
13039TIP3    H160532   0.877   4.730  16.893  2.0373  0.6451  0.0132
13039TIP3    H260533   0.931   4.748  16.753  1.6427 -0.7141 -0.3232
13040TIP3   OH260534   5.330   1.414  14.957 -0.3832  1.4003  0.2839
13040TIP3    H160535   5.419   1.404  14.922  0.1210  0.0617  1.8501
13040TIP3    H260536   5.302   1.501  14.926  0.6791  1.0342 -1.8999
13041TIP3   OH260537   5.393   2.162   4.838 -0.0200  0.1632  0.0649
13041TIP3    H160538   5.393   2.221   4.913  1.3272  0.8535 -0.4496
13041TIP3    H260539   5.463   2.100   4.856 -1.2225 -1.1578  0.4564
13042TIP3   OH260540   4.345   1.657  12.133  0.1079 -0.4358 -0.3779
13042TIP3    H160541   4.431   1.697  12.122  0.5608 -0.6702  1.8444
13042TIP3    H260542   4.283   1.729  12.123  0.7129  0.1852  0.2169
13043TIP3   OH260543   5.889   0.630   6.351  0.3753 -0.0800  0.3289
13043TIP3    H160544   5.935   0.659   6.272 -0.6937  1.7991  0.3376
13043TIP3    H260545   5.909   0.697   6.417 -1.0865 -0.0282  0.7705
13044TIP3   OH260546   2.797   5.646  12.483 -0.0572  0.2495  0.6051
13044TIP3    H160547   2.727   5.707  12.506 -2.2996 -1.1361 -1.9839
13044TIP3    H260548   2.764   5.560  12.509  1.1858 -0.3343  0.3551
13045TIP3   OH260549   5.693   4.491   4.120  0.4446 -0.5334 -0.1249
13045TIP3    H160550   5.676   4.515   4.029 -0.1176 -0.2360  0.0521
13045TIP3    H260551   5.775   4.535   4.142  0.2676 -0.1099 -0.3028
13046TIP3   OH260552   5.214   2.363  13.844  0.2889 -0.5499  0.0816
13046TIP3    H160553   5.145   2.387  13.905 -0.0346 -0.7793 -0.1903
13046TIP3    H260554   5.240   2.275  13.870  1.9194  0.2824  1.4853
13047TIP3   OH260555   3.991   4.378  10.900 -0.1201 -0.6183  0.1811
13047TIP3    H160556   3.916   4.437  10.908 -0.5633 -0.9059 -1.5530
13047TIP3    H260557   3.952   4.291  10.889  0.4757 -0.8661  0.0046
13048TIP3   OH260558   0.528   4.927  12.031  0.3707 -0.2992 -0.3498
13048TIP3    H160559   0.592   4.974  11.978  0.6014 -0.2178  0.0006
13048TIP3    H260560   0.569   4.842  12.049  1.5780  0.7156  2.1530
13049TIP3   OH260561   3.749   1.300  15.605 -0.4456  0.0774  0.1416
13049TIP3    H160562   3.795   1.216  15.596  0.3619  0.5751 -0.5768
13049TIP3    H260563   3.760   1.324  15.697 -2.0684 -1.3492  0.7665
13050TIP3   OH260564   3.965   2.949   3.814  0.1491  0.1770 -0.4175
13050TIP3    H160565   3.932   3.007   3.883  0.0008 -0.2657 -0.1081
13050TIP3    H260566   4.018   2.885   3.861 -0.4781 -0.5143 -0.6308
13051TIP3   OH260567   5.591   1.513   4.251 -0.2102  0.4991 -0.8072
13051TIP3    H160568   5.531   1.587   4.244 -2.0782 -1.0794 -2.2586
13051TIP3    H260569   5.665   1.538   4.196 -0.3986  1.6285 -0.5800
13052TIP3   OH260570   5.234   6.743   3.324 -0.1218  0.2766 -0.0922
13052TIP3    H160571   5.251   6.836   3.312 -2.4859  0.7046 -0.5457
13052TIP3    H260572   5.220   6.733   3.418 -0.8297  0.5772 -0.1615
13053TIP3   OH260573   4.935   3.039   3.890 -0.0800  0.2925 -0.0542
13053TIP3    H160574   4.921   3.111   3.951 -0.2554 -0.7153  1.1098
13053TIP3    H260575   4.887   3.065   3.811  0.3081  1.6893  0.1424
13054TIP3   OH260576   2.049   4.500   4.350  0.2979 -0.4711 -0.3982
13054TIP3    H160577   2.041   4.545   4.434  0.9927  1.3119 -1.2367
13054TIP3    H260578   1.987   4.428   4.355 -2.2544  1.6512  0.3408
13055TIP3   OH260579   2.287   5.331  11.324  0.8314 -0.4215  0.4315
13055TIP3    H160580   2.200   5.330  11.365  1.0565  1.7976  1.0962
13055TIP3    H260581   2.347   5.350  11.396  1.5481  0.6462 -0.4160
13056TIP3   OH260582   1.154   6.224  15.088 -0.2422 -0.2989 -0.2199
13056TIP3    H160583   1.104   6.202  15.166  1.6736 -0.5407  0.9879
13056TIP3    H260584   1.194   6.141  15.061  0.4077  0.0967 -0.4960
13057TIP3   OH260585   1.252   1.052   0.473 -0.2535 -0.6388 -0.0117
13057TIP3    H160586   1.251   1.012   0.386 -0.7108 -0.1887 -0.2208
13057TIP3    H260587   1.231   1.144   0.457 -1.5578 -0.7931  0.6813
13058TIP3   OH260588   0.856   2.684   1.723 -0.1255  0.3406  0.3789
13058TIP3    H160589   0.785   2.619   1.722  1.0957 -1.0521 -1.2616
13058TIP3    H260590   0.836   2.739   1.799 -2.9239 -0.0188  0.0098
13059TIP3   OH260591   4.302   6.607   3.658 -0.6189 -0.1059  0.0736
13059TIP3    H160592   4.210   6.593   3.635 -0.9870  1.2881  0.6249
13059TIP3    H260593   4.304   6.608   3.754 -0.1286  0.4949  0.0636
13060TIP3   OH260594   1.712   2.275   5.828  0.1997  0.1456  0.1998
13060TIP3    H160595   1.617   2.275   5.841  0.4584  0.0622  2.6237
13060TIP3    H260596   1.741   2.190   5.860  0.9472 -0.6309 -2.3562
13061TIP3   OH260597   0.345   4.430  13.960 -0.1251  0.0811  0.2246
13061TIP3    H160598   0.430   4.448  13.999 -0.8318  0.4714  1.6662
13061TIP3    H260599   0.320   4.511  13.916 -0.5547  0.5976  1.3913
13062TIP3   OH260600   0.574   6.773  14.282 -0.4235 -0.0340 -0.2971
13062TIP3    H160601   0.661   6.811  14.283 -0.7413  0.7040  0.4218
13062TIP3    H260602   0.581   6.699  14.221  0.6644  0.0760 -0.3288
13063TIP3   OH260603   2.739   4.040  16.338  0.1768  0.0720 -0.3391
13063TIP3    H160604   2.829   4.072  16.341 -0.6516  2.5346 -0.1346
13063TIP3    H260605   2.685   4.116  16.360 -1.9636 -1.3809 -0.2857
13064TIP3   OH260606   6.622   1.528  15.745 -0.5349 -0.2424  0.0350
13064TIP3    H160607   6.619   1.599  15.680 -1.3635 -0.3858 -0.0977
13064TIP3    H260608   6.530   1.512  15.766 -0.4818 -2.4686 -1.2182
13065TIP3   OH260609   4.119   5.179  13.522  0.3106 -0.2829 -0.6298
13065TIP3    H160610   4.127   5.122  13.598 -2.7051 -0.6636 -0.4850
13065TIP3    H260611   4.174   5.254  13.542 -0.2609 -0.4611  1.8577
13066TIP3   OH260612   4.511   1.338  14.334 -0.6326 -0.0530 -0.6250
13066TIP3    H160613   4.546   1.273  14.273 -1.4239 -0.1479 -1.0021
13066TIP3    H260614   4.557   1.323  14.416  1.7830  1.2241 -1.6283
13067TIP3   OH260615   4.388   2.822  13.457  0.3002 -0.3371  0.5457
13067TIP3    H160616   4.365   2.729  13.455  1.6612 -0.6917  0.3151
13067TIP3    H260617   4.340   2.857  13.532 -1.0456 -0.9760  0.0274
13068TIP3   OH260618   0.062   6.482  11.043  0.5197 -0.2138 -0.3822
13068TIP3    H160619  -0.001   6.462  10.974 -0.8818  1.7425  0.2493
13068TIP3    H260620   0.088   6.396  11.077 -2.4762 -1.1150 -0.1068
13069TIP3   OH260621   2.847   4.149  11.173  0.1949  0.4554  0.4602
13069TIP3    H160622   2.791   4.073  11.180 -1.5629  1.5058 -1.1571
13069TIP3    H260623   2.874   4.151  11.081  0.4579  1.5906  0.5357
13070TIP3   OH260624   1.507   3.538   3.633  0.4095  0.3788 -0.3840
13070TIP3    H160625   1.597   3.540   3.664  0.6531  2.0614 -1.0673
13070TIP3    H260626   1.459   3.490   3.701  1.8986 -1.0981 -0.3336
13071TIP3   OH260627   1.667   3.291   1.666 -0.1624 -0.1506  0.6374
13071TIP3    H160628   1.723   3.214   1.672 -1.0732 -1.0964 -1.8177
13071TIP3    H260629   1.586   3.265   1.710 -0.0957 -0.1737  0.7498
13072TIP3   OH260630   1.927   0.610  16.386  0.0004  1.0754 -0.0287
13072TIP3    H160631   1.957   0.519  16.389 -2.7717  0.1067  0.8196
13072TIP3    H260632   2.008   0.661  16.379  1.6012 -1.4484 -1.7793
13073TIP3   OH260633   5.045   3.352   5.418  0.6344  0.2383  0.3368
13073TIP3    H160634   5.112   3.302   5.463  0.2947  0.7433  1.4457
13073TIP3    H260635   5.089   3.433   5.392  0.6293  0.2892  0.4835
13074TIP3   OH260636   4.656   2.716  13.181 -0.2069  0.5601  1.1532
13074TIP3    H160637   4.700   2.632  13.172 -0.4784  0.5374 -0.1372
13074TIP3    H260638   4.573   2.695  13.224 -0.4864  0.0858  0.4067
13075TIP3   OH260639   2.486   2.754  11.639  0.1934 -0.2703 -0.0271
13075TIP3    H160640   2.392   2.764  11.657  0.1112 -0.7367 -0.1962
13075TIP3    H260641   2.500   2.803  11.558  0.2286  0.3585  0.3474
13076TIP3   OH260642   2.034   4.599  14.078  0.0929  0.1329 -0.8968
13076TIP3    H160643   1.967   4.663  14.102 -0.2100 -0.5812  0.2545
13076TIP3    H260644   1.989   4.515  14.079  1.3355 -0.6306  1.8096
13077TIP3   OH260645   0.665   6.094  16.559  0.1222  0.2124  0.1756
13077TIP3    H160646   0.656   6.024  16.623 -0.2537 -3.0212 -3.0804
13077TIP3    H260647   0.595   6.078  16.496 -0.9774  4.5791 -0.0155
13078TIP3   OH260648   3.237   4.388   3.696 -0.2668  0.1511  0.1354
13078TIP3    H160649   3.256   4.455   3.762  0.9941 -1.4441  1.4681
13078TIP3    H260650   3.149   4.410   3.666 -0.0800  2.1386  0.8262
13079TIP3   OH260651   3.444   3.133   4.595  0.0849  0.1773  0.1755
13079TIP3    H160652   3.413   3.069   4.531  0.3922  0.2616 -0.0568
13079TIP3    H260653   3.388   3.118   4.672  0.2007 -0.4259  0.1503
13080TIP3   OH260654   6.235   5.239   1.703  0.1541  0.1597  0.0687
13080TIP3    H160655   6.204   5.328   1.724  0.6145  0.6235 -1.1081
13080TIP3    H260656   6.292   5.252   1.627 -0.6392 -1.2786 -0.8150
13081TIP3   OH260657   5.621   1.222   4.450  0.2066  0.1664  0.3169
13081TIP3    H160658   5.545   1.252   4.400 -0.1373 -2.5033 -0.9465
13081TIP3    H260659   5.683   1.294   4.444 -1.4250  1.5973 -0.3938
13082TIP3   OH260660   5.254   2.899   5.636  0.3762 -0.4157 -0.0177
13082TIP3    H160661   5.340   2.859   5.627  0.0849 -1.0574 -0.0573
13082TIP3    H260662   5.257   2.945   5.720  0.7112 -0.5430  0.0401
13083TIP3   OH260663   1.990   0.853  14.903  0.1944  0.2190 -0.5884
13083TIP3    H160664   1.898   0.873  14.917 -0.0692 -1.1037 -0.3747
13083TIP3    H260665   2.036   0.933  14.929 -0.7988  0.4418  0.5256
13084TIP3   OH260666   4.993   0.089  15.220 -0.0734  0.0022  0.3333
13084TIP3    H160667   5.023   0.056  15.136 -0.1086 -1.1182  0.7477
13084TIP3    H260668   5.073   0.098  15.272  0.0786  1.6895 -0.1263
13085TIP3   OH260669   3.000   5.783  14.330  0.2804  0.0589  0.3424
13085TIP3    H160670   2.940   5.760  14.260  1.7552  0.4084 -1.0914
13085TIP3    H260671   3.025   5.699  14.369  1.2949 -0.3711 -1.1636
13086TIP3   OH260672   2.837   5.480  12.048 -0.2986 -0.5012 -0.2577
13086TIP3    H160673   2.848   5.399  12.099  1.0640 -0.5028 -0.5130
13086TIP3    H260674   2.865   5.550  12.107 -0.5183 -0.3204 -0.3679
13087TIP3   OH260675   1.454   5.242  12.420 -0.3344 -0.1667  0.1187
13087TIP3    H160676   1.430   5.174  12.483  0.2482 -0.4877  0.0034
13087TIP3    H260677   1.534   5.209  12.379 -1.3897 -0.5489 -1.7107
13088TIP3   OH260678   1.788   4.026  17.159  0.0694 -0.5700  0.2147
13088TIP3    H160679   1.738   4.038  17.239 -1.4193  1.7203 -0.9296
13088TIP3    H260680   1.751   3.947  17.119  0.1325 -1.1494  1.2699
13089TIP3   OH260681   2.543   2.733   1.245  0.7556 -0.2899 -0.2220
13089TIP3    H160682   2.526   2.796   1.175  1.3674  1.6934  1.3184
13089TIP3    H260683   2.620   2.685   1.215 -0.0848 -0.7692 -1.7006
13090TIP3   OH260684   1.263   0.669   3.210 -0.3464  0.0078  0.0463
13090TIP3    H160685   1.254   0.730   3.137  1.1902  0.1082 -0.0945
13090TIP3    H260686   1.179   0.622   3.213 -0.5889  0.2918 -1.5003
13091TIP3   OH260687   3.935   4.598   1.552 -0.1778  0.4822  0.1165
13091TIP3    H160688   3.912   4.509   1.525  1.2259 -0.4947  1.9258
13091TIP3    H260689   3.874   4.654   1.504  0.6868 -1.1891 -3.2666
13092TIP3   OH260690   1.269   2.758  16.139  0.1751 -0.2214 -0.0208
13092TIP3    H160691   1.281   2.665  16.123  0.3488 -0.0070 -1.2655
13092TIP3    H260692   1.358   2.794  16.136  0.5617 -0.4336  3.8087
13093TIP3   OH260693   5.698   4.543  12.418  0.6067  0.4905 -0.0122
13093TIP3    H160694   5.697   4.637  12.403 -2.3986  0.3849 -1.0129
13093TIP3    H260695   5.643   4.530  12.495  0.2730 -0.5149 -0.4011
13094TIP3   OH260696   5.091   0.891   0.800 -0.0880 -0.0584  0.2554
13094TIP3    H160697   5.090   0.834   0.877 -1.5071  0.8939  0.9838
13094TIP3    H260698   5.011   0.942   0.807  1.2108  2.1785 -0.2340
13095TIP3   OH260699   5.671   5.869  14.139 -0.3483  0.5287 -0.1507
13095TIP3    H160700   5.730   5.903  14.206 -2.2876  0.5633  1.6496
13095TIP3    H260701   5.613   5.942  14.120 -1.0487 -0.0793 -0.3966
13096TIP3   OH260702   5.477   5.110  13.564 -0.0794  0.0619  0.2242
13096TIP3    H160703   5.571   5.112  13.584 -0.0875 -0.3280  0.3135
13096TIP3    H260704   5.473   5.078  13.474 -0.0690  1.3265 -0.2445
13097TIP3   OH260705   6.751   5.972  11.412  1.1263 -0.0092  0.2632
13097TIP3    H160706   6.808   5.945  11.340  1.0200  0.0006  0.1748
13097TIP3    H260707   6.803   6.035  11.462  1.1012  0.1981  0.0321
13098TIP3   OH260708   1.904   6.269   2.231  0.0752 -0.2750  0.4684
13098TIP3    H160709   1.924   6.204   2.299 -1.0901 -1.5090 -0.3249
13098TIP3    H260710   1.836   6.324   2.270  0.8493  0.3071  1.0295
13099TIP3   OH260711   5.983   1.703  12.745 -0.1894 -0.2201 -0.2785
13099TIP3    H160712   6.050   1.657  12.796 -1.0853 -0.2908  0.8901
13099TIP3    H260713   5.919   1.635  12.724  0.0350 -0.1336 -1.2977
13100TIP3   OH260714   0.001   0.546   0.501  0.0871 -0.0539  0.0893
13100TIP3    H160715  -0.076   0.595   0.529  0.9763  0.6305  1.4416
13100TIP3    H260716  -0.017   0.522   0.410 -2.8082 -2.0475  1.0482
13101TIP3   OH260717   5.429   4.311  14.822  0.1467 -0.2583  0.2085
13101TIP3    H160718   5.455   4.234  14.873  0.6359 -1.2945 -1.5161
13101TIP3    H260719   5.368   4.357  14.879  0.0110 -1.8078  1.4004
13102TIP3   OH260720   4.035   3.827   6.765 -0.4411 -0.0361 -0.0294
13102TIP3    H160721   4.111   3.826   6.706  0.2836 -1.8584  0.8481
13102TIP3    H260722   4.062   3.884   6.837  1.7608 -3.4296  2.1451
13103TIP3   OH260723   6.247   4.200  11.727 -0.0615  0.2679  0.2070
13103TIP3    H160724   6.265   4.109  11.752 -0.7855  0.1741  0.4232
13103TIP3    H260725   6.261   4.250  11.808 -0.8485  0.1799  0.4028
13104TIP3   OH260726   6.058   0.841   5.503 -0.1028  0.0223  0.2218
13104TIP3    H160727   6.112   0.808   5.574  0.2994 -0.8061 -0.4434
13104TIP3    H260728   5.974   0.796   5.514  0.2860 -0.8919 -0.3943
13105TIP3   OH260729   5.869   6.117  15.782 -0.1408  0.3070  0.2017
13105TIP3    H160730   5.924   6.049  15.742  0.6697  0.0515  1.6891
13105TIP3    H260731   5.795   6.070  15.818  0.1406  0.2766  0.7463
13106TIP3   OH260732   0.182   0.384  11.903  0.0547 -0.2050  0.0234
13106TIP3    H160733   0.251   0.322  11.925  0.2052 -0.8447 -1.9989
13106TIP3    H260734   0.225   0.450  11.848 -1.1294 -1.4837 -2.6314
13107TIP3   OH260735   0.688   6.586   0.991  0.2092  0.3214 -0.1423
13107TIP3    H160736   0.646   6.508   1.029  0.2211  0.4034  0.0399
13107TIP3    H260737   0.781   6.570   0.999  0.2118  0.3390 -0.1376
13108TIP3   OH260738   3.454   1.645  12.231  0.3563  0.2842 -0.1721
13108TIP3    H160739   3.426   1.678  12.317  0.3461 -1.2757  0.4505
13108TIP3    H260740   3.544   1.675  12.222  0.2269  0.7964  0.2032
13109TIP3   OH260741   4.070   5.854   5.000 -0.2299 -0.3197  0.2841
13109TIP3    H160742   3.990   5.804   4.989  0.0627 -0.6475 -0.3779
13109TIP3    H260743   4.118   5.808   5.069 -0.4083 -0.3779  0.3696
13110TIP3   OH260744   4.111   2.279  13.985  0.1195  0.1218 -0.1801
13110TIP3    H160745   4.039   2.292  14.046  0.4052  3.3764 -0.3493
13110TIP3    H260746   4.190   2.297  14.037  0.4585  1.2642 -1.0393
13111TIP3   OH260747   6.718   6.436  16.021 -0.2595 -0.2704  0.1764
13111TIP3    H160748   6.690   6.345  16.017 -0.0904 -0.3403  0.5118
13111TIP3    H260749   6.747   6.448  16.111  4.7872 -1.4329 -0.9750
13112TIP3   OH260750   4.015   0.735  13.629 -0.0411  0.3046  0.0324
13112TIP3    H160751   4.020   0.646  13.594  3.3163  0.5436 -0.4204
13112TIP3    H260752   4.023   0.724  13.724 -1.0718  0.0807  0.1020
13113TIP3   OH260753   3.275   1.035   5.734 -0.2613  0.0654 -0.0733
13113TIP3    H160754   3.221   1.017   5.811 -1.3316  1.6306 -0.4062
13113TIP3    H260755   3.322   1.115   5.756  2.2171 -1.3856  0.3002
13114TIP3   OH260756   1.999   5.895  14.042  0.4426  0.2552 -0.4148
13114TIP3    H160757   1.991   5.802  14.065  3.1468 -0.1067 -0.5735
13114TIP3    H260758   1.998   5.940  14.127  0.9811 -0.1275 -0.1964
13115TIP3   OH260759   5.162   5.270  17.016 -0.6659 -0.5618  0.4313
13115TIP3    H160760   5.168   5.297  16.924 -1.1594  0.2031  0.6121
13115TIP3    H260761   5.167   5.175  17.014  0.3952 -0.5150 -0.3066
13116TIP3   OH260762   2.197   6.588   0.462 -0.4035  0.0892 -0.1329
13116TIP3    H160763   2.206   6.556   0.551  0.8994 -0.9613 -0.6062
13116TIP3    H260764   2.263   6.540   0.412 -0.0312  1.7779 -1.3703
13117TIP3   OH260765   5.283   2.275   0.525  0.1100 -0.0259  0.1678
13117TIP3    H160766   5.276   2.315   0.438  0.7698  0.3285  0.2738
13117TIP3    H260767   5.194   2.278   0.560 -0.6179 -2.0614 -1.3145
13118TIP3   OH260768   0.485   4.630  15.445  0.2192  0.6974  0.3359
13118TIP3    H160769   0.558   4.599  15.498  1.0867  1.8230 -0.1614
13118TIP3    H260770   0.518   4.629  15.355 -0.3376  1.3017  0.1167
13119TIP3   OH260771   2.084   5.232   3.488  0.2259 -0.0200 -0.5796
13119TIP3    H160772   2.097   5.273   3.574  0.5321 -1.3808  0.0646
13119TIP3    H260773   1.997   5.194   3.493  0.2366 -0.0853 -0.8815
13120TIP3   OH260774   6.419   5.486  15.687 -0.7305 -0.5304  0.2699
13120TIP3    H160775   6.404   5.491  15.782  0.1366  0.6175  0.3749
13120TIP3    H260776   6.333   5.498  15.648 -1.2090 -1.7113  0.9096
13121TIP3   OH260777   5.737   1.992  15.172 -0.2036  0.3520  0.0653
13121TIP3    H160778   5.673   1.922  15.163  0.9226 -0.5007 -1.6974
13121TIP3    H260779   5.745   2.030  15.085  1.9637  0.1599  0.1109
13122TIP3   OH260780   3.988   2.332   0.677  0.1492  0.3725  0.6076
13122TIP3    H160781   4.026   2.245   0.668  1.3575  1.0247 -0.9630
13122TIP3    H260782   4.060   2.387   0.708 -0.8164  0.7000  2.4633
13123TIP3   OH260783   3.717   1.262   0.650 -0.0469  0.0986  0.3439
13123TIP3    H160784   3.680   1.244   0.736  1.1607  0.8826  1.0660
13123TIP3    H260785   3.675   1.345   0.623  0.9161  0.8295  1.0273
13124TIP3   OH260786   2.741   0.823   3.831 -0.5527 -0.0026  0.2691
13124TIP3    H160787   2.827   0.855   3.805 -0.6227 -0.8227 -1.0559
13124TIP3    H260788   2.700   0.897   3.875  0.5041  0.6709  0.1508
13125TIP3   OH260789   5.918   2.233   5.690  0.3390  0.7740  0.3870
13125TIP3    H160790   5.969   2.308   5.659  0.6934  1.0393  1.5638
13125TIP3    H260791   5.882   2.261   5.773 -0.8665  0.1999  0.0762
13126TIP3   OH260792   2.732   0.156   4.901  0.9871 -1.0967 -0.2044
13126TIP3    H160793   2.744   0.101   4.978 -1.6740 -2.0505 -0.3863
13126TIP3    H260794   2.687   0.100   4.838 -0.8432  0.9311 -0.8129
13127TIP3   OH260795   5.176   1.334   1.074 -0.1563  0.3675 -0.0926
13127TIP3    H160796   5.194   1.412   1.126  0.5040 -0.4658  0.9539
13127TIP3    H260797   5.080   1.332   1.067 -0.1931  1.1085  0.0992
13128TIP3   OH260798   2.035   0.387  13.161 -0.2199 -0.6640 -0.3599
13128TIP3    H160799   2.029   0.349  13.249  1.2688  0.0798  0.0860
13128TIP3    H260800   1.973   0.459  13.162 -1.0428 -1.3506 -0.3116
13129TIP3   OH260801   0.119   1.619   3.020  0.0975  0.0143 -0.6423
13129TIP3    H160802   0.070   1.664   3.088  0.3507  0.3173 -0.6581
13129TIP3    H260803   0.136   1.686   2.954 -1.1578 -0.5484 -1.5648
13130TIP3   OH260804   3.373   4.183   1.823 -0.2423 -0.9217  0.8406
13130TIP3    H160805   3.287   4.210   1.856 -0.0981  1.1275 -0.3212
13130TIP3    H260806   3.435   4.228   1.880  0.0320 -0.3513  0.0915
13131TIP3   OH260807   6.201   2.311  14.878 -0.5884  0.3855  0.1615
13131TIP3    H160808   6.267   2.265  14.827 -0.9582  1.0627 -0.9714
13131TIP3    H260809   6.198   2.399  14.840 -1.0229  0.8461  1.2258
13132TIP3   OH260810   3.056   6.237  13.111 -0.9487 -0.0293  0.2629
13132TIP3    H160811   3.085   6.159  13.158 -1.2860  0.4994  1.3811
13132TIP3    H260812   3.132   6.296  13.112 -1.2906  0.4148  1.1250
13133TIP3   OH260813   6.156   4.607   1.551  0.2923 -0.3906 -0.3358
13133TIP3    H160814   6.146   4.644   1.639  3.1418 -1.1586  0.4022
13133TIP3    H260815   6.118   4.520   1.557  1.3313 -0.8091  0.4547
13134TIP3   OH260816   1.359   6.516  12.444 -0.0612 -0.8516 -0.1915
13134TIP3    H160817   1.292   6.543  12.380 -1.2495 -1.1540  0.8780
13134TIP3    H260818   1.353   6.421  12.446  0.1936 -0.8621  0.1275
13135TIP3   OH260819   1.052   0.869   0.604 -0.0702  0.0399 -0.3887
13135TIP3    H160820   1.016   0.820   0.530  2.1963  1.0559 -2.2984
13135TIP3    H260821   1.098   0.943   0.564 -2.2411  3.1341  2.2564
13136TIP3   OH260822   1.462   6.610   3.712  0.0361  0.4513 -0.1434
13136TIP3    H160823   1.517   6.562   3.774  0.2394  2.8498  1.6962
13136TIP3    H260824   1.497   6.699   3.713 -0.1857  0.6856 -3.5397
13137TIP3   OH260825   6.657   4.316   3.724  0.6047 -0.5500  0.0159
13137TIP3    H160826   6.730   4.296   3.665  3.3727  1.4959  2.4451
13137TIP3    H260827   6.676   4.267   3.804 -1.6558 -1.2453  0.2136
13138TIP3   OH260828   5.133   3.316  15.996  0.0599  0.2855  0.2557
13138TIP3    H160829   5.114   3.261  15.920  1.0579 -0.1284  0.2968
13138TIP3    H260830   5.228   3.311  16.007  0.0951  1.4611  0.6897
13139TIP3   OH260831   5.522   0.490   3.753 -0.2400 -0.0550  0.1031
13139TIP3    H160832   5.440   0.448   3.727 -0.0038 -1.2413  1.1736
13139TIP3    H260833   5.495   0.569   3.800 -0.8688 -1.4302  2.1562
13140TIP3   OH260834   6.186   3.595  12.404  0.1702 -0.0250 -0.2637
13140TIP3    H160835   6.097   3.591  12.440 -0.1287  0.0569 -0.9776
13140TIP3    H260836   6.239   3.630  12.476 -0.6292  1.2742 -0.2654
13141TIP3   OH260837   0.614   1.649   4.285 -0.6834 -0.0977 -0.0733
13141TIP3    H160838   0.565   1.699   4.219 -0.7124 -0.0450 -0.0121
13141TIP3    H260839   0.585   1.559   4.273 -0.1374 -0.2045 -0.6319
13142TIP3   OH260840   2.631   0.745  13.273  0.5118  0.4873 -0.0803
13142TIP3    H160841   2.555   0.782  13.228 -1.0832  0.7516  2.5723
13142TIP3    H260842   2.637   0.655  13.242  1.4247  1.4661 -3.0043
13143TIP3   OH260843   5.228   0.224   3.856  1.0931  0.3629  0.1954
13143TIP3    H160844   5.146   0.212   3.905 -0.7389  2.1672 -2.1619
13143TIP3    H260845   5.259   0.135   3.840 -0.4827 -0.3887  1.0325
13144TIP3   OH260846   4.024   3.154   3.366  0.3190 -1.1377  0.0929
13144TIP3    H160847   3.991   3.141   3.455  2.3966 -1.1650  0.9332
13144TIP3    H260848   4.090   3.086   3.355  3.1267  1.3310  0.1898
13145TIP3   OH260849   3.673   1.838   1.068  0.4715  0.1696  0.0433
13145TIP3    H160850   3.723   1.815   1.146  1.1645 -0.6547 -0.6287
13145TIP3    H260851   3.739   1.846   0.999 -0.1437  0.7647 -0.4920
13146TIP3   OH260852   3.282   6.513  15.479 -0.0285 -0.1263 -0.0120
13146TIP3    H160853   3.210   6.450  15.474 -1.1776  1.1391 -0.2671
13146TIP3    H260854   3.255   6.584  15.420  1.6905  0.1571 -0.5254
13147TIP3   OH260855   4.353   5.140  16.719 -0.1500 -0.1471 -0.5537
13147TIP3    H160856   4.273   5.095  16.747  0.6389  0.3427  3.0174
13147TIP3    H260857   4.394   5.080  16.657 -2.8985 -0.7052 -1.9968
13148TIP3   OH260858   0.599   5.359  11.192 -0.3623 -0.6435  0.6143
13148TIP3    H160859   0.659   5.416  11.239 -0.0434 -1.1121  0.7826
13148TIP3    H260860   0.513   5.380  11.227 -0.1308 -0.9612  1.3802
13149TIP3   OH260861   5.758   0.446  14.292 -0.2597  0.1636  0.0708
13149TIP3    H160862   5.789   0.411  14.208 -2.4109 -0.2932 -0.5970
13149TIP3    H260863   5.701   0.519  14.268 -1.6403 -0.5458  1.0478
13150TIP3   OH260864   2.124   5.960  12.942  0.3134  0.4706  0.6969
13150TIP3    H160865   2.165   6.005  13.016  2.5567 -0.7126  0.2463
13150TIP3    H260866   2.177   5.882  12.928  0.4491  1.0134 -2.6251
13151TIP3   OH260867   5.034   1.323   3.907  0.9190  0.8781  0.2450
13151TIP3    H160868   5.074   1.256   3.851  1.7384  0.5784  1.1605
13151TIP3    H260869   5.091   1.327   3.984 -0.3175  1.0977  1.1782
13152TIP3   OH260870   1.266   6.319  14.061  0.4696 -0.5825 -0.1408
13152TIP3    H160871   1.329   6.258  14.021 -0.7134  0.1713 -3.5310
13152TIP3    H260872   1.185   6.269  14.068 -0.2936  0.2147 -2.2175
13153TIP3   OH260873   2.915   1.767  12.030  0.2500 -0.2778  0.7832
13153TIP3    H160874   2.954   1.831  12.090  1.7194 -0.5827  0.2187
13153TIP3    H260875   2.986   1.703  12.015 -0.0389 -0.1841 -1.2936
13154TIP3   OH260876   6.527   2.908   4.027 -0.4420 -0.0185  0.6982
13154TIP3    H160877   6.570   2.947   4.103  1.4062 -0.0196 -0.3078
13154TIP3    H260878   6.469   2.841   4.065  1.0418 -0.5970  2.0864
13155TIP3   OH260879   5.835   3.243   0.659 -0.0984  0.0717  0.4396
13155TIP3    H160880   5.758   3.193   0.632  0.4861  0.4377 -2.1385
13155TIP3    H260881   5.893   3.178   0.698 -0.4549 -0.7706 -0.3965
13156TIP3   OH260882   1.172   2.246  16.660 -0.9571 -0.2475  0.5087
13156TIP3    H160883   1.113   2.172  16.642 -0.6014  0.1182 -2.9954
13156TIP3    H260884   1.114   2.319  16.679 -1.6143 -0.3980 -0.7457
13157TIP3   OH260885   6.349   1.898  12.730  0.0161 -0.2029 -0.5963
13157TIP3    H160886   6.397   1.820  12.756  1.3529  0.5364 -0.7481
13157TIP3    H260887   6.376   1.965  12.794 -1.1221  0.1427 -0.4493
13158TIP3   OH260888   2.417   2.090   5.570 -0.1852  0.3284 -0.2700
13158TIP3    H160889   2.374   2.143   5.503  0.4849  0.0515 -0.9420
13158TIP3    H260890   2.480   2.148   5.611 -2.4496  1.3143  2.0658
13159TIP3   OH260891   1.777   5.971   5.796  0.2606  0.3577 -0.0848
13159TIP3    H160892   1.757   5.879   5.778 -0.7033  0.5733 -0.2204
13159TIP3    H260893   1.872   5.977   5.791  0.4054 -0.8131  0.8021
13160TIP3   OH260894   0.981   3.114  15.374 -0.3309 -0.1993 -0.1119
13160TIP3    H160895   1.072   3.095  15.354 -0.5333 -0.1593 -1.1227
13160TIP3    H260896   0.960   3.056  15.448  0.9801  1.0321  1.3151
13161TIP3   OH260897   5.004   5.368   6.082  0.0080 -0.3060  0.9627
13161TIP3    H160898   5.031   5.316   6.157 -0.2305 -0.5645  0.8724
13161TIP3    H260899   5.085   5.406   6.048  0.3747 -1.6503  0.2673
13162TIP3   OH260900   1.425   0.618  14.837 -0.0616 -0.8435  0.3861
13162TIP3    H160901   1.336   0.637  14.869  0.6536 -0.6313  2.4075
13162TIP3    H260902   1.432   0.522  14.844  0.2918 -0.7526  1.5427
13163TIP3   OH260903   1.113   3.572   1.849  0.2228  0.4033 -0.6354
13163TIP3    H160904   1.177   3.527   1.904  1.1125  0.6786 -1.4122
13163TIP3    H260905   1.105   3.517   1.771  0.6872  1.1309 -1.2194
13164TIP3   OH260906   5.937   1.180  12.323  0.0283  0.1846  0.1547
13164TIP3    H160907   5.952   1.189  12.229  0.6874  0.1311  0.2469
13164TIP3    H260908   5.871   1.111  12.330  0.7444 -0.5608 -0.2291
13165TIP3   OH260909   0.599   6.507   4.134  0.0789  0.3498  0.0668
13165TIP3    H160910   0.527   6.465   4.181 -0.3270 -1.0368 -1.7208
13165TIP3    H260911   0.645   6.435   4.090  0.8748  1.5108 -1.0701
13166TIP3   OH260912   0.924   6.539  16.680 -0.4572 -0.2007 -0.0096
13166TIP3    H160913   0.924   6.528  16.775  1.0739  1.1446  0.1783
13166TIP3    H260914   1.009   6.506  16.651 -0.5942  0.1214 -0.8225
13167TIP3   OH260915   1.883   4.847   4.904  0.1991  0.4460 -0.1929
13167TIP3    H160916   1.804   4.892   4.874 -0.2225 -0.2994 -0.2208
13167TIP3    H260917   1.955   4.898   4.866 -0.2869  0.5877 -0.9507
13168TIP3   OH260918   6.359   4.001  10.499 -0.7022 -0.3413  0.5429
13168TIP3    H160919   6.427   4.067  10.509  0.4945 -1.6305  1.2910
13168TIP3    H260920   6.277   4.051  10.496  0.3064  1.3406 -1.7053
13169TIP3   OH260921   6.619   5.976   2.950 -0.1582  0.6071  0.2430
13169TIP3    H160922   6.666   6.025   2.883  1.3241 -1.1001 -0.0627
13169TIP3    H260923   6.528   5.975   2.920  0.2151  1.1158 -0.9686
13170TIP3   OH260924   6.415   1.105  13.603  0.2190  0.0402  0.0470
13170TIP3    H160925   6.432   1.156  13.524 -0.9717 -0.5280 -0.5964
13170TIP3    H260926   6.320   1.094  13.604  0.3663 -1.2628  0.7466
13171TIP3   OH260927   4.517   5.833   2.630 -0.1146 -0.5822 -0.4950
13171TIP3    H160928   4.556   5.890   2.564  0.8593 -0.8465 -0.1649
13171TIP3    H260929   4.583   5.765   2.644 -0.0965 -0.2540  1.1074
13172TIP3   OH260930   6.270   5.420   0.963 -0.1670 -0.0144  0.2642
13172TIP3    H160931   6.219   5.450   0.887  1.0346 -0.3421 -0.6855
13172TIP3    H260932   6.209   5.363   1.010 -0.8641  0.0087 -0.5645
13173TIP3   OH260933   0.642   1.127   2.317  0.0021 -0.1306  0.3099
13173TIP3    H160934   0.669   1.061   2.253  0.4958 -0.3498  0.7393
13173TIP3    H260935   0.546   1.121   2.319  0.0568 -1.0106  0.5356
13174TIP3   OH260936   3.645   1.941  15.434  0.2154  0.1321 -0.5872
13174TIP3    H160937   3.704   1.950  15.359 -0.2043 -0.3501 -0.9835
13174TIP3    H260938   3.701   1.950  15.510  0.9311 -1.0423 -0.9510
13175TIP3   OH260939   5.641   0.987   3.965  0.2115 -0.1181 -0.0212
13175TIP3    H160940   5.713   1.027   3.917  0.6508 -0.7006  0.1411
13175TIP3    H260941   5.680   0.913   4.011 -0.6960 -1.1323 -0.8195
13176TIP3   OH260942   2.286   4.381   5.887 -0.5055 -0.2377  0.5184
13176TIP3    H160943   2.348   4.450   5.861  0.2877 -1.6593 -1.6566
13176TIP3    H260944   2.255   4.408   5.973  0.8445  2.0936  0.3593
13177TIP3   OH260945   3.837   1.588  14.483 -0.2691 -0.3668 -0.1738
13177TIP3    H160946   3.926   1.592  14.447 -0.6294  1.3920 -0.9438
13177TIP3    H260947   3.805   1.677  14.478 -1.7964 -0.8189  0.8970
13178TIP3   OH260948   4.384   6.400  11.041  0.0200 -0.2444 -1.1024
13178TIP3    H160949   4.392   6.334  10.973 -1.6347 -0.4276 -1.1537
13178TIP3    H260950   4.355   6.479  10.996 -0.9712 -0.3340 -0.6504
13179TIP3   OH260951   3.055   6.025  15.701  0.2974  0.3785  0.2345
13179TIP3    H160952   2.965   6.007  15.675 -0.2911 -0.1890  2.4526
13179TIP3    H260953   3.053   6.114  15.736  0.4763  0.1864  0.7437
13180TIP3   OH260954   2.333   3.021   4.808 -0.3233 -0.7434 -0.0057
13180TIP3    H160955   2.375   2.941   4.839 -0.8560 -0.8174  0.5395
13180TIP3    H260956   2.240   3.009   4.827 -0.3887  0.0765  0.2603
13181TIP3   OH260957   1.967   3.995  11.810 -0.1558  0.3466 -0.0550
13181TIP3    H160958   1.924   4.040  11.738 -0.7172  1.1998  0.7971
13181TIP3    H260959   2.056   3.979  11.778 -0.5483  0.1984 -1.1354
13182TIP3   OH260960   0.068   4.322  12.993 -0.2389 -0.2307 -0.3234
13182TIP3    H160961   0.008   4.373  13.047  0.2668 -0.1463  0.1670
13182TIP3    H260962   0.018   4.244  12.968 -1.0413  0.5093 -1.1314
13183TIP3   OH260963   1.409   2.355   4.549 -0.3835  0.2173  0.5607
13183TIP3    H160964   1.430   2.265   4.573  0.6309  0.4063  0.4050
13183TIP3    H260965   1.343   2.346   4.480  0.1729 -0.4269  0.0973
13184TIP3   OH260966   6.478   1.575  10.892  0.1434  0.1662  0.1549
13184TIP3    H160967   6.543   1.566  10.962 -1.3853 -0.0731  1.6203
13184TIP3    H260968   6.447   1.665  10.900  0.4362  0.3485 -0.6793
13185TIP3   OH260969   4.887   2.751  15.278 -0.0714  0.1614  0.4290
13185TIP3    H160970   4.882   2.717  15.189 -0.5253 -2.2713  1.2988
13185TIP3    H260971   4.802   2.729  15.317 -0.2685  2.0999  1.1899
13186TIP3   OH260972   0.124   1.884   1.674  0.6673  0.4786 -0.0314
13186TIP3    H160973   0.211   1.846   1.659  0.3408  0.3177 -1.7600
13186TIP3    H260974   0.068   1.842   1.609 -0.3502  1.7953 -0.0471
13187TIP3   OH260975   0.499   2.758  14.686 -0.5488 -0.2442 -0.0052
13187TIP3    H160976   0.540   2.783  14.603 -0.3028  1.7931  0.6721
13187TIP3    H260977   0.468   2.840  14.723 -0.5023 -1.0738  2.0083
13188TIP3   OH260978   5.893   3.675   5.874  0.4524  0.4891  0.6318
13188TIP3    H160979   5.957   3.692   5.805  1.8412  1.0233  1.9795
13188TIP3    H260980   5.924   3.596   5.918 -1.2747 -0.7423 -0.2811
13189TIP3   OH260981   3.465   0.043  14.368 -0.1536  0.4381 -0.4994
13189TIP3    H160982   3.425   0.010  14.448 -1.3044  4.0042  0.6244
13189TIP3    H260983   3.553   0.068  14.393  0.1910 -0.3378 -0.9206
13190TIP3   OH260984   4.188   0.545   1.571  0.0556  0.0808 -0.3849
13190TIP3    H160985   4.238   0.483   1.519 -1.5065 -0.9153 -0.7833
13190TIP3    H260986   4.232   0.548   1.656  0.3534 -1.3362 -0.4807
13191TIP3   OH260987   6.744   1.923  16.688 -0.3496  0.0052  0.3528
13191TIP3    H160988   6.658   1.959  16.666 -0.9082 -0.8631  1.0661
13191TIP3    H260989   6.792   1.998  16.724 -1.0603  0.3326  0.6431
13192TIP3   OH260990   2.075   5.822  13.758  0.2134 -0.1868 -0.5076
13192TIP3    H160991   2.040   5.733  13.762  1.2504 -0.5982 -0.3172
13192TIP3    H260992   2.071   5.854  13.849  0.8313 -0.4326 -0.3928
13193TIP3   OH260993   2.997   6.403  15.572 -0.0568 -0.1115  0.0046
13193TIP3    H160994   2.915   6.445  15.547 -1.1681 -1.5032  1.1538
13193TIP3    H260995   2.993   6.394  15.667  1.3772 -0.3334  0.0802
13194TIP3   OH260996   1.200   6.286  10.846  0.3703  0.1624  0.0525
13194TIP3    H160997   1.168   6.372  10.818  0.9171  0.9965  1.8121
13194TIP3    H260998   1.130   6.251  10.901  0.0711 -0.6232 -0.8101
13195TIP3   OH260999   0.902   2.643   1.413 -0.1328  0.3593  0.0776
13195TIP3    H161000   0.903   2.607   1.325 -0.3329 -1.6910  0.8656
13195TIP3    H261001   0.990   2.628   1.447 -0.3703  0.1057  0.5990
13196TIP3   OH261002   3.398   4.778  12.044  0.2071 -0.2258 -0.1338
13196TIP3    H161003   3.397   4.816  12.132  0.0950 -2.3935  0.8522
13196TIP3    H261004   3.406   4.854  11.986  2.6033  1.1716  1.7968
13197TIP3   OH261005   2.663   4.926   1.073  0.3714 -0.2588 -0.5323
13197TIP3    H161006   2.677   4.832   1.058  0.7985 -0.1277 -0.9921
13197TIP3    H261007   2.622   4.957   0.993  0.7010  0.0424 -0.5872
13198TIP3   OH261008   1.151   1.482   3.927 -0.3104 -0.6491 -0.0591
13198TIP3    H161009   1.099   1.461   3.850 -1.1528 -0.1374  0.3518
13198TIP3    H261010   1.092   1.468   4.001  0.8236 -2.2681  0.6106
13199TIP3   OH261011   3.706   0.059  13.415  0.1021 -0.1492 -0.7733
13199TIP3    H161012   3.705  -0.037  13.410  0.1089 -0.2751  1.0936
13199TIP3    H261013   3.698   0.087  13.324  1.6630 -1.9250 -1.5382
13200TIP3   OH261014   0.652   5.274   6.453 -0.2636  0.8512 -0.0288
13200TIP3    H161015   0.647   5.197   6.397 -1.7746  1.1091 -0.2691
13200TIP3    H261016   0.727   5.323   6.419 -0.1419  0.1810 -0.7434
13201TIP3   OH261017   4.079   6.275  11.058  0.7766 -0.6297 -0.1921
13201TIP3    H161018   4.156   6.296  11.112  0.6897  2.8995 -1.2256
13201TIP3    H261019   4.117   6.240  10.977  1.5064  2.0913 -1.1343
13202TIP3   OH261020   1.757   4.861   3.446  0.2586 -1.0352 -0.0690
13202TIP3    H161021   1.790   4.791   3.390 -0.0501 -2.3765  1.3777
13202TIP3    H261022   1.736   4.819   3.529 -1.4552  0.4796  0.3416
13203TIP3   OH261023   6.106   0.638   1.778 -0.1545 -0.1642  0.1099
13203TIP3    H161024   6.106   0.571   1.845 -1.8198 -0.3268 -0.0187
13203TIP3    H261025   6.090   0.720   1.825 -1.3930 -0.2864 -0.0599
13204TIP3   OH261026   4.166   0.293  14.063  0.3936 -0.0538 -0.6177
13204TIP3    H161027   4.189   0.367  14.119 -0.9090  0.8775 -1.2582
13204TIP3    H261028   4.191   0.216  14.114 -0.3271  0.7705  1.0766
13205TIP3   OH261029   2.437   4.338  11.195 -0.0854 -0.3941 -0.8947
13205TIP3    H161030   2.406   4.428  11.208 -0.7961 -0.8068  0.3610
13205TIP3    H261031   2.505   4.346  11.128  2.6641  1.6783  1.8261
13206TIP3   OH261032   2.562   4.016  11.158  0.2572  0.4523  0.3500
13206TIP3    H161033   2.513   4.085  11.113  1.7768  1.8389  0.7400
13206TIP3    H261034   2.569   3.946  11.093 -1.0268  0.7679 -0.1676
13207TIP3   OH261035   2.077   4.723  11.447  0.2448 -0.0407 -0.1223
13207TIP3    H161036   2.088   4.630  11.464  1.1762  0.0007 -0.4108
13207TIP3    H261037   2.161   4.751  11.410 -0.7898  0.4080 -2.3014
13208TIP3   OH261038   5.170   1.686   4.486  0.1474 -0.2502  0.1984
13208TIP3    H161039   5.152   1.710   4.577 -0.3028  1.0749 -0.2062
13208TIP3    H261040   5.086   1.699   4.441  0.3246 -1.0433 -0.3767
13209TIP3   OH261041   0.171   1.505   4.177 -0.1437  0.4688  0.1507
13209TIP3    H161042   0.084   1.487   4.142 -0.1730  1.9102 -0.5703
13209TIP3    H261043   0.217   1.421   4.169 -0.9163  0.1286 -1.1098
13210TIP3   OH261044   3.001   3.735   2.347 -0.0194 -0.7776  0.7337
13210TIP3    H161045   3.042   3.820   2.328 -1.4635 -0.5023 -1.4209
13210TIP3    H261046   2.907   3.754   2.352 -0.2528 -2.0334  1.6933
13211TIP3   OH261047   6.549   4.014  16.197 -0.2163  0.7405 -0.0109
13211TIP3    H161048   6.617   4.026  16.263 -0.0339 -0.0983 -0.0269
13211TIP3    H261049   6.593   4.029  16.114  0.2760 -0.9689 -0.0971
13212TIP3   OH261050   0.237   0.591  13.061  0.4757  0.4544  0.2681
13212TIP3    H161051   0.270   0.675  13.028 -0.5561  0.4628 -0.8430
13212TIP3    H261052   0.253   0.530  12.989 -2.6695  0.6689 -0.7818
13213TIP3   OH261053   2.942   0.198  14.468 -0.2371 -0.4225  0.1013
13213TIP3    H161054   2.953   0.213  14.374  0.8976  0.2502  0.3146
13213TIP3    H261055   3.022   0.153  14.495 -0.8832 -1.2832  0.6154
13214TIP3   OH261056   0.464   0.224  10.946 -0.5464  0.2786  0.2375
13214TIP3    H161057   0.442   0.317  10.935 -1.4686  0.1416  0.7716
13214TIP3    H261058   0.544   0.212  10.895  0.5401  1.7354  1.4995
13215TIP3   OH261059   3.084   5.306  13.935  0.4349  0.8880  0.1644
13215TIP3    H161060   3.082   5.230  13.876 -1.2687  0.9761  0.0749
13215TIP3    H261061   3.133   5.372  13.887 -0.5447  0.8042 -0.9853
13216TIP3   OH261062   5.894   1.688   3.391  0.1389  0.0108 -0.4472
13216TIP3    H161063   5.970   1.638   3.362 -0.6093 -2.2856  1.2882
13216TIP3    H261064   5.931   1.757   3.447  0.9611 -2.7548  2.7136
13217TIP3   OH261065   3.402   2.959   4.376 -0.2438  0.2762 -0.0979
13217TIP3    H161066   3.442   2.904   4.309 -0.2441  1.7589 -1.4021
13217TIP3    H261067   3.311   2.928   4.381 -0.0087 -0.4334 -0.1288
13218TIP3   OH261068   1.377   2.725  11.590  0.1942  0.4760 -0.6603
13218TIP3    H161069   1.299   2.715  11.535  0.7467 -0.5277 -1.3022
13218TIP3    H261070   1.369   2.812  11.627 -0.5799  0.9063 -1.7686
13219TIP3   OH261071   5.707   1.783   4.586  0.1385  0.0412  0.4595
13219TIP3    H161072   5.630   1.840   4.589  0.2284  0.1756  0.2680
13219TIP3    H261073   5.673   1.698   4.559  0.1484  0.2695 -0.2984
13220TIP3   OH261074   4.709   1.161   4.703 -0.0719 -0.3732 -0.3974
13220TIP3    H161075   4.681   1.070   4.719  2.1626 -1.4679 -2.1158
13220TIP3    H261076   4.772   1.154   4.632  2.2582  2.2097  1.2071
13221TIP3   OH261077   3.310   5.321   4.760 -0.4275 -0.3802  0.7426
13221TIP3    H161078   3.375   5.330   4.691 -0.6841  0.5778  0.6094
13221TIP3    H261079   3.337   5.242   4.808  0.5682 -0.2514  0.4221
13222TIP3   OH261080   4.505   2.714   1.774  0.0757  0.1261 -0.5625
13222TIP3    H161081   4.590   2.743   1.809  0.9063  0.2834 -2.5823
13222TIP3    H261082   4.491   2.628   1.813  0.1132  0.9442  1.4156
13223TIP3   OH261083   5.175   6.397  17.183 -0.0693 -0.4484 -0.0312
13223TIP3    H161084   5.268   6.387  17.162 -0.3312 -2.1862 -0.4289
13223TIP3    H261085   5.168   6.366  17.274  0.1927  2.4458  1.1097
13224TIP3   OH261086   0.797   6.637  16.463 -0.5201 -0.4478 -0.0348
13224TIP3    H161087   0.705   6.610  16.472 -0.1884 -2.1143 -1.1117
13224TIP3    H261088   0.842   6.592  16.534 -0.4418 -0.0829  0.1470
13225TIP3   OH261089   4.923   5.929  17.007  0.3348  0.0721  0.0991
13225TIP3    H161090   5.014   5.910  17.029  0.0159  0.5938  2.1219
13225TIP3    H261091   4.915   6.024  17.017 -0.0539  0.2731 -1.7490
13226TIP3   OH261092   1.510   2.031  17.101 -0.4051  0.3103  0.0073
13226TIP3    H161093   1.576   2.012  17.168 -0.4385 -0.6353 -0.2272
13226TIP3    H261094   1.560   2.044  17.021 -0.3627  1.4698  0.1903
13227TIP3   OH261095   6.462   1.749  16.827 -0.2009  0.6154  0.5542
13227TIP3    H161096   6.408   1.703  16.763  0.0579  0.3241  0.5407
13227TIP3    H261097   6.415   1.739  16.909  0.4712 -0.7793  0.8011
13228TIP3   OH261098   1.080   5.676  15.036 -0.4601 -0.3696  0.5475
13228TIP3    H161099   1.009   5.627  15.078 -0.1127 -0.6951  0.7603
13228TIP3    H261100   1.035   5.742  14.983 -0.9703 -1.6879 -0.7078
13229TIP3   OH261101   6.783   5.022  15.427 -0.2226  0.3319  0.1344
13229TIP3    H161102   6.725   5.002  15.354  0.6904  0.0125 -0.5328
13229TIP3    H261103   6.786   4.942  15.479 -0.3840  0.3541  0.1779
13230TIP3   OH261104   0.404   1.808  13.109  0.6746 -0.1621  0.6644
13230TIP3    H161105   0.461   1.749  13.059  0.3098  0.7916 -0.9528
13230TIP3    H261106   0.438   1.895  13.090 -0.7231  0.3600  0.4457
13231TIP3   OH261107   5.192   1.651  11.828  0.4429  0.2029  0.1681
13231TIP3    H161108   5.186   1.579  11.892  1.3226 -0.2989 -0.3127
13231TIP3    H261109   5.252   1.620  11.761 -0.0148  0.9647 -0.6206
13232TIP3   OH261110   4.099   3.325  17.160  0.4018 -0.1372 -0.1436
13232TIP3    H161111   4.064   3.291  17.079 -0.4676 -1.0320  0.5836
13232TIP3    H261112   4.167   3.263  17.186 -1.8991 -2.0738  1.7321
13233TIP3   OH261113   6.515   3.435  15.742 -0.1489 -0.7589  0.1175
13233TIP3    H161114   6.435   3.416  15.791 -0.4003  2.1777  1.0487
13233TIP3    H261115   6.485   3.450  15.652 -0.4633 -0.7393  0.2232
13234TIP3   OH261116   6.773   4.728  17.084  0.4442 -0.5128  0.1652
13234TIP3    H161117   6.848   4.669  17.085  1.3619  0.5397 -1.7747
13234TIP3    H261118   6.755   4.743  16.991 -1.4579  0.1558  0.5953
13235TIP3   OH261119   0.694   5.858  11.389  0.1680  0.1232 -0.1927
13235TIP3    H161120   0.689   5.952  11.374 -0.0945 -0.0414 -1.1519
13235TIP3    H261121   0.639   5.843  11.466  0.3265  0.7642  0.0503
13236TIP3   OH261122   1.100   2.734   6.029 -0.3855  0.1091 -0.9679
13236TIP3    H161123   1.164   2.707   6.094 -0.0781  1.1294 -0.8313
13236TIP3    H261124   1.028   2.672   6.039  0.1121 -0.3829 -0.3824
13237TIP3   OH261125   2.670   5.903  13.417 -0.1081 -0.0361 -0.3034
13237TIP3    H161126   2.734   5.887  13.348  1.1253  1.1652  0.5232
13237TIP3    H261127   2.671   5.997  13.431 -0.8205 -0.1744  0.8940
13238TIP3   OH261128   3.719   3.603  14.008 -0.2297  0.0166  0.0836
13238TIP3    H161129   3.685   3.545  14.076 -1.8108 -1.1268 -1.5660
13238TIP3    H261130   3.648   3.665  13.992 -0.0053  0.1005 -0.6655
13239TIP3   OH261131   3.910   4.990  16.487  0.9080 -0.1874 -0.1404
13239TIP3    H161132   3.848   4.919  16.467  1.1956 -0.2698 -0.7583
13239TIP3    H261133   3.884   5.020  16.574 -0.1417 -0.0781 -0.4748
13240TIP3   OH261134   2.046   5.006   1.045 -0.3366 -0.4266 -0.5941
13240TIP3    H161135   2.077   5.093   1.071 -0.0069 -0.4500 -0.8862
13240TIP3    H261136   2.127   4.955   1.034 -0.5487 -0.8834 -0.0270
13241TIP3   OH261137   4.885   5.856  12.024 -1.2756 -0.5611 -0.1737
13241TIP3    H161138   4.912   5.898  11.943  1.7740  0.8798  1.4073
13241TIP3    H261139   4.833   5.923  12.069  1.9386  1.0921  1.4697
13242TIP3   OH261140   0.767   3.838  11.485 -0.1793  0.2321  0.4656
13242TIP3    H161141   0.725   3.833  11.400 -1.5400 -1.3651  1.1813
13242TIP3    H261142   0.708   3.892  11.538 -1.0660 -1.4455  1.2771
13243TIP3   OH261143   3.034   6.520   4.441  0.1714 -0.5751  0.0400
13243TIP3    H161144   3.040   6.592   4.378 -0.8077  0.2154  0.8280
13243TIP3    H261145   2.988   6.451   4.393 -1.6376  0.4473  0.2166
13244TIP3   OH261146   0.166   2.084   4.048  0.1732  0.1761  0.0686
13244TIP3    H161147   0.115   2.164   4.034  0.8883  1.0970  2.3580
13244TIP3    H261148   0.253   2.114   4.072  0.0636 -1.1912  2.5083
13245TIP3   OH261149   2.107   3.354  11.216  0.2414 -0.2946  0.4308
13245TIP3    H161150   2.150   3.293  11.276 -1.2563 -0.1654  1.6983
13245TIP3    H261151   2.053   3.298  11.161 -0.7790 -0.1802  1.2907
13246TIP3   OH261152   2.262   2.309  15.067 -0.1703  0.5155 -0.1302
13246TIP3    H161153   2.343   2.349  15.035 -0.7525  0.3908 -1.8865
13246TIP3    H261154   2.202   2.382  15.080 -1.0244  0.3692 -2.7157
13247TIP3   OH261155   1.789   3.317  15.169 -0.5181 -0.0244  0.6049
13247TIP3    H161156   1.702   3.308  15.130  0.1541 -1.8646 -0.6245
13247TIP3    H261157   1.782   3.270  15.253 -0.3974 -1.3499 -0.0968
13248TIP3   OH261158   3.744   6.658   1.134 -0.4920  0.2664 -0.1157
13248TIP3    H161159   3.805   6.637   1.204 -2.1735  0.4458  1.4942
13248TIP3    H261160   3.726   6.751   1.144  0.4824  0.6816 -1.8666
13249TIP3   OH261161   4.122   5.001  13.718 -0.1435 -0.2920  0.3683
13249TIP3    H161162   4.088   4.922  13.676  0.3606  0.3356 -1.3213
13249TIP3    H261163   4.214   4.979  13.737 -0.1668 -0.3282  0.4380
13250TIP3   OH261164   6.767   1.217  16.488  0.1658  0.2635  0.6645
13250TIP3    H161165   6.685   1.173  16.465 -0.7857  1.6398  1.2523
13250TIP3    H261166   6.741   1.308  16.502  1.9992  0.9659 -0.2112
13251TIP3   OH261167   0.925   1.700  16.881  0.6470  0.2512  0.2543
13251TIP3    H161168   0.863   1.666  16.946 -0.3418 -0.1525 -0.8760
13251TIP3    H261169   0.874   1.763  16.831  0.9043 -0.6732 -1.2129
13252TIP3   OH261170   0.252   3.177   3.377  0.3187  0.3804 -0.1183
13252TIP3    H161171   0.207   3.256   3.406  0.3711 -0.4592  2.5216
13252TIP3    H261172   0.181   3.114   3.361  0.3229  0.6717 -1.3797
13253TIP3   OH261173   6.346   0.144  16.696 -0.3294  0.4221  0.2798
13253TIP3    H161174   6.343   0.233  16.661 -2.9057 -0.0241 -0.8516
13253TIP3    H261175   6.283   0.145  16.768  0.4798 -0.2170  1.0077
13254TIP3   OH261176   5.809   5.301   0.507 -0.3001  0.3394 -0.2937
13254TIP3    H161177   5.724   5.337   0.480 -0.2156  0.0351 -0.9838
13254TIP3    H261178   5.862   5.303   0.428 -1.0661 -3.6482 -1.1067
13255TIP3   OH261179   2.053   6.441  14.924 -0.2241  0.5916 -0.3690
13255TIP3    H161180   2.015   6.419  15.009  2.3874  1.2426  1.0631
13255TIP3    H261181   2.017   6.527  14.903 -3.2925 -0.8285 -1.5414
13256TIP3   OH261182   3.189   3.350   0.072 -0.3954 -0.5725  0.1070
13256TIP3    H161183   3.094   3.343   0.078 -0.3005 -1.0546  1.4637
13256TIP3    H261184   3.209   3.438   0.103 -0.2982 -1.0791  1.5444
13257TIP3   OH261185   4.305   5.704  14.816 -0.3099 -0.3464  0.2660
13257TIP3    H161186   4.319   5.620  14.860  0.1528  0.4358  1.6752
13257TIP3    H261187   4.378   5.759  14.845 -1.2874  0.9401  0.3946
13258TIP3   OH261188   0.190   2.971  16.770 -0.2374 -0.7700 -0.4483
13258TIP3    H161189   0.126   3.043  16.771 -0.1482 -0.6696 -1.0953
13258TIP3    H261190   0.267   3.007  16.814 -0.1689 -0.4329 -0.8296
13259TIP3   OH261191   2.759   3.753   5.228 -0.4468  0.4372  0.0512
13259TIP3    H161192   2.720   3.687   5.170  0.7242 -1.0818  0.9186
13259TIP3    H261193   2.845   3.769   5.191  0.1478 -0.2379  1.0945
13260TIP3   OH261194   2.850   4.958   6.345 -0.2596  0.1187 -0.2182
13260TIP3    H161195   2.816   4.874   6.316  0.4363  0.3680 -1.8320
13260TIP3    H261196   2.938   4.938   6.378  0.0706  0.2666 -0.9967
13261TIP3   OH261197   1.697   3.986  14.694 -0.2352  0.2636 -0.2127
13261TIP3    H161198   1.781   3.971  14.650  0.7529  0.0228  1.6340
13261TIP3    H261199   1.681   3.905  14.743 -1.3492  0.4610 -0.2375
13262TIP3   OH261200   2.338   0.283  14.470 -0.4382 -0.2531 -0.2793
13262TIP3    H161201   2.323   0.270  14.377  1.7045 -1.5894 -0.5015
13262TIP3    H261202   2.415   0.340  14.474  1.1464 -2.3420  0.5850
13263TIP3   OH261203   1.360   0.162  10.509  0.3770  0.4469 -0.6466
13263TIP3    H161204   1.265   0.162  10.503  0.3848  0.8837 -0.7803
13263TIP3    H261205   1.389   0.229  10.447  0.7586  0.4759 -0.4424
13264TIP3   OH261206   0.966   1.262  11.858  0.4903 -0.1623 -0.3714
13264TIP3    H161207   0.980   1.199  11.787 -1.6898 -0.6503 -0.4321
13264TIP3    H261208   0.916   1.333  11.818 -0.0463 -0.0488  0.4714
13265TIP3   OH261209   1.077   5.473   6.003 -0.1215 -0.1051 -0.2081
13265TIP3    H161210   1.126   5.505   6.079 -0.7123 -2.3167  1.1964
13265TIP3    H261211   1.016   5.543   5.982 -0.7707  0.1013  2.1531
13266TIP3   OH261212   5.801   0.154  11.778  0.1644  0.5477  0.7669
13266TIP3    H161213   5.853   0.107  11.713  2.6430  2.6983  1.0249
13266TIP3    H261214   5.714   0.161  11.738  0.9612 -0.2276 -1.2637
13267TIP3   OH261215   0.038   5.421   3.412 -0.3076  0.3171  0.3458
13267TIP3    H161216   0.010   5.331   3.395  0.5681  0.0776  0.0909
13267TIP3    H261217   0.064   5.421   3.505 -0.3542  0.3153  0.3588
13268TIP3   OH261218   5.232   5.670  11.293 -0.3211 -0.2412 -0.2066
13268TIP3    H161219   5.245   5.749  11.239  0.8985 -0.2261  0.0743
13268TIP3    H261220   5.209   5.602  11.230  0.1502 -0.0059 -0.6464
13269TIP3   OH261221   1.299   6.749  11.577 -0.2223  0.4735  0.1005
13269TIP3    H161222   1.240   6.730  11.504  0.3939  2.1554 -0.8969
13269TIP3    H261223   1.347   6.668  11.591 -2.0648 -0.6376  0.3018
13270TIP3   OH261224   5.220   3.579   1.528  0.6301  0.1504  0.3275
13270TIP3    H161225   5.218   3.484   1.523 -0.5546  0.2196 -1.1711
13270TIP3    H261226   5.131   3.607   1.510  0.9990  1.5725  0.4928
13271TIP3   OH261227   4.186   2.140  13.666  0.5097  0.5432 -0.5794
13271TIP3    H161228   4.112   2.141  13.727  0.4586  1.1121 -0.6400
13271TIP3    H261229   4.204   2.233  13.650  1.0399  0.4006 -0.8050
13272TIP3   OH261230   0.072   3.637   1.796 -0.1757 -0.6245 -0.1009
13272TIP3    H161231   0.105   3.720   1.761 -2.4196 -0.0899 -1.1342
13272TIP3    H261232   0.147   3.579   1.794  1.7247  1.5932  1.5181
13273TIP3   OH261233   4.636   4.775   4.557  0.7231 -0.8505 -0.1362
13273TIP3    H161234   4.572   4.840   4.528  3.3055  1.1696 -1.8177
13273TIP3    H261235   4.681   4.817   4.630  1.0288 -1.6637  0.1490
13274TIP3   OH261236   1.590   4.535  13.281  0.4069  0.8416 -0.1956
13274TIP3    H161237   1.618   4.459  13.230 -0.8148 -0.3105  0.7708
13274TIP3    H261238   1.657   4.544  13.349  1.5272  1.7966 -1.3762
13275TIP3   OH261239   6.149   6.458   3.767  0.2588  0.3537 -0.0825
13275TIP3    H161240   6.104   6.406   3.701 -0.6723  2.4415 -1.2157
13275TIP3    H261241   6.220   6.403   3.798  0.9080 -0.6266 -3.0490
13276TIP3   OH261242   2.237   1.293   5.847  0.1947  0.0679  0.0413
13276TIP3    H161243   2.268   1.256   5.765 -0.9314 -0.7529 -0.0421
13276TIP3    H261244   2.218   1.217   5.903  1.3038  0.6142  1.2096
13277TIP3   OH261245   3.247   1.068  13.404 -0.1812 -0.2987  0.0143
13277TIP3    H161246   3.166   1.018  13.392 -0.5996  0.8865 -2.6992
13277TIP3    H261247   3.313   1.001  13.421 -1.1784 -1.5533 -0.8276
13278TIP3   OH261248   0.006   1.924  10.495 -0.7721  0.0349 -0.2808
13278TIP3    H161249  -0.065   1.984  10.518 -2.5246 -1.3716 -1.6193
13278TIP3    H261250   0.009   1.925  10.399  2.3361  1.4002 -0.2839
13279TIP3   OH261251   4.899   2.809  11.851  0.2554 -0.1549  0.3608
13279TIP3    H161252   4.894   2.757  11.931 -0.3040  0.4300  0.7137
13279TIP3    H261253   4.989   2.798  11.821  0.6969  0.2317  1.4957
13280TIP3   OH261254   0.834   2.606  10.254  0.3549 -0.3796  0.0083
13280TIP3    H161255   0.809   2.537  10.192 -0.9710 -0.5818  0.7316
13280TIP3    H261256   0.920   2.579  10.287  0.2187 -1.2622 -0.3348
13281TIP3   OH261257   2.569   5.329   0.668  0.2348 -0.0856 -0.1879
13281TIP3    H161258   2.559   5.383   0.747 -1.4775 -1.3175  0.4812
13281TIP3    H261259   2.554   5.390   0.596 -0.1570  0.6493  0.4943
13282TIP3   OH261260   0.262   6.620  14.533  0.3758  0.0760  0.0772
13282TIP3    H161261   0.317   6.695  14.513  0.5841 -0.4883 -1.6399
13282TIP3    H261262   0.285   6.555  14.467 -1.0518 -0.8510  0.4437
13283TIP3   OH261263   0.854   4.091   5.036 -0.4037 -0.4074 -0.5070
13283TIP3    H161264   0.811   4.176   5.047 -0.7307 -0.5447 -0.7037
13283TIP3    H261265   0.801   4.046   4.970 -0.1408 -0.7035 -0.5183
13284TIP3   OH261266   3.203   6.727  14.847  0.3696 -0.1071 -0.7360
13284TIP3    H161267   3.265   6.799  14.835  0.7689 -0.0212  1.5051
13284TIP3    H261268   3.246   6.670  14.910 -1.4381 -0.5438  0.1330
13285TIP3   OH261269   4.856   3.175  15.273 -0.1700  0.0221  0.1192
13285TIP3    H161270   4.911   3.097  15.272  0.4737  0.4586 -1.2403
13285TIP3    H261271   4.865   3.211  15.361  0.9635 -0.4432  0.1971
13286TIP3   OH261272   3.895   2.173  13.498  0.8262  1.0638  0.1691
13286TIP3    H161273   3.948   2.157  13.577  0.0282 -0.1577  0.4728
13286TIP3    H261274   3.946   2.135  13.427  0.4293 -0.0414  0.4515
13287TIP3   OH261275   3.846   2.167  14.773  0.1399 -0.4553  0.2039
13287TIP3    H161276   3.835   2.174  14.868  1.9821  1.1311  0.3515
13287TIP3    H261277   3.807   2.082  14.751 -2.4696  0.1348  1.9951
13288TIP3   OH261278   2.341   4.497  17.134 -0.2415  0.1387  0.3637
13288TIP3    H161279   2.421   4.543  17.160 -0.4987  0.4631  0.5892
13288TIP3    H261280   2.345   4.414  17.181 -0.4156  0.4785  0.9849
13289TIP3   OH261281   2.568   2.013   5.285 -0.6532  0.4019 -0.0225
13289TIP3    H161282   2.478   2.040   5.303 -0.4123  0.1499  1.7159
13289TIP3    H261283   2.576   1.926   5.324  0.3633  0.4601 -0.0653
13290TIP3   OH261284   3.002   1.656   5.373  0.3286 -0.4556 -0.0266
13290TIP3    H161285   2.975   1.717   5.442 -0.9494 -1.8857  0.7827
13290TIP3    H261286   2.926   1.650   5.316  1.1969  0.3125 -1.3286
13291TIP3   OH261287   6.482   2.952   3.605  0.0168  0.5139 -0.0067
13291TIP3    H161288   6.572   2.927   3.629 -0.2709 -1.2270 -0.6068
13291TIP3    H261289   6.473   3.041   3.637  1.8868  0.6398  0.2910
13292TIP3   OH261290   5.344   0.503   0.170 -0.3111 -0.1062 -0.6707
13292TIP3    H161291   5.419   0.537   0.121  0.5733  0.6771  1.1695
13292TIP3    H261292   5.377   0.489   0.258 -2.3699  0.4061  0.2268
13293TIP3   OH261293   5.761   1.173  15.703  0.0654  0.9659  0.1590
13293TIP3    H161294   5.711   1.211  15.631 -0.1593  1.3793  0.5298
13293TIP3    H261295   5.790   1.248  15.755  1.0314  0.7290 -0.0253
13294TIP3   OH261296   5.393   5.599  13.642 -0.0627  0.0019 -0.4122
13294TIP3    H161297   5.332   5.653  13.692  1.1881  0.1624  1.0123
13294TIP3    H261298   5.373   5.510  13.669 -0.4082 -0.0501 -0.8198
13295TIP3   OH261299   1.458   2.450  14.479  0.0237 -0.4882 -0.0808
13295TIP3    H161300   1.433   2.359  14.498 -0.4660 -0.1971  0.6965
13295TIP3    H261301   1.398   2.503  14.532 -0.0275  0.3031 -0.9072
13296TIP3   OH261302   2.795   0.768   3.005  0.9016  0.2610 -0.4076
13296TIP3    H161303   2.815   0.732   3.092  0.8359 -2.8524 -1.5607
13296TIP3    H261304   2.700   0.774   3.003  0.7839 -1.3329 -0.8068
13297TIP3   OH261305   4.057   6.775   0.802  0.0891  0.3329  0.2248
13297TIP3    H161306   4.094   6.760   0.890 -0.8067 -0.2061  0.5247
13297TIP3    H261307   3.964   6.755   0.812 -0.4715  2.4720 -0.3169
13298TIP3   OH261308   0.150   5.515  12.396  0.8869  0.6380  0.0878
13298TIP3    H161309   0.155   5.587  12.459  2.0324  0.6019  0.0639
13298TIP3    H261310   0.241   5.489  12.383  0.6598  0.5160 -1.4273
13299TIP3   OH261311   2.228   4.296   1.042  0.0345  0.1348 -0.5059
13299TIP3    H161312   2.175   4.375   1.033 -0.2774 -0.0004  0.1090
13299TIP3    H261313   2.295   4.320   1.106 -0.3923 -0.2607  0.1013
13300TIP3   OH261314   5.456   5.819   0.314  0.0762  0.5463 -0.2907
13300TIP3    H161315   5.439   5.797   0.406 -0.5616 -0.0189 -0.5378
13300TIP3    H261316   5.374   5.801   0.270  0.5102  0.4078 -1.0537
13301TIP3   OH261317   5.908   5.461   1.994 -0.0695  0.2455 -0.4350
13301TIP3    H161318   5.841   5.393   1.991 -0.5095  0.6148  0.5740
13301TIP3    H261319   5.978   5.424   2.048 -0.3184  0.6027  0.1310
13302TIP3   OH261320   2.700   6.182  16.331 -0.0671  0.6730  0.6095
13302TIP3    H161321   2.790   6.158  16.308  0.1284  0.0005  1.9361
13302TIP3    H261322   2.662   6.215  16.250  1.2868  0.7000 -0.0435
13303TIP3   OH261323   6.261   0.381   1.327 -0.3922  0.6693  0.8218
13303TIP3    H161324   6.229   0.418   1.409 -1.4051 -0.0569  0.7756
13303TIP3    H261325   6.237   0.445   1.260  0.2457  1.1610  1.0474
13304TIP3   OH261326   4.963   1.485  12.598 -0.5723 -0.7083  0.0716
13304TIP3    H161327   4.993   1.459  12.685  0.9591  0.4826 -0.0641
13304TIP3    H261328   4.953   1.402  12.551 -0.3226 -1.2972  1.0285
13305TIP3   OH261329   6.457   4.105  14.559 -0.2548  0.3785 -0.7596
13305TIP3    H161330   6.484   4.072  14.645  0.3658  0.7394 -0.8068
13305TIP3    H261331   6.456   4.027  14.503 -0.5488  0.1602 -0.4598
13306TIP3   OH261332   1.958   5.636  14.450 -1.1016  0.0095  0.2253
13306TIP3    H161333   1.936   5.729  14.454 -1.1322 -0.0406  2.1788
13306TIP3    H261334   1.873   5.592  14.445 -1.1906  0.0482  1.1515
13307TIP3   OH261335   3.332   2.946  10.524 -0.4069  0.1705  0.4386
13307TIP3    H161336   3.340   2.868  10.578  1.3315  0.0797  0.1094
13307TIP3    H261337   3.422   2.965  10.496 -1.0430  1.1746 -1.0491
13308TIP3   OH261338   2.517   6.579  13.808 -0.3414  0.4898 -0.1626
13308TIP3    H161339   2.540   6.526  13.884  1.0929  0.2319 -0.7368
13308TIP3    H261340   2.550   6.666  13.829  3.6139 -0.3823 -1.9429
13309TIP3   OH261341   0.520   2.522  14.836  0.0570 -0.6470  0.2167
13309TIP3    H161342   0.464   2.544  14.911  2.3026 -0.2008  1.8704
13309TIP3    H261343   0.517   2.601  14.781 -0.9499 -0.6506  0.2462
13310TIP3   OH261344   3.740   6.407   4.193 -0.2076  0.4705  0.5291
13310TIP3    H161345   3.764   6.314   4.195 -0.1733  0.3692 -2.0628
13310TIP3    H261346   3.673   6.415   4.261 -1.4442 -1.8200 -0.2953
13311TIP3   OH261347   0.270   0.463   4.933 -0.2115 -0.0079 -0.1862
13311TIP3    H161348   0.269   0.371   4.907  0.1444  0.0057 -0.2495
13311TIP3    H261349   0.178   0.483   4.952 -0.6519  0.2265 -2.2880
13312TIP3   OH261350   0.756   6.152  11.778  0.3874  0.3616  0.0973
13312TIP3    H161351   0.787   6.092  11.846 -1.2928 -0.5523  0.0976
13312TIP3    H261352   0.826   6.151  11.712  0.9506 -0.6229  0.6847
13313TIP3   OH261353   4.344   2.914  12.516 -0.5296  0.2903 -0.0376
13313TIP3    H161354   4.296   2.995  12.534  1.3008  0.9856  2.1096
13313TIP3    H261355   4.317   2.855  12.587 -1.3769 -0.8194 -1.2387
13314TIP3   OH261356   5.787   0.385  16.123 -0.0057 -0.1672 -1.1028
13314TIP3    H161357   5.705   0.336  16.135  0.3831 -1.0867 -2.0227
13314TIP3    H261358   5.848   0.345  16.186 -0.1136  0.1774 -0.7749
13315TIP3   OH261359   3.361   3.923  16.947  0.4054 -0.1495  0.7584
13315TIP3    H161360   3.359   3.877  17.031  0.0724 -0.6574  0.4742
13315TIP3    H261361   3.269   3.928  16.920  0.6784 -4.1301 -1.7977
13316TIP3   OH261362   2.882   5.239   3.911  0.2623  0.0490 -0.0073
13316TIP3    H161363   2.943   5.259   3.841  0.4598 -0.9317 -0.1256
13316TIP3    H261364   2.814   5.186   3.869  0.4712 -0.6882  0.5644
13317TIP3   OH261365   4.262   3.023  14.614  0.4774  0.3094 -0.0514
13317TIP3    H161366   4.339   2.973  14.588 -0.6713 -1.6056  0.0883
13317TIP3    H261367   4.282   3.054  14.702  0.8166 -0.7842  0.2642
13318TIP3   OH261368   4.732   2.698   0.113  0.5826  0.4239 -0.1482
13318TIP3    H161369   4.723   2.603   0.120 -3.0414  0.6842  0.5233
13318TIP3    H261370   4.753   2.713   0.021  0.5583 -0.9871 -0.4184
13319TIP3   OH261371   4.583   1.650  13.234 -0.4674 -0.2729  0.6542
13319TIP3    H161372   4.536   1.577  13.275 -0.3013 -1.7203 -1.5578
13319TIP3    H261373   4.545   1.728  13.274 -1.5154 -1.5158  2.2322
13320TIP3   OH261374   1.135   6.109   4.355 -0.0613 -0.2798  0.0378
13320TIP3    H161375   1.189   6.170   4.406  1.1830  0.7899 -2.3986
13320TIP3    H261376   1.045   6.133   4.378  0.4261  1.4533  0.3101
13321TIP3   OH261377   4.736   3.409   2.705  0.3841  0.0186 -0.2023
13321TIP3    H161378   4.795   3.474   2.743  1.7719 -1.3558  0.0593
13321TIP3    H261379   4.719   3.346   2.775 -1.2271  0.2292 -0.3488
13322TIP3   OH261380   6.510   1.316  12.509  0.1421  0.0681 -0.4493
13322TIP3    H161381   6.426   1.278  12.485 -0.4386  1.0045  0.0229
13322TIP3    H261382   6.512   1.312  12.604 -0.6637  2.5744 -0.2439
13323TIP3   OH261383   3.400   6.151  16.568  0.3593  0.3072 -0.3911
13323TIP3    H161384   3.399   6.230  16.622  3.1377  1.3292 -1.6573
13323TIP3    H261385   3.489   6.118  16.575 -0.3101 -1.8547 -1.1841
13324TIP3   OH261386   4.056   2.427   2.666 -0.5692 -0.3137 -0.7089
13324TIP3    H161387   3.993   2.496   2.646  0.4349  0.7771 -0.2318
13324TIP3    H261388   4.067   2.432   2.761 -1.9043 -2.4340 -0.3511
13325TIP3   OH261389   2.302   4.869   1.066 -0.5503  0.5719  0.0385
13325TIP3    H161390   2.331   4.901   1.152 -2.7713 -0.5777  1.3014
13325TIP3    H261391   2.374   4.812   1.037  1.0384  2.3717  0.2375
13326TIP3   OH261392   5.836   4.572   1.127 -0.3826  0.1467  1.1748
13326TIP3    H161393   5.891   4.650   1.126 -1.1336  0.7014 -0.0044
13326TIP3    H261394   5.890   4.504   1.088 -0.2990  0.5155  0.6334
13327TIP3   OH261395   3.345   6.076   1.979  0.0285 -0.4149  0.1228
13327TIP3    H161396   3.427   6.117   2.009 -0.2686 -0.6433  1.2718
13327TIP3    H261397   3.281   6.147   1.983 -0.0016 -0.4319 -0.0490
13328TIP3   OH261398   5.664   1.874  14.185  0.3941  0.9113  0.0462
13328TIP3    H161399   5.579   1.880  14.228 -0.1043  1.4560 -0.9725
13328TIP3    H261400   5.714   1.813  14.239 -1.1201 -0.5214 -0.0895
13329TIP3   OH261401   5.723   4.217   3.960 -0.2866 -0.4349  0.3990
13329TIP3    H161402   5.810   4.228   3.997 -0.0719 -0.9516  0.0717
13329TIP3    H261403   5.716   4.122   3.944 -0.3635 -0.2326 -0.8698
13330TIP3   OH261404   5.848   0.120   3.187 -0.2835  0.2441  0.0824
13330TIP3    H161405   5.852   0.069   3.106 -1.7617  1.1771 -0.6134
13330TIP3    H261406   5.935   0.159   3.194  0.3596 -1.0763 -0.2183
13331TIP3   OH261407   5.047   6.569   1.819  0.9330 -0.4007  0.1143
13331TIP3    H161408   5.053   6.505   1.890 -0.8213  0.6494  1.2786
13331TIP3    H261409   4.994   6.526   1.752  1.5272 -0.9291 -0.0241
13332TIP3   OH261410   3.586   4.543  15.125  0.1304  0.3628 -0.0894
13332TIP3    H161411   3.682   4.536  15.131  0.1430 -1.6236 -1.6681
13332TIP3    H261412   3.567   4.533  15.032 -1.6687 -0.1817  0.3085
13333TIP3   OH261413   0.887   4.229  13.845 -0.6812 -0.2682 -0.0757
13333TIP3    H161414   0.810   4.261  13.799 -1.4664 -0.5737  0.9839
13333TIP3    H261415   0.907   4.297  13.909 -1.1699 -0.9662  0.8524
13334TIP3   OH261416   3.533   0.599  17.155 -0.5553  0.4243  0.4682
13334TIP3    H161417   3.550   0.511  17.189  0.4919  0.9996  1.4916
13334TIP3    H261418   3.491   0.584  17.070  1.4963 -1.0852 -0.3617
13335TIP3   OH261419   3.584   3.708   6.384 -0.4092  0.3950 -0.1086
13335TIP3    H161420   3.615   3.627   6.345  0.6431  0.9554 -0.4747
13335TIP3    H261421   3.656   3.736   6.441 -0.9030  0.8876  0.2829
13336TIP3   OH261422   1.291   4.985   6.348  0.2983 -0.3187 -0.0646
13336TIP3    H161423   1.232   5.031   6.407  1.1625 -1.2584  1.5877
13336TIP3    H261424   1.359   4.949   6.404  0.9348 -1.6245 -1.5809
13337TIP3   OH261425   2.437   5.119   3.314  0.3031 -0.3727  0.1844
13337TIP3    H161426   2.491   5.167   3.252 -2.1204  0.1472 -1.6409
13337TIP3    H261427   2.416   5.037   3.269 -1.6406  0.0888  0.1477
13338TIP3   OH261428   6.674   6.451   1.887 -0.1290 -0.1346  0.5322
13338TIP3    H161429   6.627   6.379   1.931  0.3597 -2.0501 -1.8365
13338TIP3    H261430   6.759   6.414   1.863 -0.3608  0.7201 -1.9584
13339TIP3   OH261431   4.380   0.538  10.494 -0.8443  0.5613  0.2853
13339TIP3    H161432   4.409   0.525  10.584 -1.1499 -0.5146  0.2416
13339TIP3    H261433   4.321   0.464  10.477 -2.8962  2.1448  0.0672
13340TIP3   OH261434   0.524   3.923   6.142 -0.9474  0.1821  0.3941
13340TIP3    H161435   0.545   3.950   6.053 -2.6117  2.7188  0.6609
13340TIP3    H261436   0.429   3.909   6.141 -0.6161 -2.7411  1.1260
13341TIP3   OH261437   1.545   3.171  12.468  0.1842  0.0195  0.3688
13341TIP3    H161438   1.494   3.197  12.545 -0.9263 -0.5800 -0.1448
13341TIP3    H261439   1.528   3.238  12.403  0.9110  0.3809  0.5360
13342TIP3   OH261440   3.887   3.674  13.102  0.3286  0.3609 -0.8491
13342TIP3    H161441   3.911   3.582  13.089  1.0887  0.5215 -0.6387
13342TIP3    H261442   3.963   3.723  13.071  0.5139  0.8638  0.3359
13343TIP3   OH261443   0.403   3.516  16.775 -0.1875 -0.2077  0.4923
13343TIP3    H161444   0.393   3.421  16.774 -2.0437 -0.0774  1.4006
13343TIP3    H261445   0.437   3.535  16.863 -0.0098 -0.0243  0.3836
13344TIP3   OH261446   1.971   3.303  13.388  0.3144 -0.3770  0.1033
13344TIP3    H161447   1.993   3.224  13.437  2.0896 -0.7651 -1.2278
13344TIP3    H261448   1.924   3.272  13.311 -1.9562  0.1855  1.1845
13345TIP3   OH261449   6.556   2.747   0.048 -0.2056  0.5603  0.3076
13345TIP3    H161450   6.500   2.709   0.115  1.2896  2.8254  3.0446
13345TIP3    H261451   6.642   2.709   0.064 -0.1566 -0.2301 -1.5764
13346TIP3   OH261452   0.484   4.877   3.884 -0.0189  0.3935  0.3193
13346TIP3    H161453   0.569   4.845   3.914  1.7757  3.5585 -0.8685
13346TIP3    H261454   0.493   4.883   3.789 -1.6882  0.5690  0.1386
13347TIP3   OH261455   4.839   4.947  14.120 -0.4099  0.2742  0.1864
13347TIP3    H161456   4.773   4.974  14.184 -1.0913  1.0762 -0.8137
13347TIP3    H261457   4.861   5.028  14.073  0.5360 -0.1794 -0.1738
13348TIP3   OH261458   5.061   5.950  13.993 -0.1580 -1.1364 -0.0733
13348TIP3    H161459   5.141   5.993  13.963 -0.4630 -1.3418 -1.2051
13348TIP3    H261460   5.049   5.982  14.083 -0.2530  0.9895 -0.7849
13349TIP3   OH261461   5.970   4.760  16.557  0.3637 -0.6386  0.5159
13349TIP3    H161462   6.053   4.737  16.516  0.4569 -0.1716  0.4337
13349TIP3    H261463   5.909   4.770  16.484  1.2981  3.5383  0.0500
13350TIP3   OH261464   6.518   3.589   0.358 -0.4078 -0.5055 -0.0764
13350TIP3    H161465   6.444   3.533   0.379  1.0498 -2.2933  0.5514
13350TIP3    H261466   6.552   3.554   0.276  0.2282 -0.2206  0.0617
13351TIP3   OH261467   1.112   5.498   4.932  0.1529 -0.2382  1.1797
13351TIP3    H161468   1.156   5.430   4.983 -0.0001  1.2877  3.4802
13351TIP3    H261469   1.070   5.451   4.860  1.4567 -2.3378  1.7210
13352TIP3   OH261470   2.730   2.899  13.840 -0.2964  0.0759 -0.1337
13352TIP3    H161471   2.760   2.866  13.755  0.5603 -0.3628  0.3271
13352TIP3    H261472   2.634   2.900  13.832 -0.2711 -0.8486 -0.7826
13353TIP3   OH261473   4.769   2.807   0.595 -0.1051 -0.4997 -0.0586
13353TIP3    H161474   4.758   2.758   0.676  2.6996 -0.8864  0.2071
13353TIP3    H261475   4.840   2.869   0.614  0.0444 -0.0269 -1.9475
13354TIP3   OH261476   2.368   1.246   5.564 -1.2051  0.3077  0.0281
13354TIP3    H161477   2.323   1.171   5.526 -0.2922 -0.4251  0.3465
13354TIP3    H261478   2.338   1.321   5.513 -0.6759 -0.5235 -1.5973
13355TIP3   OH261479   4.481   4.352   5.731  0.1195  0.3434 -0.3953
13355TIP3    H161480   4.547   4.418   5.749  0.9028 -0.7488  0.9632
13355TIP3    H261481   4.445   4.376   5.646  0.4702  2.4064 -0.0133
13356TIP3   OH261482   5.421   2.261  16.293  0.1499  0.1735  0.3446
13356TIP3    H161483   5.375   2.248  16.376  1.8220  0.3751  1.3274
13356TIP3    H261484   5.463   2.346  16.302  1.0656 -0.1921 -0.3747
13357TIP3   OH261485   6.736   0.043   2.392 -0.1635  0.4662  0.6359
13357TIP3    H161486   6.819   0.016   2.431  0.4853  1.4123 -0.0276
13357TIP3    H261487   6.691   0.091   2.461 -0.2897 -0.2848  1.0829
13358TIP3   OH261488   2.025   3.911   5.385 -0.3589 -0.5771 -0.6172
13358TIP3    H161489   1.982   3.877   5.307 -2.3559  0.1350  0.0925
13358TIP3    H261490   2.033   3.835   5.443 -0.2031 -0.8209 -0.9561
13359TIP3   OH261491   2.327   2.145  15.285  0.4605 -0.5790 -0.0672
13359TIP3    H161492   2.294   2.182  15.203 -1.9110  0.0597  1.0758
13359TIP3    H261493   2.403   2.199  15.307  0.5046 -0.1068 -1.2977
13360TIP3   OH261494   4.536   2.144  14.706  0.3575  0.1463  0.0064
13360TIP3    H161495   4.596   2.196  14.653 -0.4704  1.7271  0.5521
13360TIP3    H261496   4.456   2.139  14.653  0.3524 -0.3802  0.0598
13361TIP3   OH261497   5.799   1.290  11.615 -0.3585  0.3365  0.2517
13361TIP3    H161498   5.864   1.266  11.549 -1.2163 -0.3837 -0.3608
13361TIP3    H261499   5.716   1.291  11.567 -1.2310 -1.6737  1.5893
13362TIP3   OH261500   2.386   3.191  10.493 -0.5924  0.5863  0.2613
13362TIP3    H161501   2.448   3.235  10.435 -0.0361  2.0554  1.9017
13362TIP3    H261502   2.438   3.126  10.540 -1.1238 -0.8917 -1.1004
13363TIP3   OH261503   4.526   2.056  16.942 -0.5215  0.0970 -0.5134
13363TIP3    H161504   4.577   2.079  16.865 -2.3349  1.0586 -1.5019
13363TIP3    H261505   4.437   2.086  16.922 -1.3443 -0.8599  1.3991
13364TIP3   OH261506   2.682   2.822   2.717  0.1602 -0.0824 -0.3850
13364TIP3    H161507   2.616   2.754   2.732  0.5957 -0.3318  0.4632
13364TIP3    H261508   2.760   2.789   2.762  0.7488  0.3855 -1.0569
13365TIP3   OH261509   4.882   1.209   1.113 -0.0396  0.1100 -0.0405
13365TIP3    H161510   4.817   1.219   1.183  1.4149 -0.8744  1.5594
13365TIP3    H261511   4.873   1.118   1.085  0.8047 -0.1143  0.3910
13366TIP3   OH261512   2.528   1.700   2.966  0.5588  0.4928  0.2084
13366TIP3    H161513   2.555   1.652   2.888 -0.2807 -0.0132  0.2219
13366TIP3    H261514   2.479   1.775   2.933 -0.1402  0.0657  0.2405
13367TIP3   OH261515   3.059   6.034   3.693  0.2743 -0.7213 -0.3025
13367TIP3    H161516   3.119   6.038   3.768 -0.4776 -0.2258  0.2787
13367TIP3    H261517   2.978   6.073   3.724 -0.4551 -1.6264 -1.0056
13368TIP3   OH261518   1.670   5.901  10.577  0.4234 -0.0921  0.1268
13368TIP3    H161519   1.621   5.981  10.557 -0.7798 -0.9908 -0.6526
13368TIP3    H261520   1.611   5.830  10.552  2.0644 -1.2253 -0.6853
13369TIP3   OH261521   4.246   6.575  15.812 -0.0328 -0.3720 -0.4044
13369TIP3    H161522   4.316   6.594  15.875 -0.5839  1.5802 -0.3355
13369TIP3    H261523   4.186   6.519  15.861 -0.1403  0.6073  0.6454
13370TIP3   OH261524   2.465   5.154   4.886  0.0886  0.2058  0.5345
13370TIP3    H161525   2.463   5.163   4.791 -1.3386 -0.8276  0.4420
13370TIP3    H261526   2.426   5.068   4.903  0.6929  0.1967  2.0386
13371TIP3   OH261527   2.976   3.324  11.198  0.7556  0.9309 -0.2323
13371TIP3    H161528   2.886   3.310  11.229  0.9098  0.1808 -0.0872
13371TIP3    H261529   3.011   3.391  11.256  0.6269  0.4546  0.4124
13372TIP3   OH261530   6.145   0.966  13.541 -0.0217 -0.6470 -0.3588
13372TIP3    H161531   6.168   0.894  13.600 -1.0592 -0.8742 -0.2025
13372TIP3    H261532   6.115   0.922  13.461  0.3069 -0.3607 -0.6422
13373TIP3   OH261533   0.022   2.149   2.116 -0.1683  0.8866  0.7101
13373TIP3    H161534  -0.070   2.138   2.093 -0.1008 -1.3996  1.2765
13373TIP3    H261535   0.070   2.127   2.036 -0.0924 -0.4508  1.0972
13374TIP3   OH261536   2.546   3.293   5.167  0.1187 -0.4151  0.0410
13374TIP3    H161537   2.566   3.217   5.112 -0.3858 -0.3570 -0.2316
13374TIP3    H261538   2.451   3.292   5.174  0.0897  0.3331 -0.1650
13375TIP3   OH261539   2.062   1.013  11.465 -0.0074 -0.0347 -0.3747
13375TIP3    H161540   2.034   1.096  11.504  0.4675  0.0764 -0.2576
13375TIP3    H261541   2.124   0.977  11.529 -0.9887 -0.9910  0.0798
13376TIP3   OH261542   5.403   6.662  15.341  0.0166  0.2698  0.2403
13376TIP3    H161543   5.435   6.716  15.268  0.5146  0.6417  0.7197
13376TIP3    H261544   5.460   6.685  15.414  1.0490 -1.8159  0.1598
13377TIP3   OH261545   6.063   4.740   2.374  0.0475 -0.1905  0.0266
13377TIP3    H161546   6.088   4.658   2.416  1.1031  0.8879  1.6303
13377TIP3    H261547   6.054   4.802   2.447  0.2524  1.3486 -1.2140
13378TIP3   OH261548   4.561   1.160  11.465 -0.3256  0.0621 -0.1286
13378TIP3    H161549   4.590   1.119  11.547  0.1094 -0.3097 -0.4633
13378TIP3    H261550   4.574   1.092  11.399 -0.6352  0.3781 -0.5139
13379TIP3   OH261551   2.548   2.957   1.730 -0.6097 -0.3089 -0.8902
13379TIP3    H161552   2.530   2.921   1.644  1.4052 -3.4581 -0.1566
13379TIP3    H261553   2.476   2.926   1.785 -1.9962  1.8559 -1.3670
13380TIP3   OH261554   1.499   0.647   3.332 -0.1225 -0.3067  0.6805
13380TIP3    H161555   1.498   0.569   3.387 -1.0053 -0.9251 -0.1779
13380TIP3    H261556   1.407   0.663   3.311  0.2652 -2.0130 -3.2013
13381TIP3   OH261557   1.690   2.776   5.003 -0.8945  0.2189  0.5566
13381TIP3    H161558   1.601   2.792   4.972 -1.0040 -0.7238  0.3676
13381TIP3    H261559   1.744   2.783   4.924 -0.7987  0.7471  0.6641
13382TIP3   OH261560   2.280   3.755  16.395 -0.0512  0.1913  0.1703
13382TIP3    H161561   2.356   3.802  16.361 -0.4838  0.7752 -0.0180
13382TIP3    H261562   2.207   3.817  16.383 -0.7549 -0.7770 -0.7254
13383TIP3   OH261563   1.155   2.483   2.859  0.1187  0.1052  0.2328
13383TIP3    H161564   1.138   2.517   2.946 -0.7621  1.4917 -0.4636
13383TIP3    H261565   1.250   2.468   2.858  0.1303 -0.0234  1.4318
13384TIP3   OH261566   3.352   6.685  14.569 -0.7067  0.6047 -0.0481
13384TIP3    H161567   3.260   6.701  14.549 -0.0700  2.0846 -2.2316
13384TIP3    H261568   3.377   6.756  14.628 -1.0796 -0.1487  1.0412
13385TIP3   OH261569   4.774   1.226   3.990 -0.4396  0.3077  0.4357
13385TIP3    H161570   4.716   1.283   3.938 -0.4644 -0.4578 -0.4037
13385TIP3    H261571   4.847   1.207   3.932 -0.2661 -0.2494  0.8320
13386TIP3   OH261572   0.038   0.403  13.053 -0.2778  0.1263 -0.1757
13386TIP3    H161573   0.102   0.473  13.045  0.2942 -0.4423 -0.6614
13386TIP3    H261574  -0.042   0.438  13.015 -0.9249  1.6186  2.3248
13387TIP3   OH261575   0.687   1.587   5.137 -0.1517 -0.1049 -0.0095
13387TIP3    H161576   0.638   1.572   5.056  0.0443 -0.9675  0.0183
13387TIP3    H261577   0.670   1.678   5.159 -0.1169  0.1771 -1.0916
13388TIP3   OH261578   5.866   5.413  14.178 -0.4416 -0.2948  0.5051
13388TIP3    H161579   5.864   5.452  14.266  2.8111  1.3108  0.0297
13388TIP3    H261580   5.879   5.488  14.120 -2.0017 -1.3915 -1.3615
13389TIP3   OH261581   4.462   5.123   5.844 -0.5723 -0.4904 -0.0126
13389TIP3    H161582   4.468   5.181   5.920  1.3169  0.4789 -0.8056
13389TIP3    H261583   4.504   5.042   5.871  0.3690 -0.0392 -0.0838
13390TIP3   OH261584   5.749   5.618  12.158  0.1635 -0.5175 -0.3217
13390TIP3    H161585   5.715   5.701  12.192 -0.0469 -0.5877 -0.3548
13390TIP3    H261586   5.700   5.604  12.077  2.0626  0.6452 -1.7373
13391TIP3   OH261587   3.167   3.192  15.521  0.5637 -0.0271 -0.8429
13391TIP3    H161588   3.161   3.216  15.613 -1.2153 -0.9053 -0.6947
13391TIP3    H261589   3.213   3.109  15.520 -1.5558 -1.2729 -0.4669
13392TIP3   OH261590   5.294   5.998  13.536 -0.1685 -0.2721  0.0516
13392TIP3    H161591   5.334   6.084  13.518 -0.4879 -0.0687  0.3037
13392TIP3    H261592   5.291   5.993  13.632  0.3921 -0.8223  0.0448
13393TIP3   OH261593   5.120   1.594  13.040  0.3701  0.5548 -0.5183
13393TIP3    H161594   5.160   1.607  13.126  0.3924  0.4094 -0.5065
13393TIP3    H261595   5.163   1.657  12.983  1.8305 -0.7209 -0.8998
13394TIP3   OH261596   2.254   0.521  11.545  1.0226  0.5791 -0.5925
13394TIP3    H161597   2.210   0.592  11.499 -1.4915 -1.4764 -1.5838
13394TIP3    H261598   2.260   0.451  11.480  1.6376 -0.7868  0.8885
13395TIP3   OH261599   2.327   4.203  11.647 -0.3123 -0.0581  0.6813
13395TIP3    H161600   2.251   4.204  11.589 -0.0579 -1.2310  0.2911
13395TIP3    H261601   2.402   4.208  11.587 -0.0314 -1.7668  0.8544
13396TIP3   OH261602   1.132   5.830   2.300  0.0578  0.1290  0.1200
13396TIP3    H161603   1.069   5.867   2.239 -0.9532 -2.6335 -0.6490
13396TIP3    H261604   1.211   5.817   2.248  0.0577  0.1878  0.1047
13397TIP3   OH261605   5.515   4.772  12.439 -0.5033 -0.0997 -0.4310
13397TIP3    H161606   5.484   4.751  12.351  1.5107  3.0326 -2.1365
13397TIP3    H261607   5.438   4.802  12.486 -1.4240 -0.6186 -1.5696
13398TIP3   OH261608   2.876   1.323  15.237 -0.2428 -0.3121 -0.0496
13398TIP3    H161609   2.879   1.404  15.287 -0.5605 -0.2740 -0.0916
13398TIP3    H261610   2.918   1.258  15.294  0.2220 -0.0678 -0.1130
13399TIP3   OH261611   6.107   1.896  11.568 -0.5149 -0.2768  0.0768
13399TIP3    H161612   6.041   1.913  11.636  0.9711  0.1653  1.4606
13399TIP3    H261613   6.183   1.948  11.594  0.5400 -1.0852 -1.2507
13400TIP3   OH261614   3.953   6.517   2.561 -0.3909  0.1904 -0.2722
13400TIP3    H161615   4.036   6.516   2.610 -1.2797  1.1554  1.3339
13400TIP3    H261616   3.974   6.472   2.479  1.8202  0.7146 -0.0766
13401TIP3   OH261617   2.385   3.703   5.048  0.2010 -0.1742 -0.3024
13401TIP3    H161618   2.365   3.793   5.072  0.8547 -0.1253  0.0680
13401TIP3    H261619   2.407   3.660   5.131  1.9091 -0.1470 -0.7099
13402TIP3   OH261620   5.194   1.862   2.861  0.4514 -0.0423 -0.4001
13402TIP3    H161621   5.245   1.868   2.780  1.1630  0.1599  0.0530
13402TIP3    H261622   5.242   1.797   2.913  0.9933  1.1071  0.5606
13403TIP3   OH261623   6.386   2.339   3.197  0.1041 -0.0440  0.7916
13403TIP3    H161624   6.409   2.406   3.132  0.4418 -0.0685  0.8845
13403TIP3    H261625   6.313   2.292   3.157 -0.4381  0.6784  0.9281
13404TIP3   OH261626   4.145   4.448  15.062  0.3332  0.3715 -0.0111
13404TIP3    H161627   4.151   4.541  15.041  2.8086  0.1431 -0.5962
13404TIP3    H261628   4.172   4.441  15.153 -0.1407  0.2296  0.1255
13405TIP3   OH261629   0.324   3.891   4.309 -0.3708  0.0893  0.0895
13405TIP3    H161630   0.386   3.853   4.372 -1.3318 -1.3764  0.1658
13405TIP3    H261631   0.242   3.900   4.358 -1.8687 -3.3588 -1.5152
13406TIP3   OH261632   1.756   5.405   1.963 -0.3166 -0.2414 -0.5079
13406TIP3    H161633   1.695   5.437   2.030  0.1482 -2.6077  1.2017
13406TIP3    H261634   1.793   5.484   1.924 -0.5433  1.3087  2.1544
13407TIP3   OH261635   4.692   3.309  14.794 -0.6987  0.3181  0.0569
13407TIP3    H161636   4.764   3.248  14.809 -1.8188 -0.9288  0.5504
13407TIP3    H261637   4.634   3.263  14.734 -0.3210  1.9790 -1.6923
13408TIP3   OH261638   2.027   5.915   5.250  0.1203 -0.0607  0.2218
13408TIP3    H161639   2.014   5.955   5.336  0.9395  1.0596 -0.1642
13408TIP3    H261640   1.954   5.853   5.242 -0.0716 -0.0567  1.6392
13409TIP3   OH261641   4.325   0.477  15.728 -0.1690  0.4680  0.3321
13409TIP3    H161642   4.349   0.390  15.761  2.0303  1.3155  1.2025
13409TIP3    H261643   4.404   0.529  15.742 -1.2894  2.4935 -0.5977
13410TIP3   OH261644   3.572   1.531  14.401  0.1195 -0.4840  0.6095
13410TIP3    H161645   3.657   1.566  14.429  0.1310 -0.7328  0.8945
13410TIP3    H261646   3.577   1.438  14.422  0.5608 -0.9164 -1.2479
13411TIP3   OH261647   6.173   1.959  10.378 -0.6768  0.7493 -0.1242
13411TIP3    H161648   6.110   1.982  10.446 -1.2506  0.7012 -0.6262
13411TIP3    H261649   6.142   1.876  10.343  1.2709 -0.7727  1.5302
13412TIP3   OH261650   6.341   3.265  13.535  0.0688 -0.2393 -0.0244
13412TIP3    H161651   6.364   3.358  13.547 -1.3945  0.4530 -2.0508
13412TIP3    H261652   6.419   3.217  13.562  1.8017  1.7050 -1.2589
13413TIP3   OH261653   4.892   0.596  15.974  0.7645 -0.3458 -0.2650
13413TIP3    H161654   4.823   0.616  16.037 -0.7358 -2.1159 -1.2470
13413TIP3    H261655   4.939   0.523  16.013  0.9729 -0.2810 -0.3936
13414TIP3   OH261656   4.104   4.638  11.142 -0.6667  0.6986  0.2413
13414TIP3    H161657   4.062   4.645  11.228 -1.6659 -3.1754  0.2451
13414TIP3    H261658   4.113   4.544  11.127 -1.0740  1.1539 -4.1552
13415TIP3   OH261659   3.189   3.711  11.732 -0.1415  0.1365 -0.3190
13415TIP3    H161660   3.266   3.714  11.789 -1.2020 -1.2485  1.3260
13415TIP3    H261661   3.160   3.620  11.737 -2.6233  0.8701  0.2355
13416TIP3   OH261662   5.286   1.679   6.294 -0.1560 -0.3454  0.2311
13416TIP3    H161663   5.194   1.655   6.304 -0.6720  1.2257 -0.3891
13416TIP3    H261664   5.297   1.757   6.348  0.2853  0.6178 -1.1834
13417TIP3   OH261665   6.166   6.667  11.601  0.1842 -0.4136 -0.3427
13417TIP3    H161666   6.106   6.703  11.666 -1.0759  1.3009 -2.3382
13417TIP3    H261667   6.129   6.582  11.579 -2.5266  1.1758 -2.5638
13418TIP3   OH261668   2.717   3.947  13.156 -0.2349 -0.6160  0.1060
13418TIP3    H161669   2.788   3.924  13.096 -0.5654  0.2970 -0.6458
13418TIP3    H261670   2.716   3.875  13.219  0.7706 -1.0928 -0.3907
13419TIP3   OH261671   0.459   6.629  10.319  0.4616 -0.1364  0.0654
13419TIP3    H161672   0.485   6.543  10.352 -0.8107 -0.1387  1.1635
13419TIP3    H261673   0.378   6.649  10.366  1.2480  2.1200  0.6233
13420TIP3   OH261674   4.896   5.580   3.241  0.6198 -0.3953  0.0296
13420TIP3    H161675   4.965   5.548   3.299  0.3938 -0.1478  0.4395
13420TIP3    H261676   4.870   5.664   3.279  0.9978  0.1423 -0.8556
13421TIP3   OH261677   5.260   6.490   3.617  0.1553  0.1352  0.0486
13421TIP3    H161678   5.207   6.433   3.674 -1.2065  0.7706 -0.5482
13421TIP3    H261679   5.230   6.469   3.529  0.6647  0.7600 -0.2756
13422TIP3   OH261680   1.033   1.843   3.343 -0.2082  0.0845 -0.4653
13422TIP3    H161681   0.998   1.845   3.254  0.6039  0.0190 -0.7936
13422TIP3    H261682   1.065   1.753   3.354  2.7259  0.9311 -1.3279
13423TIP3   OH261683   0.387   1.695  16.431 -0.3508 -0.3382  0.1854
13423TIP3    H161684   0.361   1.672  16.521  2.7278 -2.0398  0.7968
13423TIP3    H261685   0.470   1.741  16.442 -0.0119 -0.4022 -1.8176
13424TIP3   OH261686   6.137   6.217  11.476  0.7178 -0.3334  0.0293
13424TIP3    H161687   6.066   6.256  11.528  1.3573  2.4964 -1.0850
13424TIP3    H261688   6.141   6.126  11.507 -2.2519 -0.1491  1.3091
13425TIP3   OH261689   2.205   5.308   4.782  0.5088 -0.0675 -0.1764
13425TIP3    H161690   2.277   5.365   4.810 -0.4084  0.9166  0.2590
13425TIP3    H261691   2.134   5.368   4.760 -0.4761 -1.0386  0.2522
13426TIP3   OH261692   3.902   1.053   2.352 -0.2823 -0.9653  0.0039
13426TIP3    H161693   3.977   0.993   2.358  0.1287 -0.5159 -0.5903
13426TIP3    H261694   3.922   1.122   2.415 -0.8558 -1.5412  0.8426
13427TIP3   OH261695   0.386   5.109  11.521  0.6063  0.3258 -0.6731
13427TIP3    H161696   0.341   5.148  11.596  1.6274 -1.3822  0.9033
13427TIP3    H261697   0.354   5.019  11.517  1.0508  0.1998 -1.9113
13428TIP3   OH261698   1.560   6.332   0.129 -0.1701 -0.2215  0.0536
13428TIP3    H161699   1.469   6.321   0.103  0.1773 -0.1544 -1.2429
13428TIP3    H261700   1.563   6.298   0.219 -1.4430 -0.2944  0.0922
13429TIP3   OH261701   5.050   0.534  11.477 -0.1282 -0.4443  0.1089
13429TIP3    H161702   5.125   0.504  11.527  0.0422  0.6435  0.5386
13429TIP3    H261703   4.981   0.546  11.543  0.1351  1.1130  0.1452
13430TIP3   OH261704   6.496   0.680  15.940  0.3472 -0.0923  0.2354
13430TIP3    H161705   6.563   0.658  15.876  0.2861 -1.2395  0.5295
13430TIP3    H261706   6.416   0.691  15.889  0.2766 -1.1079  0.1047
13431TIP3   OH261707   1.926   1.312  16.479  0.2519 -0.0399  0.7216
13431TIP3    H161708   1.862   1.241  16.493 -0.2895  0.4650  0.8401
13431TIP3    H261709   1.902   1.378  16.544  0.3196  0.5444  0.1531
13432TIP3   OH261710   3.797   0.708  16.840 -0.0265  0.0812 -0.0826
13432TIP3    H161711   3.878   0.658  16.853  0.4488  0.5577 -1.1083
13432TIP3    H261712   3.790   0.762  16.919  1.3442  0.9593 -0.5234
13433TIP3   OH261713   1.842   0.466  14.504 -0.2113  0.6412 -0.4375
13433TIP3    H161714   1.924   0.477  14.553  0.7356 -1.9744 -1.3214
13433TIP3    H261715   1.774   0.467  14.572  0.4291  3.0251  0.2953
13434TIP3   OH261716   6.108   2.545   1.377 -0.7140 -0.2245  0.5999
13434TIP3    H161717   6.075   2.462   1.343  0.0611  0.4429 -1.9867
13434TIP3    H261718   6.053   2.612   1.335 -0.8473  0.6388  2.0714
13435TIP3   OH261719   5.619   1.513   5.102 -0.0849 -0.3651  0.1050
13435TIP3    H161720   5.651   1.585   5.047 -0.5571 -0.2488 -0.0228
13435TIP3    H261721   5.618   1.549   5.190 -0.3688 -0.1952  0.0341
13436TIP3   OH261722   4.507   6.106  12.778  0.0549  0.3971  0.1528
13436TIP3    H161723   4.464   6.055  12.846  0.8753  1.3332  1.4060
13436TIP3    H261724   4.600   6.103  12.800  0.2447  1.3904 -0.4475
13437TIP3   OH261725   0.660   1.787  13.427  0.2587  0.3088 -0.2319
13437TIP3    H161726   0.733   1.740  13.466 -1.4395 -0.6112  2.1184
13437TIP3    H261727   0.696   1.872  13.403  1.8174  0.4551  2.2577
13438TIP3   OH261728   4.627   0.726  12.476 -0.0779  0.0841 -0.2462
13438TIP3    H161729   4.540   0.745  12.510 -0.8428 -0.0499 -2.0122
13438TIP3    H261730   4.633   0.630  12.480 -0.2141  0.0599 -0.5463
13439TIP3   OH261731   6.012   3.043  16.877  0.5651  0.1338  0.2419
13439TIP3    H161732   6.074   2.992  16.928  0.4233  0.2009  0.4793
13439TIP3    H261733   6.008   3.128  16.921  0.0021 -0.0061  0.4559
13440TIP3   OH261734   0.133   3.497  17.153  0.2283  0.1212 -0.3934
13440TIP3    H161735   0.172   3.537  17.075 -0.5131  2.2656  0.2556
13440TIP3    H261736   0.108   3.409  17.126 -0.1936  0.8883 -2.6306
13441TIP3   OH261737   0.736   0.194  14.596  0.1272 -0.3568  0.4196
13441TIP3    H161738   0.807   0.256  14.578  0.2905 -0.1705  1.5830
13441TIP3    H261739   0.708   0.163  14.510 -0.4461  1.8873 -0.2721
13442TIP3   OH261740   5.238   5.795   1.391 -0.1124 -0.4913 -0.1078
13442TIP3    H161741   5.203   5.756   1.471 -0.4520 -1.9598 -0.9383
13442TIP3    H261742   5.162   5.805   1.334  0.2984 -0.5760 -0.6800
13443TIP3   OH261743   2.709   0.426   4.968  0.2042  0.3515 -0.9544
13443TIP3    H161744   2.795   0.442   5.006  0.0617 -0.5214 -0.2295
13443TIP3    H261745   2.717   0.341   4.925 -0.5895 -0.2541  0.0597
13444TIP3   OH261746   1.196   4.141   0.932  0.0020  0.0502 -0.3595
13444TIP3    H161747   1.206   4.232   0.904 -0.0972 -0.2732 -1.4861
13444TIP3    H261748   1.234   4.139   1.020  0.2668  1.1160 -0.4329
13445TIP3   OH261749   2.689   0.146   6.128 -0.3695 -0.1082 -0.4695
13445TIP3    H161750   2.711   0.058   6.160  1.1145 -0.1926 -1.6438
13445TIP3    H261751   2.733   0.205   6.190 -1.0464 -0.1908  0.0965
13446TIP3   OH261752   4.273   1.090   4.802 -0.4597  0.3889 -0.0998
13446TIP3    H161753   4.274   1.102   4.707 -0.4677  0.7842 -0.0478
13446TIP3    H261754   4.245   0.999   4.814  0.8961 -0.0920 -0.5180
13447TIP3   OH261755   5.041   3.893   4.886 -0.1612  0.4212 -0.4859
13447TIP3    H161756   4.973   3.958   4.868 -1.3308 -0.0722  1.8357
13447TIP3    H261757   4.992   3.812   4.901  1.1550 -0.5658 -1.3521
13448TIP3   OH261758   2.848   5.485   3.430  0.2959  0.6665 -0.9022
13448TIP3    H161759   2.771   5.447   3.471  0.4090  1.5534  0.1471
13448TIP3    H261760   2.848   5.576   3.457  2.2901  0.4411  0.0025
13449TIP3   OH261761   6.467   1.535   0.983 -0.7335 -0.1798 -0.3266
13449TIP3    H161762   6.558   1.516   1.004 -0.2483  1.9864 -0.1640
13449TIP3    H261763   6.438   1.461   0.931  1.3086 -0.6409 -0.8991
13450TIP3   OH261764   5.424   6.214   3.565 -0.4342 -0.2531  0.0434
13450TIP3    H161765   5.455   6.303   3.582  2.1010 -0.7084 -1.6539
13450TIP3    H261766   5.361   6.197   3.635 -0.1293  2.4305  1.0993
13451TIP3   OH261767   4.416   3.456   2.325  0.5426  0.2201  0.3001
13451TIP3    H161768   4.493   3.500   2.360  1.4616 -1.8851  1.0422
13451TIP3    H261769   4.400   3.500   2.241  1.8256  1.4595  0.6647
13452TIP3   OH261770   0.349   5.814  11.393  0.0115  0.3829 -0.2996
13452TIP3    H161771   0.414   5.762  11.441 -0.0609 -0.0822 -0.6921
13452TIP3    H261772   0.320   5.756  11.322 -0.8886  0.5541 -0.0897
13453TIP3   OH261773   4.582   1.699   4.520  0.1702 -0.2242  1.0021
13453TIP3    H161774   4.501   1.682   4.568  0.6992 -0.2694  1.8931
13453TIP3    H261775   4.614   1.613   4.494 -1.1345 -0.1178 -1.2028
13454TIP3   OH261776   1.651   2.480   3.817 -0.5878  0.5789  0.0400
13454TIP3    H161777   1.701   2.434   3.885 -0.2727  0.4648 -0.2611
13454TIP3    H261778   1.699   2.562   3.804 -0.3546  0.3777 -0.3978
13455TIP3   OH261779   5.351   2.900   3.960 -0.4620 -0.0475 -0.1281
13455TIP3    H161780   5.305   2.931   3.882  0.2020 -1.1856 -1.0109
13455TIP3    H261781   5.332   2.807   3.963  2.1950 -0.6970 -0.8754
13456TIP3   OH261782   2.572   5.642   3.088 -0.5143 -0.1890  0.5244
13456TIP3    H161783   2.560   5.648   3.183  0.2019 -2.2398  0.7880
13456TIP3    H261784   2.666   5.625   3.077 -0.6889 -0.5378 -0.5152
13457TIP3   OH261785   1.608   0.507   5.258 -0.4134  0.0235 -0.5354
13457TIP3    H161786   1.689   0.555   5.275 -0.7002  0.0746  0.7492
13457TIP3    H261787   1.632   0.443   5.191  0.9256 -0.5916  0.4971
13458TIP3   OH261788   2.273   0.598   3.628  0.2391 -0.0887  0.4575
13458TIP3    H161789   2.341   0.578   3.563 -0.4274 -3.0778  0.5080
13458TIP3    H261790   2.322   0.621   3.707  1.2103 -0.9708  0.1437
13459TIP3   OH261791   0.586   0.891   0.582  0.2116 -0.0031  0.1434
13459TIP3    H161792   0.572   0.825   0.650 -2.1958 -0.1359 -0.3711
13459TIP3    H261793   0.517   0.956   0.597  1.7578  1.7897 -0.1124
13460TIP3   OH261794   4.683   5.491  16.961  0.0728  0.2775 -0.2143
13460TIP3    H161795   4.693   5.578  16.998  1.2820  1.1441 -2.3921
13460TIP3    H261796   4.773   5.461  16.945 -0.3560 -0.0209 -2.3586
13461TIP3   OH261797   0.804   3.932  15.447 -0.2965  0.1879 -0.6010
13461TIP3    H161798   0.760   3.989  15.510  0.6148  0.4646 -0.1937
13461TIP3    H261799   0.813   3.848  15.492 -1.2771 -0.1695 -1.0508
13462TIP3   OH261800   6.013   3.435  15.196  0.4395 -0.1337  0.4240
13462TIP3    H161801   6.098   3.391  15.189  0.0479 -1.0261  1.1344
13462TIP3    H261802   5.949   3.364  15.193 -0.3236  0.5774 -0.6696
13463TIP3   OH261803   4.937   1.880   4.631 -0.3679 -0.0239  0.0026
13463TIP3    H161804   4.928   1.965   4.588  1.1844  0.7647  1.1752
13463TIP3    H261805   4.863   1.876   4.692 -0.1150  0.7216  0.3545
13464TIP3   OH261806   0.123   6.016  16.931  0.2214 -0.2214  0.0744
13464TIP3    H161807   0.121   6.005  16.836  2.3932 -1.7076  0.1373
13464TIP3    H261808   0.060   5.953  16.964 -1.1834  0.8962 -0.3619
13465TIP3   OH261809   5.353   4.623   1.092 -0.3747 -0.7802 -0.4341
13465TIP3    H161810   5.408   4.701   1.105  1.1253 -2.0163  0.9732
13465TIP3    H261811   5.397   4.575   1.022 -0.4169 -1.1321 -0.2173
13466TIP3   OH261812   1.159   4.348   5.379  0.2668 -0.1033 -1.0704
13466TIP3    H161813   1.193   4.406   5.446  0.3941 -2.0897  0.6958
13466TIP3    H261814   1.087   4.301   5.422 -0.2446 -0.7985 -2.6095
13467TIP3   OH261815   5.855   2.941  13.995  0.1715 -0.1141 -0.3384
13467TIP3    H161816   5.821   2.863  14.038  1.6623 -1.7758 -1.9628
13467TIP3    H261817   5.941   2.956  14.035 -0.6019  1.5034  0.8244
13468TIP3   OH261818   3.233   1.191  11.247  0.2339  0.0646 -0.2450
13468TIP3    H161819   3.144   1.182  11.213  0.2540 -2.1699  0.1354
13468TIP3    H261820   3.281   1.235  11.178 -0.7625 -0.2725 -1.1841
13469TIP3   OH261821   6.611   4.655   4.705  0.8795  0.6933  0.0009
13469TIP3    H161822   6.660   4.684   4.782 -0.4368  0.8336  0.8283
13469TIP3    H261823   6.672   4.665   4.632  2.5838 -0.5774  1.1597
13470TIP3   OH261824   5.986   4.297  14.353 -0.2485  0.6017 -0.4339
13470TIP3    H161825   6.067   4.276  14.398  0.2630  1.1648 -1.0689
13470TIP3    H261826   5.930   4.220  14.366  0.1341  0.4787  0.5571
13471TIP3   OH261827   6.666   3.098   0.773 -0.4335  0.3202 -0.3777
13471TIP3    H161828   6.686   3.149   0.694  0.4854 -0.4761 -0.6880
13471TIP3    H261829   6.592   3.044   0.748 -0.5913  0.5737 -0.4644
13472TIP3   OH261830   1.002   3.245   1.897 -0.2560  0.1912  0.4213
13472TIP3    H161831   1.075   3.299   1.926 -0.1664  0.5885 -0.5160
13472TIP3    H261832   1.041   3.178   1.841 -0.5541  0.1297  0.2822
13473TIP3   OH261833   3.973   3.129  15.232  0.1018  0.2142 -0.3898
13473TIP3    H161834   4.037   3.133  15.160  0.1851  0.0989 -0.3212
13473TIP3    H261835   3.936   3.217  15.234  0.1068  0.2222 -0.5680
13474TIP3   OH261836   4.313   5.220   0.203  0.1916  0.3447 -0.0414
13474TIP3    H161837   4.292   5.128   0.188  0.4056 -0.0174  1.6831
13474TIP3    H261838   4.408   5.220   0.221 -0.1895  0.5144  2.3146
13475TIP3   OH261839   0.895   3.109  16.533 -0.4977  0.2702 -0.2337
13475TIP3    H161840   0.883   3.015  16.526 -1.5102  0.4256 -0.7781
13475TIP3    H261841   0.988   3.120  16.554  0.2034 -0.7340 -2.5361
13476TIP3   OH261842   5.239   4.033  16.412 -0.0858 -0.6379  0.2059
13476TIP3    H161843   5.257   3.990  16.495  0.6997 -0.0723  0.3434
13476TIP3    H261844   5.262   3.968  16.346 -0.9862 -1.1925  0.4156
13477TIP3   OH261845   3.089   1.991   3.064  0.3852 -0.6117 -0.2532
13477TIP3    H161846   3.163   1.993   3.004 -0.2967 -0.2207 -1.0974
13477TIP3    H261847   3.128   2.008   3.150  1.1576  0.5093 -0.7987
13478TIP3   OH261848   2.142   4.417   0.510  0.2400  0.0981 -0.3042
13478TIP3    H161849   2.105   4.363   0.580 -1.1495 -0.6748 -1.5735
13478TIP3    H261850   2.121   4.507   0.535 -2.8035 -0.3109 -1.0473
13479TIP3   OH261851   2.589   5.379   2.742  0.0536 -0.5810 -0.0998
13479TIP3    H161852   2.677   5.366   2.775 -0.6691 -3.9338  0.8560
13479TIP3    H261853   2.541   5.417   2.815  0.3392 -0.1942 -0.1108
13480TIP3   OH261854   0.951   1.375   5.869  0.4357 -0.3994  0.3204
13480TIP3    H161855   0.952   1.471   5.870  1.0114 -0.3858  2.3240
13480TIP3    H261856   0.968   1.350   5.959  1.5037 -2.4174 -0.3830
13481TIP3   OH261857   4.860   5.425   5.827  0.1196 -0.1677 -0.0321
13481TIP3    H161858   4.766   5.437   5.830 -0.0025 -0.0341 -2.3501
13481TIP3    H261859   4.885   5.401   5.916 -2.1547 -0.7194  0.4972
13482TIP3   OH261860   4.329   0.784   0.547  0.3497 -0.2417 -0.2590
13482TIP3    H161861   4.370   0.779   0.461 -1.5761 -0.0325 -1.2552
13482TIP3    H261862   4.325   0.878   0.566 -0.6825 -0.1793 -0.7186
13483TIP3   OH261863   2.350   3.259  13.837 -0.2911  0.1540 -0.1946
13483TIP3    H161864   2.431   3.213  13.815 -0.7017 -0.4693 -0.4393
13483TIP3    H261865   2.341   3.325  13.768 -1.2422 -1.3781 -1.6282
13484TIP3   OH261866   1.891   6.451  13.258 -0.0160  0.4435 -0.4059
13484TIP3    H161867   1.863   6.377  13.312 -1.3544  0.0890 -1.5183
13484TIP3    H261868   1.963   6.416  13.205 -0.3936  0.0322 -0.6589
13485TIP3   OH261869   5.787   5.175   3.643  0.4881  0.1308  0.1851
13485TIP3    H161870   5.739   5.094   3.663  0.1720 -0.0698 -1.2726
13485TIP3    H261871   5.757   5.236   3.710  0.0296 -0.6910  0.7643
13486TIP3   OH261872   3.653   4.388  13.182  1.1444  0.0983 -0.4969
13486TIP3    H161873   3.642   4.314  13.123 -0.2771  1.9451 -2.7397
13486TIP3    H261874   3.748   4.401  13.187  1.3311 -0.4471 -2.0185
13487TIP3   OH261875   0.240   1.913  15.754 -0.0869  0.1874 -0.1991
13487TIP3    H161876   0.291   1.833  15.738 -0.9118 -0.3378 -0.2537
13487TIP3    H261877   0.275   1.976  15.690  0.2993 -0.2469 -0.4275
13488TIP3   OH261878   3.991   6.458   1.522 -0.1222 -0.2631 -0.1959
13488TIP3    H161879   3.984   6.363   1.528 -1.7014 -0.2536 -1.1666
13488TIP3    H261880   3.988   6.489   1.612 -2.6356 -1.0248  0.0604
13489TIP3   OH261881   3.613   0.581  16.482  0.0057  0.0788 -0.3257
13489TIP3    H161882   3.688   0.602  16.427 -1.0711 -0.7182 -2.1986
13489TIP3    H261883   3.598   0.659  16.534  0.9382  0.9603 -1.3468
13490TIP3   OH261884   1.181   4.006   0.202 -0.7988  0.1474 -0.4953
13490TIP3    H161885   1.251   4.062   0.170  0.0741 -0.4420  0.3219
13490TIP3    H261886   1.161   4.041   0.289 -1.5464  0.3290 -0.7328
13491TIP3   OH261887   2.582   4.405  11.608  0.3072 -0.4017  0.3097
13491TIP3    H161888   2.572   4.332  11.547  1.0354 -1.3507  1.2644
13491TIP3    H261889   2.660   4.452  11.578  1.0143 -1.2151  0.8142
13492TIP3   OH261890   3.048   3.802  15.240 -0.1806 -0.1048  0.2804
13492TIP3    H161891   3.057   3.765  15.152  0.4613  1.2831 -0.2736
13492TIP3    H261892   3.001   3.885  15.226 -1.6463 -0.7020  1.4773
13493TIP3   OH261893   1.404   2.262   2.163  0.2995  0.4902  0.2169
13493TIP3    H161894   1.316   2.297   2.151 -0.6990 -0.8933  2.8571
13493TIP3    H261895   1.440   2.312   2.236  0.5985 -0.8287  1.0048
13494TIP3   OH261896   4.580   3.361   5.104  0.3006  0.3886 -0.0080
13494TIP3    H161897   4.514   3.303   5.142  0.8895 -0.3933 -0.1465
13494TIP3    H261898   4.532   3.416   5.042  0.0897 -1.7462 -1.8687
13495TIP3   OH261899   1.047   4.503  11.502  0.3702  0.0054 -0.2031
13495TIP3    H161900   0.982   4.513  11.432  0.2073 -1.1034 -0.2295
13495TIP3    H261901   1.116   4.566  11.481 -0.3430  0.6838 -0.5730
13496TIP3   OH261902   4.998   6.706   5.271 -0.1344 -0.1835 -0.0474
13496TIP3    H161903   4.960   6.642   5.210  1.6373 -2.6202  1.2305
13496TIP3    H261904   5.091   6.708   5.249  0.5092 -0.9822  2.3814
13497TIP3   OH261905   1.397   0.926   2.365  0.4415  0.3404 -0.3309
13497TIP3    H161906   1.343   0.990   2.412 -0.3584  0.3909 -1.2783
13497TIP3    H261907   1.478   0.921   2.416  0.5846  2.2157 -0.2975
13498TIP3   OH261908   3.424   5.576  10.146 -0.4799  0.0653  0.4498
13498TIP3    H161909   3.385   5.663  10.133  0.1150  0.4488  1.1168
13498TIP3    H261910   3.474   5.560  10.066  1.5232  1.5076  1.3256
13499TIP3   OH261911   5.386   4.972  16.132  0.9514 -0.4751  0.3556
13499TIP3    H161912   5.311   4.912  16.136  0.1822  0.3861 -0.6761
13499TIP3    H261913   5.350   5.058  16.153  2.0641 -0.3321  1.9198
13500TIP3   OH261914   1.776   3.957  10.928  0.5396 -0.0234 -0.9844
13500TIP3    H161915   1.710   3.942  10.860  0.1345 -1.3223 -0.3315
13500TIP3    H261916   1.859   3.955  10.882  0.2747 -0.9736 -1.4414
13501TIP3   OH261917   0.973   5.335  14.895  0.6281 -0.0046 -0.2714
13501TIP3    H161918   0.916   5.373  14.962 -0.6312 -1.6549 -0.3688
13501TIP3    H261919   1.027   5.409  14.865 -0.4281  1.2696  0.8612
13502TIP3   OH261920   1.926   6.365   3.035  0.0414  0.5646 -0.0867
13502TIP3    H161921   1.908   6.273   3.018 -1.4568  0.7182  0.4696
13502TIP3    H261922   1.983   6.365   3.112 -1.2962  0.1094  0.9465
13503TIP3   OH261923   6.553   3.705   0.624  0.7406  0.2697 -0.2986
13503TIP3    H161924   6.544   3.622   0.671  0.3311  0.8120  0.5987
13503TIP3    H261925   6.530   3.683   0.533  1.2410 -0.7200 -0.2032
13504TIP3   OH261926   5.067   4.207   1.278  0.7170 -0.0612 -0.1719
13504TIP3    H161927   5.023   4.292   1.273  0.5606 -0.2135 -1.6919
13504TIP3    H261928   5.157   4.224   1.251  0.3042 -0.6150 -2.0444
13505TIP3   OH261929   6.585   4.194  10.517  0.3903  0.1101 -0.1327
13505TIP3    H161930   6.668   4.155  10.490  0.7643 -0.1807  1.3322
13505TIP3    H261931   6.576   4.272  10.462  0.8439 -0.7005 -1.3940
13506TIP3   OH261932   1.688   1.956  16.080 -0.2501 -0.0283 -0.2528
13506TIP3    H161933   1.736   2.023  16.032  0.3151  0.2855  0.7280
13506TIP3    H261934   1.666   1.891  16.013 -0.3923  0.8865 -1.1280
13507TIP3   OH261935   2.327   0.602  13.445  0.1966 -0.6112  0.5318
13507TIP3    H161936   2.313   0.647  13.362 -0.2816 -0.5793  0.6266
13507TIP3    H261937   2.361   0.515  13.420  3.3533  0.5158  0.4014
13508TIP3   OH261938   4.637   4.798  16.156 -0.0845  0.5003  0.4327
13508TIP3    H161939   4.647   4.879  16.106 -1.1820 -0.3785 -1.2879
13508TIP3    H261940   4.543   4.781  16.155  0.2124 -1.3329 -0.1548
13509TIP3   OH261941   2.896   5.730  12.225  0.7675  0.2480  0.1136
13509TIP3    H161942   2.891   5.712  12.319  0.1391  0.0398  0.0419
13509TIP3    H261943   2.812   5.770  12.204  0.8181  0.0809 -0.4087
13510TIP3   OH261944   3.338   0.958   2.717  0.0136  0.1450  0.4872
13510TIP3    H161945   3.407   0.893   2.731  1.2732  1.2762 -0.3597
13510TIP3    H261946   3.279   0.946   2.792 -0.4207 -2.7037 -0.1961
13511TIP3   OH261947   3.986   0.364   5.120 -0.5214  0.8092 -0.4792
13511TIP3    H161948   3.896   0.394   5.136 -0.6826 -0.2090  0.6529
13511TIP3    H261949   3.998   0.291   5.180  1.8546  2.3367  1.0578
13512TIP3   OH261950   0.620   4.797   2.152 -0.5595  0.3026  0.0222
13512TIP3    H161951   0.675   4.739   2.205 -1.3227 -0.1372  0.3500
13512TIP3    H261952   0.608   4.875   2.204  0.4803  0.7736 -0.4229
13513TIP3   OH261953   0.391   6.594   3.292 -0.1641 -0.0147 -0.3753
13513TIP3    H161954   0.349   6.565   3.373  2.4708  0.8414  1.4144
13513TIP3    H261955   0.344   6.674   3.268 -0.3235  0.2933  0.8930
13514TIP3   OH261956   1.668   5.406  15.773  0.3864  0.2378 -0.3977
13514TIP3    H161957   1.683   5.388  15.866  0.7274 -0.7115 -0.6227
13514TIP3    H261958   1.584   5.451  15.770  0.9040  1.3108  0.4676
13515TIP3   OH261959   2.075   5.586  12.907  0.5722  0.4137 -0.3511
13515TIP3    H161960   2.077   5.576  13.002 -0.6264  3.3066  0.0797
13515TIP3    H261961   1.987   5.558  12.882  0.9700 -0.5855 -0.6810
13516TIP3   OH261962   3.027   2.400   3.075 -0.3252 -0.2823 -0.0619
13516TIP3    H161963   3.045   2.349   2.996 -0.6272 -1.9271  0.8926
13516TIP3    H261964   3.048   2.341   3.148 -0.0577  1.1840  1.1083
13517TIP3   OH261965   2.550   1.481   1.460 -0.4084  0.2640 -0.6708
13517TIP3    H161966   2.526   1.501   1.551 -0.3868 -1.0643 -0.3457
13517TIP3    H261967   2.535   1.387   1.452 -0.6499  0.4018 -2.1307
13518TIP3   OH261968   2.649   4.386   0.864 -0.0873  0.3074  0.1266
13518TIP3    H161969   2.618   4.346   0.783  0.8743 -0.3062  0.0457
13518TIP3    H261970   2.627   4.323   0.932 -0.5819  0.6687  0.3136
13519TIP3   OH261971   2.953   1.107  15.679  0.5278 -0.4128  1.3295
13519TIP3    H161972   2.922   1.192  15.711 -0.5156 -0.4506  0.4706
13519TIP3    H261973   3.045   1.104  15.705  0.2574  0.4428  2.4615
13520TIP3   OH261974   4.370   5.721   4.390  0.1918 -0.1407  0.0363
13520TIP3    H161975   4.401   5.708   4.300 -0.8032 -0.7744 -0.2364
13520TIP3    H261976   4.347   5.634   4.420  1.7434 -0.1237  1.4060
13521TIP3   OH261977   6.606   5.078   4.963 -0.1735  0.0013  0.7522
13521TIP3    H161978   6.576   5.016   4.897  0.8313 -0.4468  0.7150
13521TIP3    H261979   6.532   5.139   4.973  0.0208  0.7122 -1.5406
13522TIP3   OH261980   4.529   5.397   1.152  0.1701 -0.7282  0.0250
13522TIP3    H161981   4.534   5.346   1.233  0.8126 -0.1394  0.3633
13522TIP3    H261982   4.566   5.339   1.085 -1.4714 -1.6935 -0.1121
13523TIP3   OH261983   3.813   3.960  12.004  0.2335  0.0779  0.4055
13523TIP3    H161984   3.853   3.876  11.983  0.5599  0.4820 -0.6663
13523TIP3    H261985   3.823   4.012  11.924 -0.3070  1.0028  0.9203
13524TIP3   OH261986   2.874   0.011   0.464  0.2667  0.2457  0.1187
13524TIP3    H161987   2.941   0.079   0.459  0.0479  0.3667 -1.5014
13524TIP3    H261988   2.856   0.002   0.558  2.6294  0.1135  0.6090
13525TIP3   OH261989   4.335   0.243  10.509  0.4989  0.3559  0.2081
13525TIP3    H161990   4.259   0.209  10.462  0.4009  0.9601 -0.0749
13525TIP3    H261991   4.370   0.167  10.556 -0.8825  0.2767  1.1595
13526TIP3   OH261992   5.970   3.473  16.233  0.1835 -0.3227 -0.2747
13526TIP3    H161993   5.972   3.557  16.188  2.0917  0.4268  1.1024
13526TIP3    H261994   6.022   3.415  16.178 -0.9731 -0.5962 -1.1278
13527TIP3   OH261995   1.926   2.542  10.988 -0.5763  0.0643  0.0932
13527TIP3    H161996   1.963   2.630  10.998  0.8478 -0.6888  2.0386
13527TIP3    H261997   1.836   2.557  10.958  0.0775  2.1025 -1.0294
13528TIP3   OH261998   5.339   1.066   5.317  0.0955  0.1309  0.1313
13528TIP3    H161999   5.407   1.082   5.251 -0.5026 -0.5097 -0.6583
13528TIP3    H262000   5.383   1.080   5.400  1.2416 -0.3781 -0.3605
13529TIP3   OH262001   5.657   1.413  14.578  1.2680 -0.5866 -0.6570
13529TIP3    H162002   5.641   1.352  14.505  0.4276  0.7982 -1.6749
13529TIP3    H262003   5.595   1.484  14.564  3.3425  1.3657 -0.4795
13530TIP3   OH262004   0.848   2.486  11.748  0.0413 -0.4337 -0.1995
13530TIP3    H162005   0.885   2.467  11.834  2.4858 -0.5495 -1.2159
13530TIP3    H262006   0.865   2.580  11.735 -1.6803 -0.0567  0.0210
13531TIP3   OH262007   6.264   2.632   4.358 -0.6746 -0.1654 -0.7085
13531TIP3    H162008   6.310   2.616   4.275 -1.4350  0.9358 -1.3838
13531TIP3    H262009   6.268   2.727   4.368  0.9909 -0.3881  1.4943
13532TIP3   OH262010   6.251   1.704   2.934  0.2773 -0.1796  0.0685
13532TIP3    H162011   6.163   1.680   2.905  0.6263 -0.9063 -0.4378
13532TIP3    H262012   6.286   1.625   2.973  0.5076  0.2694  0.7943
13533TIP3   OH262013   3.262   5.093   4.923 -0.5407  0.4093 -0.2616
13533TIP3    H162014   3.276   5.111   5.016 -2.5969  1.2040 -0.0389
13533TIP3    H262015   3.170   5.114   4.909 -0.2007  0.5921 -2.5632
13534TIP3   OH262016   5.037   4.435  13.380  0.1007 -0.1982 -0.2513
13534TIP3    H162017   4.999   4.353  13.347 -2.0640  0.7485 -0.3171
13534TIP3    H262018   4.987   4.503  13.336  2.0746  1.1929 -0.4329
13535TIP3   OH262019   0.674   2.793  15.960  0.2871 -0.3472  0.3616
13535TIP3    H162020   0.737   2.803  16.032  0.8707  0.4280 -0.2393
13535TIP3    H262021   0.708   2.722  15.907 -0.8574 -1.8423  1.5553
13536TIP3   OH262022   2.815   1.308   1.528 -0.0373 -0.0871 -0.1934
13536TIP3    H162023   2.797   1.358   1.608  0.6858 -0.8861  0.4946
13536TIP3    H262024   2.728   1.283   1.496 -0.4472  1.9943 -0.8476
13537TIP3   OH262025   5.379   6.771  16.031  0.5255  0.3401  0.4281
13537TIP3    H162026   5.396   6.834  16.101  3.4491 -0.3324  0.4757
13537TIP3    H262027   5.356   6.825  15.956 -0.8266  1.1857  1.3984
13538TIP3   OH262028   1.655   0.087   1.679  0.6874 -0.3603 -0.7222
13538TIP3    H162029   1.727   0.149   1.684 -0.8034  1.4232 -0.4778
13538TIP3    H262030   1.589   0.130   1.624  0.2024 -2.3731 -1.8136
13539TIP3   OH262031   3.254   0.512   5.977  0.1701 -0.5921 -0.6792
13539TIP3    H162032   3.334   0.491   5.929  0.0012 -0.8380 -0.8535
13539TIP3    H262033   3.199   0.434   5.969  1.0213 -1.5325  1.7894
13540TIP3   OH262034   3.824   1.645  14.831  0.3254  0.2581 -0.0841
13540TIP3    H162035   3.743   1.599  14.810  0.0919  1.3293 -1.7494
13540TIP3    H262036   3.889   1.577  14.842 -0.9715 -0.7001  2.3261
13541TIP3   OH262037   6.443   4.468  15.092  0.0978  0.2337  0.5614
13541TIP3    H162038   6.442   4.496  15.184 -1.2284  0.8399  0.3830
13541TIP3    H262039   6.401   4.382  15.093 -0.7941  0.6587  0.4114
13542TIP3   OH262040   1.120   5.920  14.539  0.2864 -0.1513  0.2507
13542TIP3    H162041   1.163   5.875  14.467  1.4696 -0.0139  0.8528
13542TIP3    H262042   1.091   5.849  14.597  0.6721 -0.2115  0.3746
13543TIP3   OH262043   3.485   0.906  13.450  0.1070 -0.0610  0.3992
13543TIP3    H162044   3.510   0.889  13.360 -0.8598 -0.1501  0.1416
13543TIP3    H262045   3.554   0.865  13.503  0.7436  0.1052 -0.2896
13544TIP3   OH262046   0.668   0.086   4.205 -0.3323 -0.3027 -0.2126
13544TIP3    H162047   0.685   0.047   4.119 -0.9717 -1.3235  0.0991
13544TIP3    H262048   0.578   0.119   4.199 -0.0805  0.3988 -0.2017
13545TIP3   OH262049   3.015   3.228   2.636 -0.4159  0.1841  0.0131
13545TIP3    H162050   3.062   3.187   2.564  1.9015  0.5364  1.2131
13545TIP3    H262051   3.010   3.321   2.613 -1.6265 -0.0326 -0.6518
13546TIP3   OH262052   4.730   4.844   0.613 -0.3142  0.8453  0.3682
13546TIP3    H162053   4.814   4.826   0.655 -0.1704 -0.7796 -0.5609
13546TIP3    H262054   4.750   4.909   0.546 -0.2459  2.1825  1.6318
13547TIP3   OH262055   1.841   5.333   0.247  0.0717 -0.1998  0.5878
13547TIP3    H162056   1.901   5.263   0.220  0.3535  0.4205 -0.4676
13547TIP3    H262057   1.840   5.328   0.343  0.0070 -1.6982  0.5296
13548TIP3   OH262058   2.865   4.034  15.254  0.1338 -0.5056 -0.0134
13548TIP3    H162059   2.789   4.031  15.312  1.8300 -1.1779  2.3121
13548TIP3    H262060   2.903   4.121  15.268  0.4837 -0.6202 -0.2350
13549TIP3   OH262061   0.805   0.149  14.331  0.5246  0.2106 -0.2127
13549TIP3    H162062   0.878   0.088  14.322 -0.6810 -1.0480 -2.4492
13549TIP3    H262063   0.846   0.236  14.336  2.2266 -0.6448  1.8113
13550TIP3   OH262064   5.161   5.239   3.099  0.9752 -0.2294 -0.1273
13550TIP3    H162065   5.113   5.224   3.181  0.3963  2.4532  0.1126
13550TIP3    H262066   5.248   5.202   3.116  0.4626 -0.9090  1.2022
13551TIP3   OH262067   3.371   4.424  12.694  0.2390 -0.0684  0.4353
13551TIP3    H162068   3.336   4.425  12.783  0.9071 -0.3354  0.7094
13551TIP3    H262069   3.463   4.450  12.705 -0.2500  2.2807 -0.4558
13552TIP3   OH262070   1.776   2.148   4.644  0.2122 -0.1919  0.1148
13552TIP3    H162071   1.801   2.196   4.565  0.8653 -2.0090 -0.8612
13552TIP3    H262072   1.847   2.165   4.705 -0.2557  1.1678  0.3044
13553TIP3   OH262073   3.550   6.239  11.898 -0.1327  0.1176 -0.4941
13553TIP3    H162074   3.579   6.233  11.807 -0.3371 -5.0905 -0.5196
13553TIP3    H262075   3.461   6.273  11.893  0.6527  2.1383 -1.9021
13554TIP3   OH262076   4.921   3.738  15.300 -0.3079  0.2948  0.3314
13554TIP3    H162077   4.871   3.672  15.348  0.0211 -0.8011 -0.7615
13554TIP3    H262078   4.909   3.715  15.208  2.5861 -0.4079  0.0056
13555TIP3   OH262079   1.429   6.331  15.545 -0.6874 -0.2352 -0.1755
13555TIP3    H162080   1.512   6.285  15.534 -0.3642 -0.2291  1.9249
13555TIP3    H262081   1.362   6.265  15.526 -0.3392  0.2256 -3.7720
13556TIP3   OH262082   0.090   1.338  14.995 -0.2924 -0.2997 -0.2079
13556TIP3    H162083   0.162   1.328  15.056 -0.4219  0.2825  0.0406
13556TIP3    H262084   0.073   1.432  14.992 -0.9383 -0.4161 -0.3744
13557TIP3   OH262085   1.816   6.479  10.638 -0.3939 -0.2054  0.0902
13557TIP3    H162086   1.748   6.453  10.699  0.0484 -1.6762  0.0244
13557TIP3    H262087   1.873   6.538  10.687 -0.9556 -0.0556  0.5632
13558TIP3   OH262088   5.639   4.793   1.036 -0.1174 -0.0364 -0.0743
13558TIP3    H162089   5.684   4.710   1.047 -0.0359  0.1152  0.7958
13558TIP3    H262090   5.707   4.859   1.053 -0.3504  0.1993 -0.0557
13559TIP3   OH262091   2.977   2.126   4.351 -0.1523  0.1352  0.3726
13559TIP3    H162092   2.913   2.192   4.323  0.4113  0.3880 -0.3643
13559TIP3    H262093   2.970   2.125   4.446 -0.7030  0.7247  0.3472
13560TIP3   OH262094   6.447   3.565  13.465  0.3213  0.2741  0.3167
13560TIP3    H162095   6.488   3.634  13.518 -0.0519 -0.2267  1.2853
13560TIP3    H262096   6.354   3.588  13.464  0.6320  1.9225 -2.6443
13561TIP3   OH262097   1.321   4.462   2.576 -0.0517  0.3725 -0.3824
13561TIP3    H162098   1.295   4.384   2.526 -0.2390  0.4691 -0.4379
13561TIP3    H262099   1.282   4.449   2.662 -0.2525  0.4962 -0.4521
13562TIP3   OH262100   4.866   3.444  10.681  0.1699 -0.4171 -0.0270
13562TIP3    H162101   4.794   3.497  10.715  0.6027  0.4242 -0.3720
13562TIP3    H262102   4.826   3.387  10.615 -0.2437 -0.2518  0.0787
13563TIP3   OH262103   5.438   6.071   2.763  0.0567 -0.1787 -0.2268
13563TIP3    H162104   5.438   6.138   2.831  2.1958  1.8886 -2.0979
13563TIP3    H262105   5.351   6.031   2.769 -1.5923  3.1949  0.6131
13564TIP3   OH262106   0.362   0.041  10.708 -0.3026 -0.0964 -0.7426
13564TIP3    H162107   0.331   0.119  10.756 -1.1635 -0.3965 -0.8015
13564TIP3    H262108   0.457   0.043  10.719 -0.1086  1.9593 -2.2535
13565TIP3   OH262109   6.042   6.300   5.889  0.9295 -0.9916  0.1665
13565TIP3    H162110   6.132   6.326   5.871  0.7834  0.9010  1.8039
13565TIP3    H262111   5.992   6.331   5.813  0.9534  2.8848  1.4879
13566TIP3   OH262112   4.518   3.323   6.305  0.1563 -0.2227  0.1540
13566TIP3    H162113   4.605   3.284   6.308  0.1958 -0.2220 -0.6552
13566TIP3    H262114   4.497   3.326   6.212 -0.1512  1.0187  0.2513
13567TIP3   OH262115   5.522   2.294  17.185 -0.1252 -0.4649 -0.1282
13567TIP3    H162116   5.441   2.272  17.138 -0.1768  0.0762 -0.3061
13567TIP3    H262117   5.510   2.386  17.210  0.0453 -0.6536  0.6550
13568TIP3   OH262118   5.393   5.612   5.740  0.1370 -0.3741  0.4397
13568TIP3    H162119   5.455   5.664   5.790 -0.6180  0.7374  0.2595
13568TIP3    H262120   5.442   5.581   5.663  0.7908 -0.5559  0.9277
13569TIP3   OH262121   2.048   2.176  14.356  1.1204  0.3373 -0.6382
13569TIP3    H162122   2.111   2.222  14.411  0.3150 -0.0111  0.5975
13569TIP3    H262123   1.997   2.122  14.416 -0.5505  0.8054 -1.5582
13570TIP3   OH262124   6.222   5.877   3.756  0.1752  0.1268 -1.2181
13570TIP3    H162125   6.221   5.864   3.851  3.3020  1.8547 -0.8214
13570TIP3    H262126   6.151   5.939   3.740  0.0992  0.4205  0.0999
13571TIP3   OH262127   2.160   5.223  11.943  0.5549  0.4653 -0.0004
13571TIP3    H162128   2.166   5.308  11.987 -0.0177  0.8969 -0.7379
13571TIP3    H262129   2.199   5.161  12.005  0.0739  1.1088  0.9627
13572TIP3   OH262130   3.319   0.126  16.601 -0.0523  0.0716  0.8708
13572TIP3    H162131   3.407   0.157  16.622 -0.3320 -0.1574  2.4818
13572TIP3    H262132   3.269   0.138  16.682 -2.3525  3.0663 -0.7904
13573TIP3   OH262133   1.430   5.923  15.766  0.9292 -0.1921 -0.0194
13573TIP3    H162134   1.510   5.879  15.738  1.3119  0.5579 -0.1086
13573TIP3    H262135   1.450   5.957  15.853  0.3595 -0.8979  0.3970
13574TIP3   OH262136   6.649   2.751   1.345  0.2118  0.2594  0.4217
13574TIP3    H162137   6.707   2.796   1.284  1.2645 -2.6327 -0.8787
13574TIP3    H262138   6.704   2.733   1.421  1.3726 -2.8993 -0.9980
13575TIP3   OH262139   0.546   0.512   0.370 -0.3802 -0.2127  0.0981
13575TIP3    H162140   0.493   0.558   0.305 -1.8680 -1.0243  0.6962
13575TIP3    H262141   0.516   0.421   0.366  0.7115 -0.6272  0.7240
13576TIP3   OH262142   6.611   4.477  17.062 -0.1846 -0.2964  0.4587
13576TIP3    H162143   6.589   4.521  16.980 -2.3037  1.6234  1.9323
13576TIP3    H262144   6.570   4.391  17.054 -1.3276  0.2680 -0.1015
13577TIP3   OH262145   0.973   1.012  11.287  0.4844 -0.5302 -0.2183
13577TIP3    H162146   0.956   1.101  11.317 -0.8595 -0.4961 -1.0139
13577TIP3    H262147   0.966   1.017  11.192  1.5161 -1.2776 -0.3515
13578TIP3   OH262148   6.010   3.036  16.562  0.5005 -0.0974  0.1391
13578TIP3    H162149   6.013   3.025  16.658  1.9394  0.0390  0.1449
13578TIP3    H262150   6.016   2.947  16.528  0.5138 -0.1124  0.1801
13579TIP3   OH262151   3.141   4.702  16.364  0.5318  0.1422  0.4000
13579TIP3    H162152   3.227   4.678  16.399  0.2104  0.6218  1.5886
13579TIP3    H262153   3.158   4.777  16.307  1.0177 -0.3679 -0.1375
13580TIP3   OH262154   1.960   3.991  15.316  0.6288  0.0947 -0.0509
13580TIP3    H162155   2.019   3.958  15.248 -0.6116 -0.3147 -0.9758
13580TIP3    H262156   2.007   3.976  15.398  1.9787  0.1898 -0.7712
13581TIP3   OH262157   2.072   6.141  13.939 -0.4395 -0.5101 -0.3160
13581TIP3    H162158   2.038   6.057  13.967  0.2554 -0.4887  0.6550
13581TIP3    H262159   2.022   6.163  13.860 -0.8616 -1.6574 -0.3809
13582TIP3   OH262160   0.736   0.701  14.795  0.2589  0.9471 -0.4469
13582TIP3    H162161   0.665   0.759  14.768  0.6786  1.0457 -1.3977
13582TIP3    H262162   0.790   0.692  14.716  1.1353  0.6386  0.1783
13583TIP3   OH262163   2.361   6.577  10.096  0.6291 -0.6293 -0.1784
13583TIP3    H162164   2.291   6.609  10.039 -0.3313  0.7584  1.6506
13583TIP3    H262165   2.339   6.485  10.111 -0.4933 -0.3720 -0.1276
13584TIP3   OH262166   0.111   5.766   0.996 -0.2997  0.3246 -0.0003
13584TIP3    H162167   0.110   5.855   1.031 -1.2277  0.3073  0.0548
13584TIP3    H262168   0.086   5.776   0.904 -1.6166  0.0261  0.3015
13585TIP3   OH262169   0.573   3.150   3.217 -0.0086 -0.3003  0.0389
13585TIP3    H162170   0.590   3.187   3.131  1.2902 -0.7796  0.0692
13585TIP3    H262171   0.627   3.071   3.220  0.3600 -0.0134  1.4857
13586TIP3   OH262172   4.362   3.348  16.492 -0.1999  0.1519  0.7799
13586TIP3    H162173   4.361   3.323  16.584 -0.4335 -2.8869  0.0752
13586TIP3    H262174   4.425   3.287  16.452 -1.8739 -0.2714 -1.4109
13587TIP3   OH262175   4.600   4.443  14.611  0.2660 -0.4793  0.9726
13587TIP3    H162176   4.569   4.462  14.699  0.0130  1.0237  0.5864
13587TIP3    H262177   4.530   4.392  14.571  0.2659 -0.9354  1.5391
13588TIP3   OH262178   6.436   4.558  11.134 -0.1808  0.6804  0.5117
13588TIP3    H162179   6.516   4.583  11.088  0.2831  0.4825  1.1896
13588TIP3    H262180   6.452   4.468  11.161 -0.1808  0.9890  1.5845
13589TIP3   OH262181   4.753   1.556   5.008  0.0145 -0.1933  0.2893
13589TIP3    H162182   4.818   1.624   4.988 -0.2222  0.1386  0.6378
13589TIP3    H262183   4.804   1.484   5.044  0.2069  0.0002  0.4016
13590TIP3   OH262184   5.490   6.456  16.553  0.1151  0.2541  0.3166
13590TIP3    H162185   5.477   6.414  16.638  2.1190 -0.6958  0.2093
13590TIP3    H262186   5.405   6.450  16.510 -0.4415 -0.9510  1.5055
13591TIP3   OH262187   0.577   4.299  11.307 -0.1108  0.5122 -0.2670
13591TIP3    H162188   0.645   4.359  11.276 -0.1191  0.3106 -0.6796
13591TIP3    H262189   0.578   4.309  11.403  0.9295  0.0292 -0.2202
13592TIP3   OH262190   5.800   1.603  17.081 -0.6230 -0.8203 -0.6036
13592TIP3    H162191   5.886   1.640  17.099  0.2036 -2.5375 -0.8082
13592TIP3    H262192   5.763   1.660  17.014  1.3425 -1.3493 -2.2446
13593TIP3   OH262193   0.993   2.979   1.246  0.2567 -0.2217  0.5162
13593TIP3    H162194   1.007   2.958   1.339  0.4511 -0.4407  0.4390
13593TIP3    H262195   1.081   2.992   1.212  0.1721  0.0568  0.4078
13594TIP3   OH262196   3.309   4.979  16.472  0.2355  0.4197 -0.2840
13594TIP3    H162197   3.389   5.009  16.431 -0.1604  0.8219 -0.7778
13594TIP3    H262198   3.338   4.927  16.547  0.9663 -0.3060 -1.0446
13595TIP3   OH262199   6.340   1.785   2.639  0.7748  0.0813 -0.3540
13595TIP3    H162200   6.250   1.791   2.669  0.7114  2.3473 -0.7975
13595TIP3    H262201   6.334   1.782   2.543  1.1539 -0.8355 -0.3584
13596TIP3   OH262202   3.499   4.822   4.670  0.4971 -0.1815  0.3934
13596TIP3    H162203   3.566   4.779   4.722 -0.1064  0.6798  1.9650
13596TIP3    H262204   3.416   4.793   4.708  0.0289  0.1982 -0.3102
13597TIP3   OH262205   3.925   1.319   4.954 -0.1248  1.0298  0.4311
13597TIP3    H162206   3.952   1.229   4.935  0.5485  1.0335  1.3157
13597TIP3    H262207   3.999   1.373   4.926 -0.0809  1.2205  0.9146
13598TIP3   OH262208   1.097   0.186  15.776 -0.1273 -0.3945 -0.1182
13598TIP3    H162209   1.143   0.104  15.797 -1.7070 -0.7450  2.3812
13598TIP3    H262210   1.030   0.194  15.844  1.1574  3.9762  0.9495
13599TIP3   OH262211   6.174   2.078  14.400 -0.1021 -0.2192 -0.0107
13599TIP3    H162212   6.153   2.137  14.473 -0.4055  2.2077 -1.9489
13599TIP3    H262213   6.099   2.083  14.342  1.4656  0.5791 -2.1018
13600TIP3   OH262214   3.687   4.197   3.876  0.1011 -0.2443  0.0634
13600TIP3    H162215   3.767   4.248   3.865  0.8266 -1.1811  0.8728
13600TIP3    H262216   3.635   4.248   3.938  0.0422  0.3934 -0.5030
13601TIP3   OH262217   1.914   0.942  16.209 -0.3435 -0.3977 -0.1286
13601TIP3    H162218   1.875   0.861  16.175 -0.7379  0.3111 -1.4276
13601TIP3    H262219   1.979   0.913  16.273 -1.8216 -1.6844  0.8698
13602TIP3   OH262220   1.728   2.178  13.855  0.3158  0.6507  0.6225
13602TIP3    H162221   1.684   2.152  13.936  0.4694 -1.5623  0.0535
13602TIP3    H262222   1.760   2.096  13.818  0.0292  1.5767 -1.8245
13603TIP3   OH262223   5.135   5.817  16.583  0.3094 -0.4155 -0.4299
13603TIP3    H162224   5.092   5.757  16.523 -0.3891  1.3911 -1.8357
13603TIP3    H262225   5.080   5.816  16.662 -0.0106 -1.1838 -0.6601
13604TIP3   OH262226   1.275   4.469  11.221  0.0315  0.9559  0.0904
13604TIP3    H162227   1.367   4.464  11.244 -0.1477  1.3230  0.9480
13604TIP3    H262228   1.272   4.457  11.127  0.9266  0.6503  0.0990
13605TIP3   OH262229   1.078   2.163   1.956 -0.2190 -0.1942  0.4107
13605TIP3    H162230   1.005   2.202   2.004  0.7147  0.6801  1.1646
13605TIP3    H262231   1.051   2.168   1.864 -1.1926 -0.1009  0.6836
13606TIP3   OH262232   5.932   6.198  13.168 -0.1404  0.5975  0.0110
13606TIP3    H162233   5.982   6.237  13.097  1.2416 -2.6295 -0.9986
13606TIP3    H262234   5.997   6.149  13.219 -1.8165 -1.4230  0.3660
13607TIP3   OH262235   3.650   1.763   5.499 -0.6212 -0.4114  0.3286
13607TIP3    H162236   3.706   1.688   5.478 -0.6163  0.2045 -2.1960
13607TIP3    H262237   3.569   1.746   5.451  0.1529  2.1242 -2.1534
13608TIP3   OH262238   1.208   5.417   1.404  0.3551  0.0078  0.2549
13608TIP3    H162239   1.235   5.350   1.467  4.1503  1.9229  0.9571
13608TIP3    H262240   1.202   5.497   1.456 -2.3825  0.6366 -0.8746
13609TIP3   OH262241   2.679   2.798   4.471  0.5152 -0.2962 -0.1601
13609TIP3    H162242   2.644   2.882   4.442  0.0877 -0.7556 -1.0062
13609TIP3    H262243   2.645   2.788   4.560  0.2697  0.2515 -0.1856
13610TIP3   OH262244   5.859   4.541   5.462 -0.2607 -0.3706 -0.2755
13610TIP3    H162245   5.835   4.554   5.554 -0.1031 -2.4139  0.1136
13610TIP3    H262246   5.950   4.569   5.457 -0.7679  1.3641 -0.2366
13611TIP3   OH262247   1.877   5.269   2.563  0.6096  0.4628  0.1558
13611TIP3    H162248   1.858   5.343   2.621 -0.1932 -0.3645  0.9740
13611TIP3    H262249   1.889   5.195   2.621  0.0041 -0.3529 -0.7278
13612TIP3   OH262250   0.959   0.799  12.697 -0.4729  0.1449 -0.1912
13612TIP3    H162251   0.955   0.894  12.700 -0.9400  0.1452 -0.7099
13612TIP3    H262252   0.902   0.770  12.769  0.2492  0.2493  0.4452
13613TIP3   OH262253   2.503   1.732   1.003 -0.0930  0.3643 -0.3690
13613TIP3    H162254   2.559   1.653   0.998  0.7131  0.9548 -1.0351
13613TIP3    H262255   2.416   1.701   0.978 -0.2727 -0.7404  1.4356
13614TIP3   OH262256   5.364   5.811  16.077 -1.3560  0.1234 -0.8002
13614TIP3    H162257   5.449   5.788  16.115 -1.5121 -1.2318 -1.1970
13614TIP3    H262258   5.338   5.891  16.122 -0.1596  0.2055 -0.2186
13615TIP3   OH262259   4.769   2.352  16.314  0.1117  0.4789 -0.3777
13615TIP3    H162260   4.717   2.310  16.246 -0.5813  0.4471  0.1629
13615TIP3    H262261   4.854   2.368  16.273  0.4317 -1.5198 -0.5738
13616TIP3   OH262262   2.779   3.190  14.953 -0.0214  0.0051 -0.0771
13616TIP3    H162263   2.744   3.101  14.943 -1.4489  0.6179 -0.8963
13616TIP3    H262264   2.736   3.224  15.031  1.2681 -0.3229  0.8109
13617TIP3   OH262265   5.004   4.831  11.350  0.5101 -0.2766  0.3780
13617TIP3    H162266   4.938   4.892  11.383 -0.9506 -1.6193  0.0278
13617TIP3    H262267   5.034   4.784  11.428  0.1996 -0.4772  0.3765
13618TIP3   OH262268   3.873   0.538   4.103  0.3890 -0.2045 -0.2584
13618TIP3    H162269   3.779   0.555   4.108  0.6808  1.3374  0.7973
13618TIP3    H262270   3.887   0.507   4.013 -1.1313 -0.6082 -0.3814
13619TIP3   OH262271   4.272   4.967   5.564  0.1084 -0.2509  0.2098
13619TIP3    H162272   4.264   5.034   5.496  0.7314 -0.5642 -0.1811
13619TIP3    H262273   4.208   4.992   5.631  0.7435  1.0610  0.3426
13620TIP3   OH262274   3.856   1.043  12.192 -0.2232 -0.0463 -0.0214
13620TIP3    H162275   3.811   1.090  12.123  0.5214 -1.1261 -1.2853
13620TIP3    H262276   3.788   0.992  12.236 -0.2291 -2.2931 -2.4259
13621TIP3   OH262277   1.531   5.150  15.534  0.3709 -0.2841 -0.0320
13621TIP3    H162278   1.534   5.213  15.462 -1.6490 -0.6996 -0.5370
13621TIP3    H262279   1.596   5.084  15.512  1.5648  0.8987 -0.1709
13622TIP3   OH262280   0.125   1.426  14.305 -0.1980 -0.5725 -0.0857
13622TIP3    H162281   0.195   1.395  14.363 -1.0937 -1.1253  0.7482
13622TIP3    H262282   0.077   1.346  14.282  0.5393 -0.4605 -2.1890
13623TIP3   OH262283   2.704   3.311  11.242  0.1093 -0.1570  0.1775
13623TIP3    H162284   2.626   3.263  11.214  0.4911  0.0764 -1.3554
13623TIP3    H262285   2.670   3.388  11.287 -0.5308 -0.3660  0.0575
13624TIP3   OH262286   4.465   5.267  10.687 -0.2008 -0.0886  0.4470
13624TIP3    H162287   4.519   5.190  10.668  0.5450  0.4011  0.5601
13624TIP3    H262288   4.527   5.339  10.697 -0.8756  0.4943  0.5555
13625TIP3   OH262289   5.222   5.196   1.741  0.2620  0.5372 -0.1055
13625TIP3    H162290   5.277   5.224   1.669  0.3451 -1.5825 -0.9502
13625TIP3    H262291   5.148   5.151   1.699 -0.0885 -0.0621  1.0868
13626TIP3   OH262292   0.892   0.795  11.967 -0.4998  0.1158 -0.3312
13626TIP3    H162293   0.867   0.850  11.893  0.5994  0.7780 -0.2310
13626TIP3    H262294   0.872   0.848  12.044  1.5201  0.8522 -0.2542
13627TIP3   OH262295   0.904   0.361  13.377 -0.1910  0.3042  0.0864
13627TIP3    H162296   0.845   0.436  13.373 -0.5248 -0.0212 -1.6246
13627TIP3    H262297   0.950   0.361  13.293 -0.7615 -1.8344 -0.3001
13628TIP3   OH262298   6.160   0.200  10.663 -0.3917  0.3510  0.5827
13628TIP3    H162299   6.105   0.175  10.588 -0.2606  0.9007  0.2994
13628TIP3    H262300   6.156   0.295  10.665 -2.0025  0.3051  2.4920
13629TIP3   OH262301   5.955   4.956  10.952 -0.8011  0.3145  0.1957
13629TIP3    H162302   6.031   4.995  10.993 -0.8117 -0.5065  1.0260
13629TIP3    H262303   5.913   5.028  10.906  1.3959  0.4550 -1.7500
13630TIP3   OH262304   4.798   3.263   5.292 -0.2496 -0.7283  0.4987
13630TIP3    H162305   4.737   3.335   5.277  0.4696 -0.0785  0.6348
13630TIP3    H262306   4.874   3.304   5.333  0.4927 -1.4433 -0.1286
13631TIP3   OH262307   5.339   2.768   4.904  0.2619 -0.7670  0.0634
13631TIP3    H162308   5.246   2.768   4.882  0.5468 -0.8114 -1.1984
13631TIP3    H262309   5.366   2.859   4.895  0.7117 -1.0087 -1.3203
13632TIP3   OH262310   4.063   1.153   3.305  0.2684 -0.2283 -0.1042
13632TIP3    H162311   4.037   1.216   3.372 -2.8360 -0.7426 -0.6508
13632TIP3    H262312   4.153   1.176   3.284  1.1742  0.4272  3.6668
13633TIP3   OH262313   4.201   4.467  15.735  0.1506 -0.2084 -0.4259
13633TIP3    H162314   4.187   4.372  15.738  0.1828 -0.2316 -0.9895
13633TIP3    H262315   4.292   4.478  15.762  0.2131 -0.3557 -0.5739
13634TIP3   OH262316   0.076   2.408   2.909  0.0227  0.2057  0.0737
13634TIP3    H162317   0.042   2.343   2.847 -2.5981 -1.0354  2.5693
13634TIP3    H262318   0.168   2.418   2.884  0.6644 -4.5266 -0.5302
13635TIP3   OH262319   2.632   3.825   0.402 -0.1143  0.1636 -0.6693
13635TIP3    H162320   2.585   3.742   0.415 -0.8648  0.7365  0.4685
13635TIP3    H262321   2.578   3.890   0.447  1.4289  0.9654  0.0852
13636TIP3   OH262322   3.635   5.815  11.129 -0.3629 -0.1325  0.0165
13636TIP3    H162323   3.676   5.856  11.205 -1.0940 -2.2973  1.6668
13636TIP3    H262324   3.644   5.880  11.059 -0.5755  2.4064  2.1891
13637TIP3   OH262325   1.290   5.243   5.649  0.2386 -0.3789  0.2638
13637TIP3    H162326   1.342   5.168   5.622 -0.2223 -0.3096 -0.8520
13637TIP3    H262327   1.319   5.262   5.738  0.6347 -1.6300  0.4087
13638TIP3   OH262328   3.615   0.058   4.433  0.1949  0.1053 -0.0101
13638TIP3    H162329   3.555   0.067   4.506 -0.1177  2.2196 -0.4605
13638TIP3    H262330   3.608   0.141   4.385  1.3580 -0.6966 -1.6897
13639TIP3   OH262331   1.121   0.272  12.664  0.5345  0.6575 -0.6961
13639TIP3    H162332   1.067   0.196  12.687  2.9376 -0.8724  0.2871
13639TIP3    H262333   1.111   0.332  12.738 -1.2730  1.3313 -1.4148
13640TIP3   OH262334   1.416   4.668  11.642  0.2658 -0.1738  0.1257
13640TIP3    H162335   1.356   4.710  11.703  0.7425  1.3797 -0.4367
13640TIP3    H262336   1.366   4.659  11.561  0.2490 -0.4800  0.1670
13641TIP3   OH262337   0.593   5.703  10.450 -0.7630 -0.0078  0.5274
13641TIP3    H162338   0.625   5.780  10.497  2.4509  0.3202 -1.8389
13641TIP3    H262339   0.618   5.629  10.505  2.2553  0.4034 -0.1013
13642TIP3   OH262340   0.995   1.546  12.860  0.5450 -0.3407  0.3353
13642TIP3    H162341   0.918   1.596  12.887 -0.2557 -0.3632 -1.6629
13642TIP3    H262342   1.061   1.564  12.927 -1.0137  0.1195  1.8124
13643TIP3   OH262343   3.239   0.018   5.353  0.0691  1.0264 -0.5690
13643TIP3    H162344   3.174   0.084   5.327  1.3459  2.7081  0.3138
13643TIP3    H262345   3.322   0.065   5.355  0.8176 -0.2403  1.4978
13644TIP3   OH262346   3.228   5.549  16.451 -0.2999  0.2866  0.4244
13644TIP3    H162347   3.218   5.642  16.471 -1.6421  0.1161  0.6472
13644TIP3    H262348   3.315   5.542  16.412 -0.3571  1.6998 -0.0135
13645TIP3   OH262349   1.141   3.966   3.880  0.3291  0.2603  0.1489
13645TIP3    H162350   1.234   3.962   3.900  0.3122  0.5976  0.2913
13645TIP3    H262351   1.115   3.874   3.872  0.7818  0.1781 -0.4126
13646TIP3   OH262352   2.631   5.037  13.874 -0.2288  0.1724  0.4290
13646TIP3    H162353   2.621   5.125  13.838 -0.4516 -0.1555 -0.3219
13646TIP3    H262354   2.591   4.980  13.809  2.6469 -0.8006 -0.6045
13647TIP3   OH262355   2.318   5.696  12.862  0.2176  0.4835  0.1543
13647TIP3    H162356   2.349   5.608  12.842 -1.0795  0.2647 -1.0387
13647TIP3    H262357   2.224   5.686  12.878 -0.0209  1.6802 -0.3303
13648TIP3   OH262358   1.381   4.817  13.719  0.1707  0.5605 -0.5101
13648TIP3    H162359   1.342   4.873  13.652  0.7014  0.9496 -0.5099
13648TIP3    H262360   1.309   4.796  13.779 -0.4462 -0.3141 -1.5369
13649TIP3   OH262361   1.240   0.873   3.441  0.2839 -0.3896 -0.7667
13649TIP3    H162362   1.214   0.848   3.530  1.7388  0.1702 -0.1585
13649TIP3    H262363   1.223   0.794   3.389  2.1642 -1.8063  0.5967
13650TIP3   OH262364   0.365   6.268   3.388 -0.0069 -0.2189 -0.3306
13650TIP3    H162365   0.377   6.351   3.433  0.9258 -1.0569  1.0571
13650TIP3    H262366   0.294   6.225   3.436 -0.2232 -0.3780 -0.7919
13651TIP3   OH262367   1.630   5.063   4.578 -0.1884 -0.0729  0.2092
13651TIP3    H162368   1.702   5.125   4.594 -0.4545  1.2100 -2.8989
13651TIP3    H262369   1.666   4.978   4.603  1.4390  0.8795  1.2868
13652TIP3   OH262370   1.121   2.468   1.962 -0.6192  0.0979 -0.6474
13652TIP3    H162371   1.028   2.452   1.949 -0.3145 -2.0332 -0.4819
13652TIP3    H262372   1.140   2.433   2.049  0.1495  1.4614 -0.2401
13653TIP3   OH262373   5.033   4.309   1.700  0.2241 -0.4174 -0.2309
13653TIP3    H162374   5.074   4.284   1.617 -1.0013 -0.7247 -0.7733
13653TIP3    H262375   4.994   4.229   1.733  1.4882 -0.5040  1.1469
13654TIP3   OH262376   5.866   2.920   4.443  0.5917  0.0816  0.1876
13654TIP3    H162377   5.814   2.840   4.428  1.2205 -0.1770 -0.7095
13654TIP3    H262378   5.857   2.970   4.361 -1.0066  1.6686  1.2587
13655TIP3   OH262379   4.707   2.961  13.086 -0.1366 -0.0081 -0.2174
13655TIP3    H162380   4.683   2.871  13.105  1.1357 -0.6992 -1.6530
13655TIP3    H262381   4.676   2.976  12.997  0.9531  0.4506 -0.5463
13656TIP3   OH262382   1.408   6.761  12.614 -0.3574  0.0622 -0.0971
13656TIP3    H162383   1.465   6.835  12.593  3.2800 -1.4951  2.9995
13656TIP3    H262384   1.419   6.701  12.540 -0.1291  0.9270 -0.7803
13657TIP3   OH262385   0.629   6.537   0.039 -0.7662  0.4361  0.1435
13657TIP3    H162386   0.625   6.553   0.133 -0.2797  1.8419 -0.0478
13657TIP3    H262387   0.593   6.449   0.028  0.4537 -0.3100  1.7708
13658TIP3   OH262388   3.101   4.258  16.134  0.3899  0.1582 -0.4513
13658TIP3    H162389   3.028   4.311  16.166  0.7772  0.7712 -0.5841
13658TIP3    H262390   3.064   4.210  16.059 -0.2041 -0.4422  0.1980
13659TIP3   OH262391   3.168   0.245  14.675  0.4606  0.6934 -0.1449
13659TIP3    H162392   3.257   0.213  14.691  0.0292 -0.7263 -0.5162
13659TIP3    H262393   3.175   0.296  14.594  1.0560  1.1697  0.1957
13660TIP3   OH262394   6.374   5.381  11.869 -0.3863 -0.0772  0.3844
13660TIP3    H162395   6.381   5.299  11.919  0.9941  0.7669  1.6529
13660TIP3    H262396   6.345   5.446  11.933  0.8595  0.9094 -0.0107
13661TIP3   OH262397   4.940   0.766   6.331  0.1726 -0.0793 -0.5646
13661TIP3    H162398   4.891   0.687   6.310 -1.6996  0.3913  1.6310
13661TIP3    H262399   4.873   0.832   6.349  1.6401  1.2312  0.3873
13662TIP3   OH262400   3.036   1.376  16.867  0.1406 -0.1147  0.2363
13662TIP3    H162401   2.940   1.368  16.869  0.2476 -3.2579 -1.2154
13662TIP3    H262402   3.059   1.401  16.956 -2.0312  0.9612  0.5704
13663TIP3   OH262403   4.303   6.479  13.686 -0.1004 -0.0377  0.0947
13663TIP3    H162404   4.312   6.419  13.612  0.4397  0.9798 -0.6761
13663TIP3    H262405   4.217   6.459  13.722 -0.6915 -0.0544 -1.2657
13664TIP3   OH262406   4.962   5.706  12.614 -0.1386  0.0484  0.2675
13664TIP3    H162407   4.906   5.734  12.686  2.1741  0.2521  2.1316
13664TIP3    H262408   4.935   5.760  12.540 -3.0317 -0.6080  0.7520
13665TIP3   OH262409   6.034   5.408  15.097  0.6483 -0.1847  0.5507
13665TIP3    H162410   5.992   5.322  15.103  0.1799  0.0539  0.7443
13665TIP3    H262411   6.053   5.431  15.188  0.9557 -0.1713  0.4828
13666TIP3   OH262412   6.091   5.476   3.791 -0.4232  0.1128  0.2858
13666TIP3    H162413   6.101   5.402   3.732  2.8744  2.3924 -2.4535
13666TIP3    H262414   5.999   5.501   3.783 -0.5988 -1.0245 -2.2361
13667TIP3   OH262415   3.547   1.519   1.258  0.5670 -0.2573  0.4937
13667TIP3    H162416   3.529   1.425   1.253  0.9693 -0.3516  0.7504
13667TIP3    H262417   3.509   1.555   1.178 -1.5609 -0.3053  1.4201
13668TIP3   OH262418   1.800   5.729  10.273  0.0153 -0.5156 -0.1269
13668TIP3    H162419   1.876   5.696  10.321 -0.1941  0.1971  0.7256
13668TIP3    H262420   1.774   5.657  10.216  1.5485 -0.6450 -0.7094
13669TIP3   OH262421   0.637   5.486  11.791  0.0671  0.1010  0.0703
13669TIP3    H162422   0.627   5.406  11.843  2.1629 -0.4536 -0.2694
13669TIP3    H262423   0.728   5.512  11.806 -0.0969  1.4834 -1.1598
13670TIP3   OH262424   4.319   6.226   3.627 -0.0467  0.0165  0.3125
13670TIP3    H162425   4.330   6.309   3.581  2.2975 -0.4318 -0.0198
13670TIP3    H262426   4.347   6.244   3.717 -0.6972 -0.1462  0.5589
13671TIP3   OH262427   0.205   1.094   1.160 -0.3882 -0.3570 -0.1242
13671TIP3    H162428   0.225   1.064   1.071  0.0865 -0.3505 -0.0272
13671TIP3    H262429   0.288   1.132   1.190 -0.4034 -0.8010  0.4935
13672TIP3   OH262430   4.859   1.577   1.149 -0.2692  0.4522 -0.2546
13672TIP3    H162431   4.778   1.625   1.137  0.4556  1.3208 -1.9191
13672TIP3    H262432   4.866   1.521   1.071  0.3442 -0.1932  0.2489
13673TIP3   OH262433   3.382   1.897  16.600 -0.4010 -0.3275 -0.6337
13673TIP3    H162434   3.301   1.923  16.556 -0.5169  0.6260  0.1131
13673TIP3    H262435   3.451   1.942  16.551 -0.2834 -1.3172 -1.4088
13674TIP3   OH262436   0.628   0.175  13.149  0.2771  0.1263 -0.3639
13674TIP3    H162437   0.623   0.176  13.245  1.6939  1.0960 -0.2627
13674TIP3    H262438   0.591   0.259  13.123  0.3429  0.0740 -0.6236
13675TIP3   OH262439   6.480   5.009  16.743  0.0578 -0.1917  0.1854
13675TIP3    H162440   6.561   4.988  16.789  0.2934 -0.3280 -0.2824
13675TIP3    H262441   6.412   4.967  16.795  0.3039 -0.2138  0.4930
13676TIP3   OH262442   1.905   5.742  10.699 -0.4132  0.2493 -0.5567
13676TIP3    H162443   1.978   5.792  10.662  0.5006 -0.7952 -0.2183
13676TIP3    H262444   1.833   5.804  10.703  0.7170  1.5706 -0.0388
13677TIP3   OH262445   2.382   2.470   2.501  0.3817 -0.0730  0.3099
13677TIP3    H162446   2.366   2.532   2.430 -0.1870  1.5138  1.7506
13677TIP3    H262447   2.359   2.385   2.465 -0.2917  0.7406 -1.2634
13678TIP3   OH262448   0.175   0.216   5.318  0.0916  0.2954  0.1399
13678TIP3    H162449   0.240   0.188   5.383 -1.6299 -2.4449  0.8331
13678TIP3    H262450   0.147   0.303   5.348  2.5661  1.0836  0.4179
13679TIP3   OH262451   0.926   6.037  14.118  0.2827 -0.7302  0.2852
13679TIP3    H162452   1.004   6.048  14.064 -0.2277  0.1801 -0.2908
13679TIP3    H262453   0.960   6.016  14.205  1.3300  2.3559  0.7374
13680TIP3   OH262454   1.590   3.759  14.837  0.4461  0.1678  0.5865
13680TIP3    H162455   1.510   3.810  14.821  1.8256  2.1898 -0.3239
13680TIP3    H262456   1.601   3.705  14.758  0.5985  0.8051  0.1611
13681TIP3   OH262457   5.156   1.820  13.760 -0.1037  0.0024 -0.1788
13681TIP3    H162458   5.206   1.746  13.794 -0.2991 -0.1410 -0.2015
13681TIP3    H262459   5.181   1.893  13.815 -0.1329 -0.1464  0.0336
13682TIP3   OH262460   4.069   0.310  12.582  0.1790  0.4480  0.5808
13682TIP3    H162461   3.999   0.341  12.523  0.2067 -0.7525 -0.1019
13682TIP3    H262462   4.140   0.374  12.570 -0.6958  1.5666  1.1283
13683TIP3   OH262463   5.177   5.083   2.189  0.2646  0.1208 -0.3662
13683TIP3    H162464   5.159   5.175   2.209 -0.4580 -0.0435 -0.2278
13683TIP3    H262465   5.228   5.052   2.265  1.5419  0.7007 -0.9574
13684TIP3   OH262466   0.093   4.365   1.797  0.4116 -0.5644 -0.0081
13684TIP3    H162467   0.145   4.435   1.756  0.2597  1.1327  2.5102
13684TIP3    H262468   0.156   4.318   1.852 -0.4121  1.0473  2.4867
13685TIP3   OH262469   1.740   5.653   0.589 -0.3013  0.0372  0.0291
13685TIP3    H162470   1.752   5.729   0.646  2.3754 -0.0867 -0.2412
13685TIP3    H262471   1.666   5.605   0.628 -1.1513  2.0162  0.9946
13686TIP3   OH262472   0.027   2.052  15.022  0.0304  0.0578 -0.6220
13686TIP3    H162473   0.060   2.088  14.939  0.9462 -1.3161 -0.8886
13686TIP3    H262474   0.106   2.026  15.069 -0.3988  1.8867  1.2453
13687TIP3   OH262475   6.083   3.765  13.750  0.1997 -0.0448 -0.1855
13687TIP3    H162476   6.109   3.827  13.818 -0.7037  0.3638 -0.2067
13687TIP3    H262477   5.989   3.778  13.739  0.1538 -0.8066 -0.8118
13688TIP3   OH262478   1.559   2.812   1.435 -0.5192  0.2560 -0.1481
13688TIP3    H162479   1.512   2.744   1.483 -0.1226  0.7151  0.9288
13688TIP3    H262480   1.564   2.885   1.496  0.2325  0.7688 -0.8019
13689TIP3   OH262481   5.807   2.999  15.628 -0.5025  0.0709  0.1060
13689TIP3    H162482   5.720   3.009  15.668 -0.5331 -2.1283  0.7197
13689TIP3    H262483   5.845   3.087  15.631 -2.2009  0.8248  1.0120
13690TIP3   OH262484   5.394   1.714   4.314  0.7350 -0.2757  0.0886
13690TIP3    H162485   5.366   1.805   4.320 -0.8588 -0.6328 -1.0425
13690TIP3    H262486   5.346   1.669   4.383 -0.8823 -0.7340 -1.2700
13691TIP3   OH262487   3.825   5.311   1.743 -0.1316 -0.3606 -0.3434
13691TIP3    H162488   3.810   5.284   1.834  1.1695  2.7842  0.9669
13691TIP3    H262489   3.737   5.315   1.705 -1.0047  0.6619  1.6033
13692TIP3   OH262490   5.421   1.889   5.141  0.1957 -0.3172  0.2234
13692TIP3    H162491   5.467   1.816   5.183  1.7091  1.5656  2.0642
13692TIP3    H262492   5.347   1.907   5.199 -2.0439 -2.2459 -1.8479
13693TIP3   OH262493   3.668   3.806  16.001  0.3366 -0.6303 -0.2462
13693TIP3    H162494   3.594   3.760  16.040 -0.5886  2.8666  2.6948
13693TIP3    H262495   3.732   3.812  16.072  1.9747 -0.5945 -1.6811
13694TIP3   OH262496   6.743   2.815  15.655 -0.4419  0.2661  0.0395
13694TIP3    H162497   6.794   2.896  15.647  2.6318 -1.3436  1.7533
13694TIP3    H262498   6.654   2.845  15.670  0.6882  3.3776  1.3567
13695TIP3   OH262499   0.714   6.128   0.767  0.1125 -0.5633 -0.3821
13695TIP3    H162500   0.654   6.121   0.841  1.1044  1.2714  0.6708
13695TIP3    H262501   0.799   6.146   0.807  0.7225  0.2887 -1.9742
13696TIP3   OH262502   5.990   3.601   2.535  0.1420 -0.3272  0.3008
13696TIP3    H162503   5.929   3.675   2.545  0.7635 -0.0614  2.8527
13696TIP3    H262504   5.935   3.523   2.540 -0.5777 -0.1422 -2.8465
13697TIP3   OH262505   0.387   2.530  13.309  0.6210 -0.4125 -0.2174
13697TIP3    H162506   0.455   2.492  13.364 -0.5748 -0.3274  1.3879
13697TIP3    H262507   0.328   2.458  13.290 -0.1459  0.0245  0.4737
13698TIP3   OH262508   2.141   4.887  13.488 -0.1295  0.2630 -0.0519
13698TIP3    H162509   2.228   4.867  13.522 -0.3172  0.8023  0.7943
13698TIP3    H262510   2.129   4.829  13.413  1.1915  0.5936 -0.5302
13699TIP3   OH262511   5.750   4.992  16.619  0.3364 -0.1747  0.0948
13699TIP3    H162512   5.714   5.046  16.690 -1.5626  1.1135 -1.7365
13699TIP3    H262513   5.781   4.913  16.663 -0.1584  0.8346  2.4272
13700TIP3   OH262514   5.098   2.447  15.649 -0.3425 -0.2689  0.4235
13700TIP3    H162515   5.096   2.500  15.729 -1.0998  1.5171 -0.7016
13700TIP3    H262516   5.006   2.431  15.629 -0.1794 -4.1113  1.9279
13701TIP3   OH262517   4.320   1.650   1.549  0.7647 -0.0833 -0.0429
13701TIP3    H162518   4.242   1.698   1.578  0.6404 -0.3533  0.0696
13701TIP3    H262519   4.355   1.611   1.629  0.8870 -0.1549 -0.1305
13702TIP3   OH262520   3.820   4.264   5.155  0.1271  0.3924  0.2644
13702TIP3    H162521   3.781   4.178   5.140 -1.0291  1.2605 -2.1975
13702TIP3    H262522   3.914   4.248   5.158  0.1095 -0.7247 -2.6018
13703TIP3   OH262523   3.995   6.654   1.306  0.5353  0.2595  0.3055
13703TIP3    H162524   3.998   6.581   1.368  1.3706  0.1082  0.1041
13703TIP3    H262525   4.048   6.722   1.348 -1.8504  1.5394  1.4336
13704TIP3   OH262526   2.839   5.345  15.881  0.9425 -0.5869  0.1100
13704TIP3    H162527   2.880   5.334  15.795  0.6145  1.2911 -0.3381
13704TIP3    H262528   2.787   5.265  15.893  3.6779 -2.4733  0.1716
13705TIP3   OH262529   6.359   3.499   2.479  0.3083  0.9298 -0.1912
13705TIP3    H162530   6.331   3.408   2.485  2.4982  0.2958  2.4090
13705TIP3    H262531   6.341   3.524   2.388  0.9758 -2.5569 -1.4311
13706TIP3   OH262532   0.051   1.498  11.496 -0.1758  0.5248 -0.0945
13706TIP3    H162533   0.080   1.554  11.568 -0.5196 -0.0200  0.4758
13706TIP3    H262534   0.045   1.410  11.534  1.0309 -0.0481 -1.1519
13707TIP3   OH262535   5.374   2.774   0.712  0.3523  0.4555 -0.0627
13707TIP3    H162536   5.343   2.707   0.774 -0.0214  1.5324  0.9341
13707TIP3    H262537   5.374   2.729   0.627  1.2999 -1.1770  0.7564
13708TIP3   OH262538   2.925   0.380  13.435 -0.2647 -0.4983  0.3263
13708TIP3    H162539   2.897   0.471  13.428 -0.7684 -0.5882  1.1040
13708TIP3    H262540   2.934   0.364  13.529 -2.4163 -1.9052  0.3647
13709TIP3   OH262541   3.576   4.202  15.134 -0.4497 -0.0237  0.2871
13709TIP3    H162542   3.502   4.211  15.073 -2.6597 -1.6365  2.5281
13709TIP3    H262543   3.590   4.108  15.142  1.4459  0.2313  0.4527
13710TIP3   OH262544   1.612   4.222  14.535  0.2793  0.4679 -0.0402
13710TIP3    H162545   1.525   4.211  14.497 -0.0749 -0.5484  1.0256
13710TIP3    H262546   1.634   4.136  14.571  0.9283  1.1797  1.3485
13711TIP3   OH262547   6.713   5.295  12.473  0.7748  0.1921 -0.1507
13711TIP3    H162548   6.692   5.388  12.483  0.0696  0.1309 -0.9491
13711TIP3    H262549   6.663   5.267  12.397  0.2360 -1.0719  0.6238
13712TIP3   OH262550   3.086   0.357  10.981 -0.3142 -0.0642  0.6512
13712TIP3    H162551   3.029   0.343  11.056  2.5836 -1.0597  2.8242
13712TIP3    H262552   3.067   0.284  10.922 -2.2066  0.4099  0.5863
13713TIP3   OH262553   6.125   4.963  12.970  0.7311 -0.1705  0.5927
13713TIP3    H162554   6.209   4.996  13.001  0.9032  0.2205 -0.2466
13713TIP3    H262555   6.147   4.883  12.923  0.9115  0.9030 -1.2575
13714TIP3   OH262556   0.158   2.016  16.187 -0.2314 -0.6137  0.4593
13714TIP3    H162557   0.240   1.968  16.204 -0.7128 -1.0247  1.8003
13714TIP3    H262558   0.179   2.107  16.205 -0.0104 -0.6940  0.6143
13715TIP3   OH262559   6.515   3.812  12.102 -0.6260  0.0877  0.3210
13715TIP3    H162560   6.431   3.773  12.127 -0.3694 -1.4730 -1.0927
13715TIP3    H262561   6.491   3.896  12.063 -1.2606  1.0254  2.5801
13716TIP3   OH262562   6.779   5.039  13.126 -0.2355  0.1179  0.4923
13716TIP3    H162563   6.748   5.080  13.045  0.3582 -1.8908 -0.8282
13716TIP3    H262564   6.728   4.959  13.134  2.2768 -1.6815 -0.0496
13717TIP3   OH262565   6.384   0.764   3.700 -0.1243  0.0617 -0.3167
13717TIP3    H162566   6.395   0.672   3.678  0.2298 -0.0718  0.3999
13717TIP3    H262567   6.456   0.783   3.760 -0.1401  0.8300 -0.5309
13718TIP3   OH262568   0.715   4.950   3.561 -0.0296  0.0813 -0.5220
13718TIP3    H162569   0.655   5.023   3.572  0.2754  0.1996  0.4704
13718TIP3    H262570   0.663   4.883   3.517 -0.3461  0.8351 -1.3230
13719TIP3   OH262571   2.556   6.423   3.101 -0.5279 -0.3298  0.3991
13719TIP3    H162572   2.460   6.430   3.100 -0.6890 -1.8812  0.9629
13719TIP3    H262573   2.575   6.363   3.029  0.3836  2.6824 -2.0714
13720TIP3   OH262574   6.727   2.702   1.600  0.5796  0.1080 -0.0045
13720TIP3    H162575   6.681   2.684   1.682  1.3218  0.5979  0.5400
13720TIP3    H262576   6.797   2.763   1.626  0.1355  1.1585 -1.1983
13721TIP3   OH262577   1.893   0.852   2.014 -0.0491  0.0243 -0.0739
13721TIP3    H162578   1.874   0.762   2.041  0.0784 -0.0476 -0.2310
13721TIP3    H262579   1.980   0.870   2.050 -0.2003  0.1889  0.2188
13722TIP3   OH262580   3.676   0.685  15.169 -0.0160  0.4945 -0.2233
13722TIP3    H162581   3.649   0.765  15.124  0.2806  0.2201 -0.8858
13722TIP3    H262582   3.749   0.713  15.225 -1.4669  1.2060  1.4422
13723TIP3   OH262583   1.612   4.712   3.645  0.4277 -0.6329  0.3571
13723TIP3    H162584   1.647   4.636   3.692 -1.4247 -1.9803 -0.3190
13723TIP3    H262585   1.640   4.787   3.696  2.1176 -1.7728  1.2030
13724TIP3   OH262586   6.234   4.354   5.454  0.2611 -0.1030 -0.6739
13724TIP3    H162587   6.231   4.286   5.521  0.9333 -0.0331 -0.5708
13724TIP3    H262588   6.189   4.316   5.379  0.4747 -0.5896 -0.5556
13725TIP3   OH262589   3.835   4.739   1.089 -0.3357 -0.6769 -0.5783
13725TIP3    H162590   3.916   4.688   1.099 -0.1476 -0.5132 -1.1908
13725TIP3    H262591   3.791   4.699   1.014 -1.1761 -1.2080  0.1763
13726TIP3   OH262592   4.296   4.047  13.933 -0.3461 -0.0008 -0.2441
13726TIP3    H162593   4.356   4.055  13.860 -0.8792  0.9008 -0.6047
13726TIP3    H262594   4.238   4.123  13.925 -1.8428 -1.0784 -0.2020
13727TIP3   OH262595   1.772   6.542  16.957  0.4347 -0.2241  0.0379
13727TIP3    H162596   1.817   6.618  16.994 -0.7949  0.6150 -0.1500
13727TIP3    H262597   1.740   6.571  16.872 -0.7424 -0.6799  0.3005
13728TIP3   OH262598   1.829   2.700  14.283 -0.0952  0.5788  0.1126
13728TIP3    H162599   1.799   2.648  14.208  1.3383  1.0554 -0.8246
13728TIP3    H262600   1.815   2.790  14.256  0.6210  0.7575  0.3246
13729TIP3   OH262601   6.425   5.164   5.384  0.1452 -0.0104  0.3916
13729TIP3    H162602   6.349   5.145   5.329 -0.1653 -0.4984  0.9788
13729TIP3    H262603   6.388   5.204   5.462  0.6908  1.9942 -0.3230
13730TIP3   OH262604   6.063   1.835   2.625  0.0196  0.2160  0.2074
13730TIP3    H162605   6.061   1.767   2.692 -0.7345  0.6705  0.6558
13730TIP3    H262606   5.980   1.826   2.578  0.7657 -0.4545 -1.0434
13731TIP3   OH262607   6.005   4.215  12.095  0.4965 -0.2440 -0.3156
13731TIP3    H162608   5.910   4.219  12.086  0.2840 -2.4242  0.3396
13731TIP3    H262609   6.033   4.307  12.094 -1.6269  0.4665 -0.2022
13732TIP3   OH262610   6.772   1.257  11.640 -0.0285 -0.3718 -0.0540
13732TIP3    H162611   6.685   1.224  11.620 -1.7243  3.4647  0.2488
13732TIP3    H262612   6.766   1.287  11.731  1.5078  0.2363 -0.1230
13733TIP3   OH262613   0.162   3.023  14.387  0.1463  0.1291  0.0811
13733TIP3    H162614   0.243   3.045  14.432  0.6863  2.5493 -1.8085
13733TIP3    H262615   0.132   2.942  14.428  2.6493  0.0239  1.9264
13734TIP3   OH262616   6.080   2.592  15.033 -0.1891  0.3573  0.0186
13734TIP3    H162617   6.092   2.521  14.970  0.7688  0.4970  0.0356
13734TIP3    H262618   5.988   2.617  15.023 -0.2843 -0.2290 -0.6777
13735TIP3   OH262619   0.940   2.584   0.559 -0.0950 -0.1949  0.3985
13735TIP3    H162620   0.850   2.551   0.551 -0.1370 -0.1952  0.8637
13735TIP3    H262621   0.993   2.520   0.512 -0.4037  0.1214 -0.4025
13736TIP3   OH262622   4.898   1.181   4.508 -0.1154 -0.1027  0.4692
13736TIP3    H162623   4.936   1.203   4.423  0.1097 -0.3706  0.4982
13736TIP3    H262624   4.973   1.169   4.566 -0.2625 -0.0847  0.6652
13737TIP3   OH262625   4.715   2.381   4.232 -0.0319  0.3020  0.4599
13737TIP3    H162626   4.748   2.377   4.322  1.0647  0.6257  0.0964
13737TIP3    H262627   4.716   2.290   4.202  0.9433  0.3327  0.3396
13738TIP3   OH262628   0.811   6.786   5.324 -0.3554 -0.1868  0.6967
13738TIP3    H162629   0.857   6.838   5.259  0.5706 -1.3963  0.3406
13738TIP3    H262630   0.734   6.838   5.347 -0.6938  0.3065 -1.3338
13739TIP3   OH262631   0.328   1.375   3.191 -0.0939 -0.2600  0.2545
13739TIP3    H162632   0.324   1.284   3.160 -1.1931 -0.8548  2.0060
13739TIP3    H262633   0.398   1.375   3.256  0.3063  0.3120 -0.1619
13740TIP3   OH262634   2.871   1.988  15.781  0.0940 -0.3132  0.2810
13740TIP3    H162635   2.820   1.967  15.860  0.5776 -0.6828  0.5035
13740TIP3    H262636   2.882   2.083  15.784 -1.8701 -0.0075 -0.5724
13741TIP3   OH262637   2.458   4.673   3.453  0.3810  0.4619  0.0595
13741TIP3    H162638   2.485   4.665   3.544 -0.1786  0.5535  0.2411
13741TIP3    H262639   2.506   4.605   3.406 -0.5332 -0.6587  0.7004
13742TIP3   OH262640   4.197   0.751  11.788  0.0320  0.3527  0.5928
13742TIP3    H162641   4.142   0.794  11.854  0.6257 -1.0090  2.0443
13742TIP3    H262642   4.271   0.717  11.838  1.3498  0.6815 -1.0614
13743TIP3   OH262643   4.134   0.223   1.066  0.2536 -0.2770 -0.0097
13743TIP3    H162644   4.064   0.265   1.016  0.3139  0.6878  0.6814
13743TIP3    H262645   4.099   0.216   1.155  0.2958 -1.6040 -0.0808
13744TIP3   OH262646   3.697   2.532   2.318  0.2809  0.0238 -0.1212
13744TIP3    H162647   3.707   2.462   2.254  0.9925 -0.0773  0.0901
13744TIP3    H262648   3.760   2.511   2.387 -0.3728  0.2063  0.5511
13745TIP3   OH262649   0.185   5.575   1.317 -0.1602  0.3257  0.3181
13745TIP3    H162650   0.105   5.616   1.351 -1.0087 -0.3981 -0.7314
13745TIP3    H262651   0.180   5.485   1.348  0.5742  0.4271  0.7514
13746TIP3   OH262652   5.371   1.886   6.479  0.0428  0.1253 -0.0255
13746TIP3    H162653   5.322   1.966   6.460 -0.2609 -0.1583 -0.4485
13746TIP3    H262654   5.371   1.880   6.574 -1.2880 -0.2091 -0.0372
13747TIP3   OH262655   3.382   3.228   3.653 -0.6846 -0.3078 -0.1590
13747TIP3    H162656   3.370   3.146   3.702 -0.9083  0.5519  1.2677
13747TIP3    H262657   3.318   3.288   3.691  0.7103  1.0824  0.0471
13748TIP3   OH262658   0.398   5.510   0.778  0.5668 -0.7931  0.0121
13748TIP3    H162659   0.334   5.576   0.752  2.8058  1.7620  0.4918
13748TIP3    H262660   0.370   5.431   0.733 -2.4543  0.3456 -0.3700
13749TIP3   OH262661   4.793   4.937   4.208 -0.0171 -0.1450  0.4941
13749TIP3    H162662   4.773   5.027   4.186  2.5889  0.6087  0.8849
13749TIP3    H262663   4.794   4.891   4.124  0.0207  0.4940  0.1383
13750TIP3   OH262664   5.525   4.725  13.372  0.3840  0.8050 -0.0476
13750TIP3    H162665   5.520   4.637  13.336  1.1748 -0.3167  2.3460
13750TIP3    H262666   5.435   4.757  13.371 -0.3232 -0.9769  1.0810
13751TIP3   OH262667   1.258   6.256  11.308 -0.2390 -0.8328  0.0974
13751TIP3    H162668   1.198   6.269  11.381 -0.5350  1.8459 -0.5356
13751TIP3    H262669   1.213   6.193  11.251 -1.9869  0.3067  0.1534
13752TIP3   OH262670   4.101   0.578  13.204  0.1148 -0.0493  0.3096
13752TIP3    H162671   4.189   0.609  13.225  0.3851  0.5404 -1.5701
13752TIP3    H262672   4.101   0.486  13.231  1.3282 -0.0741  0.2832
13753TIP3   OH262673   5.289   5.531  11.516 -0.7056 -0.6607 -0.1091
13753TIP3    H162674   5.232   5.557  11.444  0.0246  2.0205  0.2054
13753TIP3    H262675   5.324   5.446  11.489 -2.4746 -0.9549 -1.6670
13754TIP3   OH262676   6.687   0.192  15.604 -0.0413  0.2392  0.1656
13754TIP3    H162677   6.770   0.212  15.561 -1.5011  1.6780 -2.2432
13754TIP3    H262678   6.675   0.098  15.589  2.3853 -0.6636  3.0762
13755TIP3   OH262679   2.322   1.964  13.852 -0.2017 -0.3584  0.3034
13755TIP3    H162680   2.252   1.977  13.787  0.1434 -1.9150 -0.4277
13755TIP3    H262681   2.279   1.983  13.936 -1.6873 -1.7479 -0.0784
13756TIP3   OH262682   3.922   4.379   2.606 -0.0180  0.1000  0.0971
13756TIP3    H162683   3.996   4.403   2.662  1.0504 -2.0407 -0.3189
13756TIP3    H262684   3.855   4.347   2.666 -0.5083  1.6537  0.4362
13757TIP3   OH262685   1.338   6.604  13.097 -0.1216  0.3763  0.4511
13757TIP3    H162686   1.403   6.535  13.112  0.1136  0.1921 -1.2493
13757TIP3    H262687   1.255   6.565  13.126  0.1476 -0.3100  0.3198
13758TIP3   OH262688   3.665   2.935  16.308 -0.0134  0.5137  0.6720
13758TIP3    H162689   3.591   2.990  16.283  0.5234 -0.1500 -2.7638
13758TIP3    H262690   3.738   2.995  16.315  0.0302  0.6191 -0.4983
13759TIP3   OH262691   0.932   5.554  16.431 -0.4213 -0.2942 -0.2189
13759TIP3    H162692   0.979   5.549  16.514 -1.5129  1.2479  0.5456
13759TIP3    H262693   0.844   5.521  16.451 -0.8188  0.4754 -0.6577
13760TIP3   OH262694   1.697   3.631   1.910  0.0221 -0.1662 -0.3853
13760TIP3    H162695   1.770   3.663   1.857 -0.2309 -1.4729 -1.5771
13760TIP3    H262696   1.638   3.707   1.917  1.0685  0.6419 -0.1482
13761TIP3   OH262697   5.787   1.411   0.922 -0.8252 -0.2601 -0.1559
13761TIP3    H162698   5.782   1.415   1.018  0.3532  0.1724 -0.0888
13761TIP3    H262699   5.696   1.408   0.893 -1.2131  0.0575  0.9640
13762TIP3   OH262700   4.659   6.361   3.872 -0.2944  0.3156  0.2596
13762TIP3    H162701   4.677   6.338   3.781  0.4804 -0.2247  0.5374
13762TIP3    H262702   4.598   6.293   3.902 -0.3951  0.3809  0.2052
13763TIP3   OH262703   0.340   2.387   1.695 -0.2257 -0.2770  0.1415
13763TIP3    H162704   0.253   2.370   1.733  0.2274 -0.3876  1.1697
13763TIP3    H262705   0.401   2.358   1.763  0.6388 -1.1576 -0.9777
13764TIP3   OH262706   4.505   2.550  11.346 -0.5023 -0.4356  0.0403
13764TIP3    H162707   4.581   2.606  11.362 -1.0692  0.0737  0.9929
13764TIP3    H262708   4.533   2.492  11.275  0.2922  0.6628 -0.5725
13765TIP3   OH262709   6.113   6.158   2.727 -0.4986  0.2985  0.2296
13765TIP3    H162710   6.047   6.165   2.796 -0.4589 -1.0167  0.4150
13765TIP3    H262711   6.071   6.106   2.659  0.1505 -0.0907  0.1193
13766TIP3   OH262712   0.991   3.322   4.806  0.7458  0.2469  0.2095
13766TIP3    H162713   1.025   3.294   4.721 -0.5699  1.1094 -0.6594
13766TIP3    H262714   0.971   3.241   4.852  0.0577 -0.2712 -0.9397
13767TIP3   OH262715   3.113   1.568   2.644 -0.1887 -0.0456  0.1921
13767TIP3    H162716   3.057   1.606   2.712 -0.2644  0.2813 -0.0506
13767TIP3    H262717   3.131   1.479   2.675 -2.1756 -0.7338 -0.4916
13768TIP3   OH262718   2.969   2.207   2.358 -0.2922  0.4087 -0.2302
13768TIP3    H162719   2.944   2.254   2.278 -0.6984 -0.9993 -0.9775
13768TIP3    H262720   2.885   2.183   2.398 -0.1165 -0.2543 -0.2428
13769TIP3   OH262721   1.174   0.107  15.239 -0.4382 -0.4080  0.4298
13769TIP3    H162722   1.092   0.059  15.231 -0.7357  0.2788 -0.8303
13769TIP3    H262723   1.153   0.195  15.210  0.1448  0.4743  2.5302
13770TIP3   OH262724   6.098   5.553   3.372  0.5738 -0.1740  0.3843
13770TIP3    H162725   6.044   5.625   3.341  0.2697 -0.4630  0.2283
13770TIP3    H262726   6.163   5.594   3.429 -0.7951  0.0251  1.8769
13771TIP3   OH262727   4.050   6.232  13.687 -0.2331  0.0015  0.0616
13771TIP3    H162728   4.032   6.318  13.723 -0.9018  0.1036 -0.4830
13771TIP3    H262729   4.142   6.214  13.709  0.4879  1.6340 -1.3504
13772TIP3   OH262730   6.515   4.466   1.919 -0.1079 -0.2632 -0.3440
13772TIP3    H162731   6.457   4.428   1.985 -0.4392  1.0177  0.1359
13772TIP3    H262732   6.456   4.491   1.848 -0.7003  3.5409  1.2449
13773TIP3   OH262733   6.359   2.751  14.197 -0.2770 -0.2522  0.5388
13773TIP3    H162734   6.397   2.830  14.235  0.0239 -0.4211  0.5940
13773TIP3    H262735   6.301   2.717  14.264  0.4633 -0.7026  0.9638
13774TIP3   OH262736   5.148   4.411  15.439  0.4232 -0.0545  0.3270
13774TIP3    H162737   5.193   4.482  15.394  1.1591 -0.1737  0.8525
13774TIP3    H262738   5.060   4.445  15.456  1.1755  1.3173  1.8384
13775TIP3   OH262739   5.216   6.447   0.902  0.5842  0.2356  0.3939
13775TIP3    H162740   5.128   6.454   0.867  0.7975  1.5079  0.0631
13775TIP3    H262741   5.238   6.354   0.894 -0.6045 -0.0435  0.2136
13776TIP3   OH262742   3.128   4.448  12.576  0.5126 -0.0562 -0.1274
13776TIP3    H162743   3.133   4.430  12.482 -0.6829  2.4429 -0.7681
13776TIP3    H262744   3.216   4.435  12.608  0.8882 -1.2471 -1.5385
13777TIP3   OH262745   4.476   3.855  11.530 -0.4155  0.2196  0.1519
13777TIP3    H162746   4.448   3.828  11.443  0.2123  0.1386 -0.0358
13777TIP3    H262747   4.520   3.778  11.566 -2.2191 -0.3262  1.2595
13778TIP3   OH262748   6.257   4.716  11.826 -0.1994  0.7673  0.5035
13778TIP3    H162749   6.278   4.684  11.914 -1.5291 -1.3858  0.0957
13778TIP3    H262750   6.325   4.678  11.770 -1.5676 -1.1542  0.0721
13779TIP3   OH262751   2.244   2.513   2.752 -0.1831  0.0894 -0.1624
13779TIP3    H162752   2.275   2.539   2.665 -0.4679 -1.6142 -0.8151
13779TIP3    H262753   2.177   2.446   2.735 -0.9461  0.4218  1.3464
13780TIP3   OH262754   5.380   4.024   4.234 -0.3658  0.4509  0.0131
13780TIP3    H162755   5.401   3.954   4.296  1.1368  0.8920  0.0335
13780TIP3    H262756   5.386   3.983   4.148 -0.2328  0.3815  0.0557
13781TIP3   OH262757   3.888   3.834   2.786  0.2723  0.7673 -0.0569
13781TIP3    H162758   3.918   3.813   2.697 -0.1213 -2.6305  0.4587
13781TIP3    H262759   3.805   3.881   2.773  0.2323  0.3517 -1.5059
13782TIP3   OH262760   2.981   1.054  13.050 -0.1539  0.2830  0.4871
13782TIP3    H162761   3.013   0.982  13.105  0.9545  0.6980  0.4030
13782TIP3    H262762   2.922   1.103  13.107 -1.0788 -0.7863  0.4911
13783TIP3   OH262763   3.142   4.797  13.005 -0.7737  0.1278  0.2631
13783TIP3    H162764   3.096   4.778  13.086 -2.6079  0.8905 -0.5498
13783TIP3    H262765   3.154   4.892  13.005 -0.6561  0.1188 -0.2948
13784TIP3   OH262766   1.251   5.318  12.870  0.6058 -0.1144  0.6724
13784TIP3    H162767   1.177   5.269  12.836 -0.7766  1.9846  0.4942
13784TIP3    H262768   1.230   5.333  12.962  0.3926  1.1242  0.4487
13785TIP3   OH262769   4.542   2.527   2.194 -0.3027 -0.4331 -0.0200
13785TIP3    H162770   4.540   2.532   2.289 -0.9351  1.5520 -0.0948
13785TIP3    H262771   4.530   2.617   2.164 -0.0657 -0.9917 -1.9877
13786TIP3   OH262772   4.963   2.811  12.485  0.1584  0.2944 -0.3771
13786TIP3    H162773   5.007   2.893  12.462 -1.8722  1.0082 -2.0659
13786TIP3    H262774   4.874   2.838  12.510 -0.0778 -1.2705  0.5978
13787TIP3   OH262775   0.556   4.112   0.854 -0.1660 -0.2864  0.2795
13787TIP3    H162776   0.496   4.048   0.892 -1.1666  0.3199 -0.2487
13787TIP3    H262777   0.622   4.126   0.921  0.2744 -2.1153  0.2966
13788TIP3   OH262778   6.215   6.288  14.478  0.3820  0.3174 -0.0838
13788TIP3    H162779   6.265   6.286  14.397  0.6807  3.9135 -0.1641
13788TIP3    H262780   6.277   6.320  14.544 -0.2325 -1.1472  1.2690
13789TIP3   OH262781   2.036   1.984  13.406 -0.5877 -0.3057 -0.0251
13789TIP3    H162782   2.111   1.926  13.392 -0.5571 -0.4136  0.5810
13789TIP3    H262783   1.962   1.937  13.367 -0.8459 -1.4512  1.7579
13790TIP3   OH262784   2.356   3.495  16.383 -0.2157 -0.3973  0.2110
13790TIP3    H162785   2.307   3.577  16.383 -0.2943 -0.4232  1.4055
13790TIP3    H262786   2.342   3.459  16.470  0.9412 -1.0059  0.1665
13791TIP3   OH262787   5.454   3.919  15.709  0.3180  0.4212 -0.0480
13791TIP3    H162788   5.532   3.971  15.725  1.4133 -1.0268 -0.5101
13791TIP3    H262789   5.486   3.830  15.695 -1.1751  0.1564 -2.4637
13792TIP3   OH262790   6.523   0.366   4.415 -0.1972  0.0504  0.0137
13792TIP3    H162791   6.433   0.365   4.385  0.6842 -1.7643 -2.9841
13792TIP3    H262792   6.566   0.433   4.361  0.5903 -0.3191  0.1648
13793TIP3   OH262793   2.415   0.600   4.962  0.1835  0.3342  0.0480
13793TIP3    H162794   2.505   0.577   4.986 -0.4278 -0.2029  2.0385
13793TIP3    H262795   2.368   0.516   4.962 -0.3026  0.5763 -1.1993
13794TIP3   OH262796   2.899   6.430  11.900 -0.3624  0.5816 -0.3827
13794TIP3    H162797   2.881   6.377  11.977 -2.5840  2.3603  0.4440
13794TIP3    H262798   2.956   6.500  11.931  0.2060  0.3105 -0.7928
13795TIP3   OH262799   1.324   1.248  13.998 -0.5127 -0.8402  0.5223
13795TIP3    H162800   1.398   1.269  14.056  0.6020 -0.2569 -1.0499
13795TIP3    H262801   1.365   1.226  13.914 -2.1130 -1.0975 -0.2252
13796TIP3   OH262802   5.346   4.292   0.649 -0.1162 -0.1487 -0.6041
13796TIP3    H162803   5.370   4.384   0.654 -1.4709  0.3189 -1.9349
13796TIP3    H262804   5.359   4.259   0.738 -0.2213  1.4857  0.0563
13797TIP3   OH262805   2.345   1.157  15.646  0.0789 -0.3236  0.0298
13797TIP3    H162806   2.360   1.251  15.634 -1.3129 -0.2665 -1.6565
13797TIP3    H262807   2.426   1.125  15.685  1.6572  1.1525 -1.7974
13798TIP3   OH262808   3.195   0.727   3.911 -0.0274 -0.2021 -0.3321
13798TIP3    H162809   3.215   0.820   3.900 -0.8724  0.0085 -0.1037
13798TIP3    H262810   3.146   0.722   3.993 -0.6094 -0.7551 -0.7111
13799TIP3   OH262811   4.772   5.232   1.097  0.2157 -0.0622  0.3275
13799TIP3    H162812   4.846   5.228   1.157 -0.3750 -0.4069  1.0367
13799TIP3    H262813   4.714   5.162   1.125  0.4123 -0.9320 -1.3000
13800TIP3   OH262814   4.789   3.779  11.460 -0.5871 -0.6098  0.1121
13800TIP3    H162815   4.824   3.867  11.469 -0.2212 -0.8504  1.2021
13800TIP3    H262816   4.705   3.791  11.415 -0.2930  0.2325 -0.2227
13801TIP3   OH262817   6.283   6.080  11.249 -0.2906 -0.3502 -0.2454
13801TIP3    H162818   6.280   5.996  11.295  1.8551  0.3643  1.3863
13801TIP3    H262819   6.207   6.128  11.281  0.3622 -0.4187  1.5139
13802TIP3   OH262820   4.441   4.080   0.355  0.3937 -0.5458  0.2387
13802TIP3    H162821   4.370   4.122   0.306 -0.0403  1.4048  2.3683
13802TIP3    H262822   4.521   4.118   0.318  0.1390 -0.1540  0.0815
13803TIP3   OH262823   3.760   6.481   3.154 -0.3926  0.1217  0.1761
13803TIP3    H162824   3.725   6.438   3.231 -1.7381 -1.8090 -1.4125
13803TIP3    H262825   3.849   6.446   3.144 -0.4196 -0.0495  0.5505
13804TIP3   OH262826   1.106   3.168  12.322 -0.2753 -0.1462  0.0903
13804TIP3    H162827   1.103   3.132  12.234  1.2525 -1.3747  0.4903
13804TIP3    H262828   1.187   3.219  12.325 -0.3420 -0.0615  0.7724
13805TIP3   OH262829   6.523   2.483  16.036 -0.3069 -0.0499 -0.0758
13805TIP3    H162830   6.475   2.431  15.972 -0.3239  1.3000 -1.2185
13805TIP3    H262831   6.457   2.509  16.101 -0.4180 -0.9334  0.1663
13806TIP3   OH262832   5.389   6.263  14.306 -0.6935 -0.2888 -0.1622
13806TIP3    H162833   5.364   6.339  14.358 -0.0939 -0.1337 -0.0839
13806TIP3    H262834   5.482   6.250  14.326 -0.0304  0.6706 -2.2464
13807TIP3   OH262835   2.496   6.580   2.430  0.1562 -0.0811  0.0559
13807TIP3    H162836   2.532   6.492   2.443 -1.6336 -1.0363 -1.0163
13807TIP3    H262837   2.411   6.578   2.475  0.3872  1.3323  0.5920
13808TIP3   OH262838   6.468   6.691   4.355  0.1875 -0.1595  0.5481
13808TIP3    H162839   6.515   6.742   4.421 -0.8572  1.4649  0.0946
13808TIP3    H262840   6.511   6.714   4.272 -0.4838  0.2171  0.3029
13809TIP3   OH262841   2.565   2.566   0.214  0.2531 -0.3560 -0.2370
13809TIP3    H162842   2.520   2.615   0.145 -0.5134  0.8362  1.0467
13809TIP3    H262843   2.526   2.479   0.211 -1.3987  0.3206  0.0909
13810TIP3   OH262844   3.996   3.259  14.890 -0.0274 -0.2837 -0.4740
13810TIP3    H162845   4.025   3.296  14.807  0.5850  0.7554  0.1772
13810TIP3    H262846   4.058   3.189  14.909  0.0518 -0.2744 -0.7080
13811TIP3   OH262847   6.543   2.075   5.267 -0.1861  0.2341 -0.3277
13811TIP3    H162848   6.520   2.168   5.264  2.5388  0.9764 -1.4391
13811TIP3    H262849   6.508   2.039   5.186  0.7839  0.8933 -1.0682
13812TIP3   OH262850   1.364   4.954   2.114 -0.6535  0.1648  0.2298
13812TIP3    H162851   1.297   5.001   2.164 -0.7979 -0.6044  0.7767
13812TIP3    H262852   1.385   4.878   2.168  2.9834  1.9483  1.6352
13813TIP3   OH262853   5.847   2.080   5.933 -0.0932  0.0252  0.6055
13813TIP3    H162854   5.842   2.170   5.964  1.9573  0.7670 -0.9841
13813TIP3    H262855   5.868   2.029   6.012  1.6638  1.3633  1.0588
13814TIP3   OH262856   1.413   3.263   1.750  0.0429 -0.4100  0.2074
13814TIP3    H162857   1.363   3.273   1.832 -0.6224 -0.5419 -0.1738
13814TIP3    H262858   1.364   3.314   1.686 -0.0911 -1.2545 -0.3794
13815TIP3   OH262859   1.468   4.497   4.373  0.1430  0.1465  0.3939
13815TIP3    H162860   1.398   4.473   4.313  1.1608  0.3164 -0.9022
13815TIP3    H262861   1.441   4.582   4.409  0.2582  0.8274 -1.0565
13816TIP3   OH262862   5.793   4.829  14.929 -0.0515 -0.5751  0.0463
13816TIP3    H162863   5.796   4.924  14.944  0.3389 -0.3009 -1.6000
13816TIP3    H262864   5.829   4.817  14.841 -0.1050 -2.2613  0.2166
13817TIP3   OH262865   2.875   2.723  14.378  0.5165 -0.2074  0.7053
13817TIP3    H162866   2.933   2.653  14.407 -0.0973  0.1786  3.0622
13817TIP3    H262867   2.815   2.737  14.451 -0.6885  1.3941 -0.5053
13818TIP3   OH262868   4.688   2.915   5.601 -0.0620  0.2729 -0.1695
13818TIP3    H162869   4.763   2.961   5.565 -0.6770  1.2769 -0.1927
13818TIP3    H262870   4.612   2.956   5.560 -0.6061 -1.9736 -1.6135
13819TIP3   OH262871   4.659   1.522  15.075  0.1967 -0.2085  0.0873
13819TIP3    H162872   4.605   1.559  15.005 -0.4539 -0.5196  0.4075
13819TIP3    H262873   4.700   1.445  15.035  0.2901 -0.0526 -0.1191
13820TIP3   OH262874   6.713   1.251  15.262  0.0856 -0.4230  0.1241
13820TIP3    H162875   6.674   1.320  15.317 -1.2089 -0.6130 -0.5202
13820TIP3    H262876   6.738   1.296  15.181 -0.3113 -0.6109 -0.1055
13821TIP3   OH262877   5.377   6.148  17.196 -0.0070  0.0997  0.1862
13821TIP3    H162878   5.444   6.105  17.249  0.5432  1.1878  0.3938
13821TIP3    H262879   5.425   6.191  17.126 -0.4209  1.2353  0.5700
13822TIP3   OH262880   6.664   4.600   0.613 -0.2924 -0.1280 -0.1694
13822TIP3    H162881   6.672   4.547   0.534  1.6927 -0.0102 -0.1023
13822TIP3    H262882   6.712   4.680   0.594  0.9751 -0.4509  1.4079
13823TIP3   OH262883   5.592   1.561  15.003 -0.0645  0.2368  0.4818
13823TIP3    H162884   5.655   1.511  15.054  1.0622 -0.3538 -1.4092
13823TIP3    H262885   5.628   1.563  14.915 -2.0928  0.9507 -0.3898
13824TIP3   OH262886   6.320   6.516   0.300  0.8257 -0.2272 -0.4596
13824TIP3    H162887   6.343   6.608   0.294  2.8987 -0.3790  2.6714
13824TIP3    H262888   6.281   6.506   0.387  1.8922 -2.4800 -0.1514
13825TIP3   OH262889   0.339   6.007   2.543 -0.7958  0.2398  0.1533
13825TIP3    H162890   0.274   5.947   2.506 -2.9294  3.5041 -1.9663
13825TIP3    H262891   0.318   6.012   2.636 -3.2600  0.7370 -0.3741
13826TIP3   OH262892   6.673   0.733  13.889  0.2563 -0.0090  0.2273
13826TIP3    H162893   6.756   0.690  13.866  0.7007  0.3233  1.1754
13826TIP3    H262894   6.649   0.781  13.809  0.7374 -0.4698 -0.2087
13827TIP3   OH262895   0.394   0.427   2.212 -0.0863  0.8788 -0.8454
13827TIP3    H162896   0.361   0.471   2.133 -1.2032  0.4070 -0.6654
13827TIP3    H262897   0.483   0.460   2.222  0.1617  0.7982 -2.4206
13828TIP3   OH262898   2.636   0.722  11.476 -0.0115 -0.0025 -0.0337
13828TIP3    H162899   2.698   0.703  11.547  2.2554 -0.1739 -1.9533
13828TIP3    H262900   2.666   0.668  11.403 -0.3094  2.4804 -2.1189
13829TIP3   OH262901   2.303   5.093   0.781 -0.1727 -0.7593 -0.4179
13829TIP3    H162902   2.359   5.112   0.705 -0.2100 -1.8845 -0.7428
13829TIP3    H262903   2.354   5.123   0.856 -0.4718  1.1141 -0.9160
13830TIP3   OH262904   6.527   4.914  14.781  0.0981 -0.4029  0.0138
13830TIP3    H162905   6.473   4.981  14.823  0.4039 -0.5940  0.7349
13830TIP3    H262906   6.466   4.865  14.726 -1.0834 -2.2301  2.7090
13831TIP3   OH262907   1.226   5.881  11.418 -0.0979  0.1274  0.0898
13831TIP3    H162908   1.152   5.879  11.358 -0.6312 -0.4721  0.7583
13831TIP3    H262909   1.302   5.898  11.361 -0.7805  1.2064 -0.5488
13832TIP3   OH262910   2.730   5.756  11.304 -0.0533 -0.0470 -0.4000
13832TIP3    H162911   2.694   5.833  11.259 -1.8261 -0.3528  0.3884
13832TIP3    H262912   2.770   5.705  11.234  0.7658  1.3636 -1.0042
13833TIP3   OH262913   1.512   5.782   5.972 -0.5471  0.1626 -0.0976
13833TIP3    H162914   1.442   5.783   6.037  0.2494  0.4175  0.7807
13833TIP3    H262915   1.579   5.841   6.008 -1.3980  2.9711 -2.6461
13834TIP3   OH262916   6.472   3.381  15.439 -0.4235  0.1805 -0.1038
13834TIP3    H162917   6.440   3.292  15.423  1.2048 -0.8889  2.0428
13834TIP3    H262918   6.395   3.437  15.428 -1.2956 -1.3449 -2.4144
13835TIP3   OH262919   6.005   4.784   1.020  0.1034 -0.0291 -0.3793
13835TIP3    H162920   6.007   4.779   0.924 -1.2355 -2.3474 -0.3545
13835TIP3    H262921   6.098   4.781   1.045  0.4524 -3.4908 -1.5631
13836TIP3   OH262922   3.159   1.830  15.848 -0.0625 -0.4687  0.2493
13836TIP3    H162923   3.209   1.889  15.792  0.6223  1.0646  2.3450
13836TIP3    H262924   3.099   1.786  15.788  0.5650  1.1178 -1.6689
13837TIP3   OH262925   2.540   3.361   4.247  0.0555 -0.0665 -0.0454
13837TIP3    H162926   2.629   3.328   4.235 -0.2070 -0.4641 -0.9651
13837TIP3    H262927   2.545   3.417   4.325  0.9361 -0.7150  0.3790
13838TIP3   OH262928   0.484   2.769  16.595  0.1418  0.5220 -0.3833
13838TIP3    H162929   0.418   2.838  16.595 -1.2840 -0.7827 -1.0548
13838TIP3    H262930   0.511   2.762  16.504  2.5869  2.2418  0.1229
13839TIP3   OH262931   3.235   2.033  14.348  0.0242  0.5569 -0.1291
13839TIP3    H162932   3.225   1.938  14.350  0.3493  0.3539 -3.0718
13839TIP3    H262933   3.243   2.059  14.440 -0.7466 -2.1551  0.7921
13840TIP3   OH262934   5.422   0.041  15.084 -0.2468  0.5664 -0.4214
13840TIP3    H162935   5.377   0.123  15.105 -1.5041  0.4242 -2.2917
13840TIP3    H262936   5.508   0.068  15.054  0.0140  1.0445  0.7015
13841TIP3   OH262937   3.403   4.084  15.657 -0.5226  0.3812 -0.1581
13841TIP3    H162938   3.406   4.056  15.566 -0.6174 -0.1346 -0.0014
13841TIP3    H262939   3.331   4.147  15.661 -1.0388 -0.2071 -0.2634
13842TIP3   OH262940   0.595   6.683  12.144  0.0747  0.2617 -0.4649
13842TIP3    H162941   0.565   6.601  12.184 -0.1878  1.3639  1.7373
13842TIP3    H262942   0.530   6.748  12.172  0.8340  1.4138 -1.3257
13843TIP3   OH262943   3.401   5.851   2.712  0.3123  0.2418 -0.6207
13843TIP3    H162944   3.475   5.912   2.716  1.0855 -0.6713 -0.7639
13843TIP3    H262945   3.345   5.877   2.785  0.0444  1.8460 -1.3482
13844TIP3   OH262946   2.832   6.637   1.099  0.2957  0.1204 -0.0161
13844TIP3    H162947   2.836   6.542   1.096 -0.0790  0.1168 -0.7548
13844TIP3    H262948   2.924   6.665   1.104  0.5234 -0.2518 -1.5059
13845TIP3   OH262949   5.977   1.776   0.302 -0.2393 -0.6644  0.1594
13845TIP3    H162950   6.017   1.722   0.370  1.0843  0.8621  0.6474
13845TIP3    H262951   6.050   1.810   0.251 -1.0759  0.0619 -0.5958
13846TIP3   OH262952   2.145   0.271  12.585 -0.5261 -0.4108  0.2126
13846TIP3    H162953   2.142   0.208  12.513 -1.1744  0.5607 -0.6365
13846TIP3    H262954   2.234   0.304  12.585 -1.1681  1.5327 -1.9125
13847TIP3   OH262955   1.736   5.980   4.647 -0.2359 -0.5482  1.0953
13847TIP3    H162956   1.820   6.010   4.682 -0.3073  1.4701 -0.3526
13847TIP3    H262957   1.760   5.918   4.578  0.0648  0.0490  0.6594
13848TIP3   OH262958   0.974   3.348  14.569  0.0187 -0.5682 -0.4439
13848TIP3    H162959   1.034   3.304  14.510 -0.2965 -0.6008 -0.7437
13848TIP3    H262960   0.889   3.342  14.526 -0.2422 -0.7206  0.0780
13849TIP3   OH262961   4.631   6.514   5.058 -0.0624  0.5590  0.2592
13849TIP3    H162962   4.576   6.584   5.022 -0.8179 -0.3524 -0.4387
13849TIP3    H262963   4.570   6.459   5.107  0.5782  0.5635  1.0682
13850TIP3   OH262964   3.133   4.405  14.409  0.1009 -0.4780 -0.3010
13850TIP3    H162965   3.171   4.318  14.422  0.8431 -0.3175 -1.2930
13850TIP3    H262966   3.039   4.390  14.404  0.1363 -1.0753  0.6822
13851TIP3   OH262967   3.137   5.885   1.195  0.1458  0.3865  0.0164
13851TIP3    H162968   3.092   5.801   1.196  2.0337 -0.7551  3.3273
13851TIP3    H262969   3.221   5.866   1.153 -0.3118  1.2417 -1.3476
13852TIP3   OH262970   3.278   4.779   4.799  0.5736  0.2674  0.1706
13852TIP3    H162971   3.233   4.762   4.716  0.6641 -1.5347  0.4504
13852TIP3    H262972   3.207   4.787   4.863  0.5502 -0.0832  0.1931
13853TIP3   OH262973   3.573   1.272  13.443  0.1024 -0.2697 -0.1221
13853TIP3    H162974   3.534   1.323  13.373 -0.1323  0.2304  0.3640
13853TIP3    H262975   3.643   1.222  13.401  0.8951  1.0732 -0.4683
13854TIP3   OH262976   0.845   1.240   3.829  0.3379  0.0617 -0.4538
13854TIP3    H162977   0.808   1.246   3.917  2.6607 -2.9748  0.9204
13854TIP3    H262978   0.798   1.168   3.787  1.2169 -0.4651 -0.5601
13855TIP3   OH262979   6.554   6.696  13.998  0.2485  0.3484  1.0722
13855TIP3    H162980   6.639   6.691  13.955  0.4457 -1.4909  1.5939
13855TIP3    H262981   6.573   6.682  14.090 -0.7726 -2.2527  0.9651
13856TIP3   OH262982   1.541   3.506  12.365  0.0041 -0.0665 -0.0222
13856TIP3    H162983   1.514   3.587  12.323  1.4513  0.3356 -0.2147
13856TIP3    H262984   1.471   3.487  12.427 -0.9321  0.6786 -0.8125
13857TIP3   OH262985   0.491   5.516  13.474 -0.6485  0.5265 -0.1114
13857TIP3    H162986   0.541   5.489  13.551 -2.6616 -0.0330  1.0599
13857TIP3    H262987   0.553   5.508  13.402  1.1712  0.6292  1.3607
13858TIP3   OH262988   0.948   0.824   6.060 -0.4887 -0.2243  0.0427
13858TIP3    H162989   0.972   0.909   6.097  0.9971 -1.0287  1.0458
13858TIP3    H262990   0.938   0.840   5.966 -0.1603  1.0298  0.2095
13859TIP3   OH262991   4.842   1.823  13.332 -0.5715  0.1728  0.1416
13859TIP3    H162992   4.874   1.777  13.409  1.0196  1.0157  0.0233
13859TIP3    H262993   4.921   1.845  13.283 -1.4135  1.4062 -0.7062
13860TIP3   OH262994   1.415   1.908   3.682  0.1833 -0.1625 -0.9009
13860TIP3    H162995   1.342   1.970   3.688 -1.6978 -2.3635  1.9095
13860TIP3    H262996   1.378   1.832   3.636  0.1744 -1.7923  1.5943
13861TIP3   OH262997   2.396   1.686  14.642 -0.1553  0.0765  0.1932
13861TIP3    H162998   2.486   1.695  14.609 -0.0960 -0.7621  0.0836
13861TIP3    H262999   2.406   1.640  14.725 -0.1950  3.3261  2.1332
13862TIP3   OH263000   1.146   4.450   5.629 -0.0502 -0.1914 -0.2569
13862TIP3    H163001   1.147   4.377   5.690  0.3206 -0.5125 -0.6407
13862TIP3    H263002   1.236   4.483   5.630 -0.2776  0.4353  0.1189
13863TIP3   OH263003   2.043   1.846  10.786  0.2952  0.0739 -0.5693
13863TIP3    H163004   2.052   1.913  10.718  1.0101  0.1345 -0.4221
13863TIP3    H263005   1.975   1.880  10.844  1.0183  0.9444 -0.2002
13864TIP3   OH263006   2.439   1.979  14.524  0.3800 -0.4714  0.1867
13864TIP3    H163007   2.468   1.927  14.598  1.0817  1.3077  1.2283
13864TIP3    H263008   2.359   1.935  14.493  1.6006 -2.8346  0.1795
13865TIP3   OH263009   1.526   2.571  15.554 -0.0254  0.0193  0.4685
13865TIP3    H163010   1.541   2.650  15.502  2.6843 -2.5125 -3.0528
13865TIP3    H263011   1.457   2.524  15.507  0.7872 -1.2385  0.4890
13866TIP3   OH263012   0.679   3.310   5.104  0.1153 -0.0637  0.0992
13866TIP3    H163013   0.612   3.248   5.073 -2.0171  2.4924 -0.8545
13866TIP3    H263014   0.657   3.324   5.196 -2.2558  2.3528 -0.6807
13867TIP3   OH263015   3.964   5.649  12.325  0.2572 -0.0919 -0.0348
13867TIP3    H163016   4.056   5.675  12.330  0.1868  0.2263 -0.3765
13867TIP3    H263017   3.929   5.672  12.412  0.4791 -0.1386  0.0696
13868TIP3   OH263018   4.664   1.081   5.779  0.4619 -1.1573 -0.0109
13868TIP3    H163019   4.644   0.993   5.746  0.0507 -0.9940 -0.2034
13868TIP3    H263020   4.703   1.126   5.704 -0.3183 -0.8388 -0.2333
13869TIP3   OH263021   3.808   3.967  13.523  0.8115  0.2590 -0.1507
13869TIP3    H163022   3.856   4.030  13.577  0.8058  0.3937 -0.3021
13869TIP3    H263023   3.769   4.020  13.453  0.8392  0.0810 -0.3009
13870TIP3   OH263024   5.282   1.019  12.414 -0.4964  0.0279  0.2935
13870TIP3    H163025   5.364   1.059  12.386 -0.7007  1.0193  1.0756
13870TIP3    H263026   5.214   1.070  12.370 -0.8694  2.2542  3.2102
13871TIP3   OH263027   2.582   2.113   1.948 -0.4526  0.2588  0.0093
13871TIP3    H163028   2.652   2.049   1.948 -0.9770 -0.3873  2.0670
13871TIP3    H263029   2.626   2.197   1.931  0.9009 -0.0769  1.6270
13872TIP3   OH263030   2.431   2.989   4.534 -0.5057 -0.0508  0.8642
13872TIP3    H163031   2.424   3.022   4.624  0.9213 -2.1982  1.8509
13872TIP3    H263032   2.372   2.914   4.532 -0.5198 -0.0217 -0.0061
13873TIP3   OH263033   4.441   0.989  14.399  0.4062  0.2776 -0.7047
13873TIP3    H163034   4.534   1.001  14.378  0.8881 -1.4495  0.2328
13873TIP3    H263035   4.441   0.932  14.475 -1.4535 -0.5659 -1.2718
13874TIP3   OH263036   0.137   6.468  12.685 -0.7611 -0.2821  0.1939
13874TIP3    H163037   0.227   6.498  12.693 -1.0975  0.6341  0.7474
13874TIP3    H263038   0.114   6.436  12.772 -0.9681 -0.5055  0.0596
13875TIP3   OH263039   4.352   0.823  12.567 -0.1879 -0.5464  0.9359
13875TIP3    H163040   4.339   0.854  12.477  1.0937 -2.5818 -0.0306
13875TIP3    H263041   4.325   0.897  12.622  0.4662  1.3671 -1.1281
13876TIP3   OH263042   4.216   5.409  13.637  0.1403  0.5492 -0.2630
13876TIP3    H163043   4.219   5.473  13.708  0.0829  1.4085 -1.0287
13876TIP3    H263044   4.256   5.453  13.563 -0.7005  0.0231 -1.0508
13877TIP3   OH263045   0.700   2.469  11.118  0.4012 -0.0943 -0.2306
13877TIP3    H163046   0.711   2.375  11.128 -1.4779 -0.4599 -1.2069
13877TIP3    H263047   0.739   2.490  11.033  1.9776  0.2887  0.5294
13878TIP3   OH263048   0.940   0.405   5.233 -0.1505  0.6816  0.1368
13878TIP3    H163049   0.862   0.355   5.208  0.2701  0.4563 -0.7334
13878TIP3    H263050   0.971   0.362   5.313  0.3863 -0.6597 -0.7698
13879TIP3   OH263051   5.449   0.165  16.226 -0.2346  0.5529 -0.2203
13879TIP3    H163052   5.469   0.258  16.234 -0.4783  0.6576 -0.8012
13879TIP3    H263053   5.465   0.129  16.313 -0.0682  1.1245 -0.0164
13880TIP3   OH263054   1.314   0.668   1.410 -0.5103 -0.3006  0.5243
13880TIP3    H163055   1.405   0.694   1.394 -0.4934 -0.9092 -0.4100
13880TIP3    H263056   1.312   0.643   1.502  1.2011 -3.9351 -0.2426
13881TIP3   OH263057   3.071   6.263  15.021 -0.0192 -0.6785  0.2738
13881TIP3    H163058   3.164   6.257  14.998 -0.1524 -0.8515 -0.2385
13881TIP3    H263059   3.067   6.333  15.086  0.2889  0.3209 -0.7422
13882TIP3   OH263060   0.080   5.340   1.718  0.3332 -0.7771 -0.1992
13882TIP3    H163061   0.016   5.334   1.789  0.1300 -2.2852 -0.4778
13882TIP3    H263062   0.164   5.321   1.760  0.2833 -1.1103 -0.2422
13883TIP3   OH263063   4.793   3.070  15.787  0.0362  0.0910  0.0980
13883TIP3    H163064   4.810   2.981  15.758  1.3962  0.1528  0.6343
13883TIP3    H263065   4.879   3.105  15.810 -0.4486  1.5909 -0.2225
13884TIP3   OH263066   1.766   4.621   3.855 -0.3748 -0.1804 -0.3375
13884TIP3    H163067   1.725   4.698   3.896 -0.7150 -0.6353  0.1847
13884TIP3    H263068   1.761   4.553   3.922  2.2603  0.0530  0.2182
13885TIP3   OH263069   6.020   3.732  11.374  0.0698 -0.0588  0.3102
13885TIP3    H163070   6.091   3.679  11.412  0.1008  0.3485  0.8411
13885TIP3    H263071   6.065   3.797  11.320  0.0773 -0.1025  0.2640
13886TIP3   OH263072   5.787   1.464  16.363 -0.0852 -0.1310  0.2244
13886TIP3    H163073   5.782   1.463  16.459 -0.3973 -0.4043  0.2056
13886TIP3    H263074   5.822   1.378  16.340  1.0954  0.3483  0.1471
13887TIP3   OH263075   6.744   3.217  13.856 -0.3107 -0.2650 -0.6825
13887TIP3    H163076   6.702   3.216  13.770 -1.3055  0.4289 -0.2163
13887TIP3    H263077   6.682   3.174  13.914  0.0746 -0.1495 -0.1765
13888TIP3   OH263078   0.019   1.698   0.739  0.1439  0.0264 -0.2958
13888TIP3    H163079  -0.027   1.639   0.799  1.2318 -0.8867 -0.3323
13888TIP3    H263080   0.112   1.684   0.757  0.5019 -0.1495 -2.0679
13889TIP3   OH263081   0.870   6.229  15.517  0.1887 -0.4438  0.2838
13889TIP3    H163082   0.933   6.277  15.464  0.4181 -0.7550  0.2721
13889TIP3    H263083   0.793   6.286  15.521  0.3364 -0.2236 -0.0038
13890TIP3   OH263084   1.254   1.493   2.657 -0.0533 -0.1278 -0.4952
13890TIP3    H163085   1.271   1.567   2.716  1.3628 -0.9053  0.1222
13890TIP3    H263086   1.164   1.466   2.678 -0.3982  1.0750 -0.3597
13891TIP3   OH263087   1.052   6.768  14.338 -0.2014 -0.2615 -0.4398
13891TIP3    H163088   1.061   6.679  14.303 -2.3251 -1.7743  2.3739
13891TIP3    H263089   1.070   6.758  14.432  0.4377  2.5059 -0.1866
13892TIP3   OH263090   2.436   0.700  17.155 -0.4991 -0.3595 -0.5181
13892TIP3    H163091   2.506   0.764  17.171 -0.3626 -0.2059 -1.5892
13892TIP3    H263092   2.383   0.702  17.234 -0.5165  1.1226 -0.5314
13893TIP3   OH263093   1.477   0.300   2.396  0.5618  0.3352 -0.2149
13893TIP3    H163094   1.490   0.331   2.306 -0.9630  1.6378 -0.0292
13893TIP3    H263095   1.391   0.333   2.421  0.3550 -1.1700  1.2698
13894TIP3   OH263096   2.880   0.060   3.237  0.2708  0.5012  0.0349
13894TIP3    H163097   2.914  -0.005   3.176  0.0198  0.3366  0.0687
13894TIP3    H263098   2.939   0.056   3.313  0.7306  0.8834 -0.2988
13895TIP3   OH263099   4.523   2.887  14.647  0.3482 -0.2488 -0.7463
13895TIP3    H163100   4.560   2.812  14.694  1.3149 -0.3583 -1.6462
13895TIP3    H263101   4.547   2.962  14.702 -0.9130 -0.5977  0.3317
13896TIP3   OH263102   2.542   5.946  11.169 -0.4213  0.1995 -0.1152
13896TIP3    H163103   2.525   6.033  11.133  1.6043  0.3634 -0.8501
13896TIP3    H263104   2.514   5.886  11.100  0.2674  0.3861 -0.5737
13897TIP3   OH263105   1.320   5.066  11.720 -0.1817 -0.2325  0.2807
13897TIP3    H163106   1.310   5.143  11.775 -1.1172 -1.3642  1.7724
13897TIP3    H263107   1.234   5.054  11.679  0.5838  0.7946 -1.8024
13898TIP3   OH263108   1.945   3.601  11.702  0.0739  0.0586  0.5990
13898TIP3    H163109   1.972   3.532  11.763  0.9224  0.9381  1.2618
13898TIP3    H263110   1.854   3.619  11.725 -0.1065 -0.7248  0.5284
13899TIP3   OH263111   3.769   0.215   0.734 -0.2877 -0.5425 -0.4541
13899TIP3    H163112   3.809   0.228   0.820  0.1999 -0.2197 -0.7247
13899TIP3    H263113   3.715   0.137   0.745 -2.1518  0.8468  0.8086
13900TIP3   OH263114   3.981   1.945  12.213  0.3721  0.1372 -0.2426
13900TIP3    H163115   4.019   2.025  12.177 -0.2540  0.7713  0.4904
13900TIP3    H263116   3.895   1.971  12.244 -0.5193 -1.1940 -1.4856
13901TIP3   OH263117   5.575   3.411  14.243  0.4121 -1.0026  0.2566
13901TIP3    H163118   5.507   3.344  14.255  0.5771 -1.2729 -0.2511
13901TIP3    H263119   5.653   3.360  14.219  0.4577 -0.6001 -0.4454
13902TIP3   OH263120   0.767   2.511  15.851 -0.1807 -0.7727 -0.8647
13902TIP3    H163121   0.844   2.553  15.890 -0.4422 -1.5499  0.5540
13902TIP3    H263122   0.798   2.479  15.767  0.9367 -0.6791 -0.5080
13903TIP3   OH263123   4.083   0.790   4.908  0.2238 -0.3901 -0.7009
13903TIP3    H163124   4.030   0.727   4.958  1.0712 -1.0825 -0.6481
13903TIP3    H263125   4.077   0.760   4.817  0.2004 -0.2342 -0.7512
13904TIP3   OH263126   2.771   0.735   5.453  0.7892  0.0362 -0.9819
13904TIP3    H163127   2.852   0.694   5.484  0.2236 -0.3952 -0.0501
13904TIP3    H263128   2.738   0.783   5.529  0.4814  0.7036 -1.5312
13905TIP3   OH263129   5.527   1.531   3.242  0.0783  0.8894 -0.4210
13905TIP3    H163130   5.505   1.583   3.319  0.7451  0.3654  0.1324
13905TIP3    H263131   5.498   1.442   3.263  2.1456  0.2831  0.1287
13906TIP3   OH263132   5.403   2.165   5.361  0.1431  0.3449 -0.2569
13906TIP3    H163133   5.373   2.160   5.452  1.3711 -0.9030  0.1077
13906TIP3    H263134   5.324   2.186   5.311 -0.4235  1.7973  1.1602
13907TIP3   OH263135   0.770   0.569  16.189 -0.5327  0.1440 -0.1897
13907TIP3    H163136   0.726   0.599  16.109  1.9045  0.9693 -1.3314
13907TIP3    H263137   0.863   0.574  16.168  0.1587 -1.2469  2.1720
13908TIP3   OH263138   2.714   2.449  13.045 -0.3056 -0.3262  0.1397
13908TIP3    H163139   2.724   2.393  13.122 -1.4625  0.2599  0.7439
13908TIP3    H263140   2.619   2.454  13.031 -0.1045 -1.0014 -1.7763
13909TIP3   OH263141   0.811   5.541  15.037 -0.5306  0.0659 -0.0081
13909TIP3    H163142   0.750   5.615  15.030 -0.7768  0.0863  1.8156
13909TIP3    H263143   0.762   5.475  15.087  0.2809 -0.6535 -0.1523
13910TIP3   OH263144   6.517   2.927   2.441  0.2960 -0.4245  0.1781
13910TIP3    H163145   6.442   2.965   2.486 -0.2906 -0.6175 -0.6117
13910TIP3    H263146   6.572   3.001   2.417 -0.7333 -0.0490 -1.1622
13911TIP3   OH263147   5.895   5.081  16.390 -0.6391 -0.0071 -0.3462
13911TIP3    H163148   5.988   5.061  16.403 -0.8863 -1.3573 -0.4338
13911TIP3    H263149   5.858   5.080  16.478 -0.2776  2.3473 -0.1166
13912TIP3   OH263150   2.597   1.402   5.774  0.1344  0.0607  0.3982
13912TIP3    H163151   2.544   1.323   5.788  0.2273 -0.0074  0.3710
13912TIP3    H263152   2.539   1.474   5.796  0.3042 -0.0456  1.2264
13913TIP3   OH263153   6.098   2.066  15.618  0.1711  0.2565 -0.1019
13913TIP3    H163154   6.030   2.021  15.568 -0.4524  0.4760  0.5280
13913TIP3    H263155   6.092   2.028  15.706  1.9046 -0.8459 -0.3938
13914TIP3   OH263156   2.344   0.266   2.497 -0.4236 -0.5540  0.1543
13914TIP3    H163157   2.287   0.317   2.555  0.0303  2.4952 -1.7973
13914TIP3    H263158   2.404   0.220   2.555  0.1490  2.4616  2.1684
13915TIP3   OH263159   5.288   3.590  11.849 -0.4626  0.0004  0.6969
13915TIP3    H163160   5.297   3.592  11.944  3.5586  0.4781  0.4762
13915TIP3    H263161   5.283   3.497  11.827 -1.2464 -0.1156  1.3184
13916TIP3   OH263162   5.722   1.041  11.266 -0.6213 -0.0537 -0.2949
13916TIP3    H163163   5.763   1.090  11.337 -0.8367 -0.0670 -0.1599
13916TIP3    H263164   5.762   0.954  11.270  1.2854  0.6701 -1.8224
13917TIP3   OH263165   5.046   2.561  12.457 -0.1958  0.5310 -0.6713
13917TIP3    H163166   5.013   2.649  12.475 -0.3121  0.3063  0.2927
13917TIP3    H263167   5.079   2.531  12.542  0.4390 -0.1023 -1.1398
13918TIP3   OH263168   6.502   1.127  16.442 -0.3891 -0.1435  0.4917
13918TIP3    H163169   6.476   1.156  16.355  0.5539 -0.5117  0.0664
13918TIP3    H263170   6.425   1.081  16.476 -1.1829  1.0674  0.3616
13919TIP3   OH263171   1.445   0.233   2.924 -0.0920  0.5904 -0.4793
13919TIP3    H163172   1.444   0.315   2.973  0.0998  0.4343 -0.2112
13919TIP3    H263173   1.484   0.170   2.984 -0.6332  0.2041 -0.5327
13920TIP3   OH263174   1.583   5.492   5.423 -0.2759 -0.3131  0.1059
13920TIP3    H163175   1.607   5.405   5.454  0.7312 -0.7142 -1.6301
13920TIP3    H263176   1.586   5.548   5.501  0.9837 -1.4588  0.9104
13921TIP3   OH263177   0.373   3.878   1.509  0.0777 -0.1221 -0.4743
13921TIP3    H163178   0.295   3.933   1.516  0.9514  1.0252  0.6136
13921TIP3    H263179   0.354   3.803   1.565 -1.2240 -1.1295 -2.1622
13922TIP3   OH263180   0.858   1.598   2.002 -0.0694 -0.0930  0.4146
13922TIP3    H163181   0.904   1.551   2.071 -1.1812 -2.0395 -0.0968
13922TIP3    H263182   0.858   1.538   1.928 -0.3477  1.2855 -0.7592
13923TIP3   OH263183   2.653   1.544  10.218  0.0644 -0.0986  0.3092
13923TIP3    H163184   2.645   1.550  10.122 -0.5551 -0.3008  0.3443
13923TIP3    H263185   2.603   1.466  10.241 -0.6974  0.5443  0.9055
13924TIP3   OH263186   4.157   2.474  13.177 -0.4131  0.0710  0.6371
13924TIP3    H163187   4.162   2.531  13.254 -0.8388 -1.2815  1.7204
13924TIP3    H263188   4.245   2.437  13.169 -0.7870 -1.1156  1.5868
13925TIP3   OH263189   4.576   5.279   1.417 -0.1434 -0.3027 -0.1243
13925TIP3    H163190   4.508   5.316   1.472 -0.6485 -0.9243 -0.3172
13925TIP3    H263191   4.657   5.289   1.468 -0.3307  0.6495  0.0056
13926TIP3   OH263192   3.373   0.942  13.999  0.1414  0.1131 -0.0960
13926TIP3    H163193   3.372   0.880  13.926  1.6192  0.0623 -0.1009
13926TIP3    H263194   3.412   1.021  13.963 -1.1000  0.8488  0.0923
13927TIP3   OH263195   4.794   4.254  13.760  0.4216  0.0013  0.2432
13927TIP3    H163196   4.798   4.247  13.665  0.5047  1.2285  0.1366
13927TIP3    H263197   4.842   4.178  13.792  0.3937 -0.4204 -0.6926
13928TIP3   OH263198   4.078   6.076   4.773 -0.1083  0.2128  0.0700
13928TIP3    H163199   4.169   6.044   4.774 -0.5078 -0.9811  1.6964
13928TIP3    H263200   4.025   5.998   4.787 -1.4717  0.7927 -1.5395
13929TIP3   OH263201   6.587   0.270   1.281 -0.4047 -0.2942 -0.0899
13929TIP3    H163202   6.623   0.281   1.369 -1.6717 -0.2116  0.4430
13929TIP3    H263203   6.513   0.330   1.279 -2.0936 -2.2871 -0.2131
13930TIP3   OH263204   6.145   6.196   3.857 -0.5094 -0.6178 -0.4164
13930TIP3    H163205   6.130   6.122   3.799 -1.1043 -0.8957  0.0793
13930TIP3    H263206   6.214   6.167   3.916  1.5756  0.3879 -2.2158
13931TIP3   OH263207   4.056   2.093   3.164 -0.3405 -0.5797  0.7974
13931TIP3    H163208   4.030   2.007   3.197 -0.6627  0.2983  2.9603
13931TIP3    H263209   3.974   2.136   3.141 -0.3097 -0.2811  1.2317
13932TIP3   OH263210   3.430   5.496  13.132  0.4395  1.0289 -0.1218
13932TIP3    H163211   3.488   5.422  13.113 -0.4777  0.5039 -0.9822
13932TIP3    H263212   3.349   5.456  13.163 -0.1835  1.6424 -0.9209
13933TIP3   OH263213   6.477   5.314  14.945 -0.2397 -0.0690 -0.0968
13933TIP3    H163214   6.436   5.258  14.879 -0.4135 -0.7935  0.5994
13933TIP3    H263215   6.439   5.400  14.931  0.6308  0.0868 -1.7152
13934TIP3   OH263216   4.715   6.010  15.757 -0.2831 -0.1651  0.0964
13934TIP3    H163217   4.681   6.099  15.756 -1.0642 -0.4603 -0.1064
13934TIP3    H263218   4.758   6.000  15.672 -1.0403 -0.2964 -0.2791
13935TIP3   OH263219   1.773   6.470  14.627  0.7254  0.3825 -0.2555
13935TIP3    H163220   1.830   6.511  14.692  0.6713  0.9365 -0.5486
13935TIP3    H263221   1.685   6.498  14.651  0.4221 -1.3555  0.8511
13936TIP3   OH263222   2.404   4.124  16.821  0.0925  0.2522 -0.3565
13936TIP3    H163223   2.369   4.212  16.840  0.0950  0.2776 -0.4686
13936TIP3    H263224   2.460   4.104  16.896  0.5073  0.5660 -0.5720
13937TIP3   OH263225   5.083   0.450  13.579 -0.0637 -0.0303  0.0640
13937TIP3    H163226   5.049   0.385  13.640  1.4969 -0.3384  0.6575
13937TIP3    H263227   5.047   0.424  13.494 -1.7826  0.0573  0.7340
13938TIP3   OH263228   6.337   3.790   0.213  0.0390  0.7532  0.2889
13938TIP3    H163229   6.251   3.766   0.247 -0.5500  0.7652 -1.1156
13938TIP3    H263230   6.399   3.751   0.275 -0.9634  1.0867  1.5479
13939TIP3   OH263231   2.899   4.237  12.282 -0.0964  0.5536  0.4155
13939TIP3    H163232   2.937   4.264  12.198  1.1435 -0.1171  0.7298
13939TIP3    H263233   2.908   4.315  12.338 -0.0406  0.7000  0.2045
13940TIP3   OH263234   4.802   5.457  11.738 -0.0067 -0.2545  0.0083
13940TIP3    H163235   4.713   5.442  11.705 -0.3898  0.8226  0.5172
13940TIP3    H263236   4.791   5.522  11.807  1.2092  0.0343 -0.0533
13941TIP3   OH263237   3.984   3.884   3.997  0.0912  0.2062 -0.1076
13941TIP3    H163238   4.040   3.948   4.042  0.3781  0.0846 -0.2899
13941TIP3    H263239   3.948   3.831   4.068 -0.2570  0.6571  0.0541
13942TIP3   OH263240   1.465   1.044   6.176 -0.4180  0.5136  0.4195
13942TIP3    H163241   1.498   0.993   6.250 -0.9940 -1.5957 -0.6953
13942TIP3    H263242   1.395   0.990   6.139 -2.2172  2.8979  0.1317
13943TIP3   OH263243   4.684   3.394  13.072  0.2946  0.1356 -0.0283
13943TIP3    H163244   4.647   3.462  13.014  0.0171  1.2205  1.3627
13943TIP3    H263245   4.754   3.354  13.020 -2.5365 -1.8400 -2.7214
13944TIP3   OH263246   1.230   5.600  12.747 -0.0294  0.3568 -0.1198
13944TIP3    H163247   1.144   5.639  12.764 -0.5751 -0.1884 -1.4855
13944TIP3    H263248   1.221   5.509  12.776  0.4068  0.5331  0.6090
13945TIP3   OH263249   1.640   2.984  11.002  0.2748  0.7379 -0.0286
13945TIP3    H163250   1.689   2.954  11.079 -0.1991 -1.0506 -0.3768
13945TIP3    H263251   1.558   2.936  11.006  0.0127  1.0462 -1.3498
13946TIP3   OH263252   5.524   1.173  11.133 -0.4406  0.4360 -0.1285
13946TIP3    H163253   5.590   1.132  11.188  0.0707  0.7519 -0.4955
13946TIP3    H263254   5.574   1.213  11.061 -1.0335  0.6226 -0.4450
13947TIP3   OH263255   6.579   1.680  12.653 -0.0471 -0.5150  0.7724
13947TIP3    H163256   6.554   1.681  12.560 -0.4944 -0.4124  0.8924
13947TIP3    H263257   6.641   1.753  12.662 -2.3362  1.5312  1.1732
13948TIP3   OH263258   2.678   1.385  11.485  0.1034  0.1520  0.2131
13948TIP3    H163259   2.771   1.405  11.472 -0.0384  1.7080  1.3206
13948TIP3    H263260   2.673   1.351  11.575 -0.4204  0.1759  0.1982
13949TIP3   OH263261   1.242   2.958   0.269 -0.0500  0.3036  0.1844
13949TIP3    H163262   1.223   3.051   0.286  2.1358  0.7197  0.6266
13949TIP3    H263263   1.194   2.939   0.189  0.0790  2.0516 -0.3658
13950TIP3   OH263264   0.208   4.080   3.711  0.5244  0.0779 -0.0825
13950TIP3    H163265   0.227   4.102   3.620  1.3111 -2.9519 -0.7762
13950TIP3    H263266   0.236   4.156   3.762  0.6349  1.5899 -2.2907
13951TIP3   OH263267   2.796   2.305   0.447 -0.4146  0.0923 -0.5547
13951TIP3    H163268   2.812   2.379   0.389 -1.7036  2.3085  1.6958
13951TIP3    H263269   2.700   2.294   0.447 -0.7029  1.5532  2.5545
13952TIP3   OH263270   2.797   5.232   6.265 -1.1451  0.0708  0.5321
13952TIP3    H163271   2.886   5.219   6.233 -1.5855  0.3890 -0.8853
13952TIP3    H263272   2.779   5.155   6.319 -0.4118 -0.5462 -0.0889
13953TIP3   OH263273   1.474   2.783  11.283  0.0931 -0.2536  0.9885
13953TIP3    H163274   1.530   2.764  11.357 -1.2208 -1.2452  1.7692
13953TIP3    H263275   1.402   2.835  11.320  0.0109  0.2257  0.1868
13954TIP3   OH263276   0.666   4.328  12.139  0.3894  0.0583 -0.0407
13954TIP3    H163277   0.597   4.334  12.205  2.0909  0.6394  1.7671
13954TIP3    H263278   0.678   4.234  12.126  0.8219 -0.0995  1.3725
13955TIP3   OH263279   4.737   2.663  13.614 -0.4559  0.4335  0.7476
13955TIP3    H163280   4.742   2.569  13.597  0.5366  0.7137 -0.6822
13955TIP3    H263281   4.726   2.703  13.528  0.0502  1.6851  1.2396
13956TIP3   OH263282   0.789   3.324  14.346 -0.3014  0.3216 -0.0835
13956TIP3    H163283   0.721   3.370  14.297 -0.2873  0.4298 -0.0020
13956TIP3    H263284   0.773   3.231  14.329  1.1292  0.3868 -2.2537
13957TIP3   OH263285   0.188   3.038   1.082  0.0463  1.5350  0.8641
13957TIP3    H163286   0.250   2.976   1.119 -0.5676  0.1316 -0.3734
13957TIP3    H263287   0.135   3.066   1.157  0.4246  0.6848  1.4651
13958TIP3   OH263288   1.766   0.764  15.221 -0.6682  0.0591  0.1247
13958TIP3    H163289   1.693   0.742  15.164 -0.8386  1.2235 -0.1337
13958TIP3    H263290   1.726   0.774  15.308 -1.2279  2.5720 -0.3259
13959TIP3   OH263291   0.256   3.007  16.111  0.7716 -0.0696  0.0805
13959TIP3    H163292   0.289   2.923  16.142  0.5332  0.5676  2.2162
13959TIP3    H263293   0.274   3.007  16.017  0.1265 -2.7943 -0.1281
13960TIP3   OH263294   4.051   3.327  11.527  0.4298  0.1035 -0.2194
13960TIP3    H163295   4.021   3.239  11.547  0.4028 -0.1898 -1.4845
13960TIP3    H263296   3.971   3.377  11.512  0.4104  0.5433  1.1745
13961TIP3   OH263297   2.912   4.667   3.369  0.0315 -0.4784  0.6307
13961TIP3    H163298   2.844   4.734   3.380  0.7507  0.6119 -1.2516
13961TIP3    H263299   2.960   4.668   3.452  0.4183  1.8380  0.4481
13962TIP3   OH263300   1.137   4.268   1.774 -0.0027 -0.3004 -0.1259
13962TIP3    H163301   1.064   4.320   1.739 -1.4685 -1.1762  1.4797
13962TIP3    H263302   1.153   4.305   1.861  0.6916 -0.8631 -0.0055
13963TIP3   OH263303   1.563   0.021   3.075 -0.7203  0.5555  0.0656
13963TIP3    H163304   1.599  -0.067   3.090 -0.2647  1.0240  2.0159
13963TIP3    H263305   1.545   0.054   3.163 -1.5966  2.1360 -0.6819
13964TIP3   OH263306   5.612   6.729   0.742  0.0937  0.1267 -0.1425
13964TIP3    H163307   5.518   6.720   0.753  0.1954  0.2489  0.9683
13964TIP3    H263308   5.646   6.640   0.751  0.1253  0.1474 -0.0537
13965TIP3   OH263309   3.903   6.057   2.567  0.3256 -0.2527  0.3902
13965TIP3    H163310   3.998   6.062   2.554  0.7557 -1.7008  2.3977
13965TIP3    H263311   3.887   6.109   2.646 -0.7326  0.7304 -0.4283
13966TIP3   OH263312   2.716   6.245  14.223 -0.5453 -0.0794 -0.0948
13966TIP3    H163313   2.702   6.188  14.299  0.6167 -0.3156 -0.0353
13966TIP3    H263314   2.636   6.297  14.217 -0.7851 -0.2666  1.1187
13967TIP3   OH263315   3.311   2.978  15.065 -0.2808  0.7166 -0.6623
13967TIP3    H163316   3.312   3.052  15.004  2.4671 -0.9111 -2.8430
13967TIP3    H263317   3.230   2.931  15.046 -0.2717  1.1651 -1.8752
13968TIP3   OH263318   0.706   0.041  11.935  0.1380 -0.5405 -0.7626
13968TIP3    H163319   0.656   0.019  12.014  2.4274 -0.4662  0.7868
13968TIP3    H263320   0.736  -0.044  11.902  0.9467 -0.4428 -0.3046
13969TIP3   OH263321   2.158   1.520  16.921  0.3503  0.0521 -0.2941
13969TIP3    H163322   2.248   1.551  16.923 -0.2288  1.8716 -0.1694
13969TIP3    H263323   2.112   1.575  16.985 -0.3071 -2.8678  1.9777
13970TIP3   OH263324   0.623   3.535  14.939 -0.1716  0.3954  0.6481
13970TIP3    H163325   0.574   3.592  14.999 -1.0427 -2.3097  2.6878
13970TIP3    H263326   0.570   3.533  14.859  0.2785  2.9496  0.1973
13971TIP3   OH263327   5.831   2.471   3.515 -0.2780 -0.2923 -0.0607
13971TIP3    H163328   5.791   2.424   3.442 -0.9502 -1.1676  0.8461
13971TIP3    H263329   5.879   2.403   3.564  0.2230  0.2931  0.2779
13972TIP3   OH263330   0.717   4.407  14.587 -0.5645  0.1438  0.1843
13972TIP3    H163331   0.654   4.364  14.529  0.5902 -0.4957 -0.6424
13972TIP3    H263332   0.687   4.498  14.592 -1.0276  0.0700 -0.9530
13973TIP3   OH263333   2.023   0.693   4.991  0.2316 -0.0908 -0.6017
13973TIP3    H163334   1.962   0.620   4.980  0.0116 -0.5497  2.5543
13973TIP3    H263335   2.024   0.709   5.085  2.3925  2.1938 -0.9000
13974TIP3   OH263336   0.848   4.197  13.142 -0.4312  0.2154 -0.7976
13974TIP3    H163337   0.915   4.233  13.201 -1.0157  0.5685 -0.3383
13974TIP3    H263338   0.898   4.165  13.066  0.3805 -0.6936  0.0888
13975TIP3   OH263339   3.073   6.474   1.015 -0.1571 -0.3650 -0.2881
13975TIP3    H163340   3.013   6.464   0.942 -1.4922  2.1294  0.3257
13975TIP3    H263341   3.151   6.516   0.977  0.6280 -2.2298 -0.8210
13976TIP3   OH263342   1.586   2.553   4.414  0.2189  0.6321  0.1483
13976TIP3    H163343   1.611   2.493   4.344 -1.1631  0.2019 -0.0161
13976TIP3    H263344   1.536   2.498   4.475  1.1987  1.0486  1.3662
13977TIP3   OH263345   5.349   3.454   4.204  0.0612 -0.2987 -0.4914
13977TIP3    H163346   5.374   3.395   4.133 -0.8267  2.4427 -3.3050
13977TIP3    H263347   5.253   3.458   4.199  0.1279  2.0174 -1.0804
13978TIP3   OH263348   0.081   3.019   4.020 -0.0996  0.8068 -1.0110
13978TIP3    H163349   0.022   3.094   4.024 -0.6486  0.3181  0.9466
13978TIP3    H263350   0.157   3.045   4.072 -1.8219 -1.1697  2.8601
13979TIP3   OH263351   3.365   5.458  12.182  0.3082  0.6007 -0.9807
13979TIP3    H163352   3.392   5.434  12.271 -0.5662  2.1064 -0.2693
13979TIP3    H263353   3.269   5.461  12.186  0.0492 -1.9357 -2.7236
13980TIP3   OH263354   3.702   5.665  16.309 -0.0751 -0.3057 -0.4644
13980TIP3    H163355   3.655   5.714  16.242 -2.0574  1.6990  2.1510
13980TIP3    H263356   3.776   5.625  16.263 -0.2882  2.3661 -3.4539
13981TIP3   OH263357   6.453   4.755   1.212  0.0710 -0.0229 -0.6443
13981TIP3    H163358   6.509   4.772   1.288 -0.9313  0.4901 -0.0070
13981TIP3    H263359   6.461   4.660   1.198  1.2090  0.0654 -0.6589
13982TIP3   OH263360   4.032   6.404   2.283 -0.3012  0.1520 -0.1440
13982TIP3    H163361   3.970   6.331   2.281 -0.8565  0.6089  0.1038
13982TIP3    H263362   4.091   6.388   2.209  0.4344 -1.2826  0.7194
13983TIP3   OH263363   2.643   3.165   1.103 -0.1207  0.0278 -0.0510
13983TIP3    H163364   2.597   3.233   1.153 -0.5317 -2.0756  2.6557
13983TIP3    H263365   2.591   3.086   1.117  1.7018 -1.4032 -0.9683
13984TIP3   OH263366   1.136   6.081  13.935  0.0364 -0.2848 -0.3006
13984TIP3    H163367   1.231   6.072  13.924  0.1006  0.1739 -0.1302
13984TIP3    H263368   1.105   6.110  13.849  0.4474  2.5829  0.4196
13985TIP3   OH263369   4.682   4.986   3.033  1.0335  0.6065 -0.6478
13985TIP3    H163370   4.608   5.040   3.006 -0.0582 -0.7158 -0.4230
13985TIP3    H263371   4.698   4.929   2.957  0.1885 -0.7727  0.1509
13986TIP3   OH263372   3.088   2.284   5.123  0.3635  0.0245 -0.1700
13986TIP3    H163373   3.083   2.192   5.147 -0.6255 -0.8904 -3.4482
13986TIP3    H263374   3.158   2.289   5.059 -0.2891  1.3458 -0.8314
13987TIP3   OH263375   0.671   2.577   0.654  0.8314  0.0856 -0.0661
13987TIP3    H163376   0.578   2.598   0.661  0.5848 -0.3331 -1.7326
13987TIP3    H263377   0.715   2.656   0.685 -0.0794  0.6111 -0.0627
13988TIP3   OH263378   4.553   5.703   2.298  0.6109 -0.5246 -0.4048
13988TIP3    H163379   4.567   5.791   2.331  0.6579 -0.0751 -1.5697
13988TIP3    H263380   4.513   5.716   2.211 -0.2775 -1.6629 -0.1908
13989TIP3   OH263381   6.295   1.044  12.683 -0.9701 -0.4488 -0.1961
13989TIP3    H163382   6.286   1.083  12.596 -2.3669  0.1037  0.1657
13989TIP3    H263383   6.237   1.096  12.739 -1.6612 -2.0436  0.6411
13990TIP3   OH263384   5.290   5.109   5.709 -0.2657  0.0333 -0.6463
13990TIP3    H163385   5.273   5.023   5.669  1.4165  0.0008 -1.3449
13990TIP3    H263386   5.230   5.168   5.664 -1.2903 -0.7112 -0.3101
13991TIP3   OH263387   3.339   1.184   2.572  0.2165 -0.2525  0.2440
13991TIP3    H163388   3.317   1.095   2.599  2.8789 -0.8540  0.6415
13991TIP3    H263389   3.254   1.227   2.560 -1.1211 -2.6177  0.7174
13992TIP3   OH263390   2.943   0.954   2.644  0.4210 -0.0984 -0.8438
13992TIP3    H163391   2.977   0.907   2.720  0.8626  0.5990 -0.6084
13992TIP3    H263392   2.853   0.976   2.668  0.7655  0.7066 -0.2379
13993TIP3   OH263393   1.913   6.662   1.817 -0.0137 -0.5547 -0.2202
13993TIP3    H163394   1.838   6.683   1.872  0.3236 -0.2876  0.1439
13993TIP3    H263395   1.885   6.686   1.728 -0.2797 -0.2591 -0.0589
13994TIP3   OH263396   2.986   3.853  12.013 -0.0104 -0.4277  0.3566
13994TIP3    H163397   2.897   3.817  12.012  0.0304 -0.5453  0.7717
13994TIP3    H263398   2.986   3.920  11.945 -0.2235 -0.8923 -0.1009
13995TIP3   OH263399   3.845   3.493  14.578  0.5155  0.2151 -0.0573
13995TIP3    H163400   3.790   3.421  14.609  1.2819 -0.4563 -0.2384
13995TIP3    H263401   3.934   3.461  14.586  0.9378  1.4924  0.7739
13996TIP3   OH263402   4.361   0.716   3.386  0.0519  0.0941  0.4142
13996TIP3    H163403   4.382   0.810   3.392 -3.3728  0.9086  1.8992
13996TIP3    H263404   4.430   0.674   3.438  0.7091  1.9818  1.1772
13997TIP3   OH263405   1.431   6.125  13.310  0.4647  0.2046  0.4378
13997TIP3    H163406   1.359   6.138  13.248 -1.6155  2.2620  3.0508
13997TIP3    H263407   1.419   6.036  13.343  0.7661 -0.4094 -1.0169
13998TIP3   OH263408   0.894   4.467  11.744  0.1658 -0.4255 -0.3751
13998TIP3    H163409   0.892   4.382  11.787  0.2532 -0.5966 -0.7108
13998TIP3    H263410   0.969   4.463  11.685  0.1006 -0.1582 -0.4794
13999TIP3   OH263411   5.228   0.479  13.154  0.0794 -0.2484 -1.2044
13999TIP3    H163412   5.146   0.469  13.203 -0.0843  1.1878 -1.1307
13999TIP3    H263413   5.202   0.513  13.069  0.6275  1.2654 -0.8162
14000TIP3   OH263414   4.350   6.375  11.474  0.5402  0.5700 -0.4035
14000TIP3    H163415   4.358   6.302  11.413  0.7197  0.2506 -0.0010
14000TIP3    H263416   4.313   6.446  11.421 -1.2458 -0.3040 -0.4141
14001TIP3   OH263417   0.772   5.138   0.217 -0.0227  0.3202  0.0433
14001TIP3    H163418   0.749   5.174   0.131  0.9045 -1.4742 -1.0050
14001TIP3    H263419   0.694   5.151   0.270 -0.5982  1.5075 -1.0443
14002TIP3   OH263420   1.154   6.069   5.094  0.3465  0.2198  0.1474
14002TIP3    H163421   1.228   6.010   5.105 -0.1384 -0.6898 -1.2106
14002TIP3    H263422   1.092   6.043   5.163  1.9260  2.1470  2.4573
14003TIP3   OH263423   1.530   4.700   1.052 -0.5381 -0.4783 -0.3651
14003TIP3    H163424   1.441   4.733   1.056  0.0078  1.2110 -0.9532
14003TIP3    H263425   1.556   4.713   0.961  0.2842 -0.9959 -0.2164
14004TIP3   OH263426   0.658   1.357  15.971 -0.7598 -0.2585  0.4519
14004TIP3    H163427   0.611   1.381  15.891 -0.6876  0.0305  0.4914
14004TIP3    H263428   0.667   1.262  15.967 -4.0409 -0.7599  1.9203
14005TIP3   OH263429   1.646   0.116  13.991  0.0690  0.4668  0.1412
14005TIP3    H163430   1.610   0.130  13.904  0.3935  2.2600  0.2524
14005TIP3    H263431   1.608   0.033  14.020 -0.4406  0.0969 -1.4865
14006TIP3   OH263432   2.899   4.148   1.628 -0.3340  0.1538  0.5519
14006TIP3    H163433   2.937   4.065   1.598 -0.5552  0.6764 -1.3440
14006TIP3    H263434   2.971   4.211   1.623 -0.3421  0.2327  1.3059
14007TIP3   OH263435   2.823   0.561   4.336  0.2268  0.3414 -0.6766
14007TIP3    H163436   2.815   0.592   4.427 -1.6941 -3.0189  0.4808
14007TIP3    H263437   2.900   0.505   4.337 -1.0361 -1.4872 -0.4146
14008TIP3   OH263438   2.745   3.024  15.829 -0.2794  0.1825 -0.1286
14008TIP3    H163439   2.728   2.932  15.807 -1.2643 -0.0956  1.6137
14008TIP3    H263440   2.800   3.020  15.907  1.3360  1.1097 -1.1789
14009TIP3   OH263441   3.839   2.041  12.736  0.2862  0.6077  0.1125
14009TIP3    H163442   3.913   2.093  12.702  1.5599 -2.1545 -1.6781
14009TIP3    H263443   3.873   2.002  12.817  1.1511 -1.2494 -1.0901
14010TIP3   OH263444   3.301   2.053  15.745  1.2468  0.4341 -0.1250
14010TIP3    H163445   3.376   1.996  15.730  1.2823  0.7174 -1.0742
14010TIP3    H263446   3.275   2.082  15.658  0.0499  0.3659  0.1890
14011TIP3   OH263447   0.817   0.515   5.872 -0.3998  0.4270  0.2095
14011TIP3    H163448   0.754   0.480   5.935 -0.8902  2.3474  0.8563
14011TIP3    H263449   0.764   0.547   5.799 -0.1543  1.5096  0.4850
14012TIP3   OH263450   5.129   0.294  15.485  0.2881  0.2046  0.9121
14012TIP3    H163451   5.151   0.202  15.502 -0.1987 -0.0859  0.0204
14012TIP3    H263452   5.050   0.309  15.537 -0.0287 -0.0875  0.5198
14013TIP3   OH263453   3.091   5.271   0.307 -0.4305  0.6535  0.0387
14013TIP3    H163454   3.077   5.201   0.371  0.2755 -0.2070 -0.7220
14013TIP3    H263455   3.008   5.277   0.259  0.1878 -1.2701 -1.4069
14014TIP3   OH263456   5.931   1.569  11.469  0.3069 -0.4722 -0.1758
14014TIP3    H163457   5.947   1.618  11.388  1.8135 -0.7013 -0.0368
14014TIP3    H263458   5.988   1.611  11.534 -2.5215  1.2044  1.4180
14015TIP3   OH263459   3.861   4.350  14.383 -0.3487  0.0818 -0.0882
14015TIP3    H163460   3.947   4.390  14.396 -0.4585  0.2890  0.0019
14015TIP3    H263461   3.848   4.351  14.289  0.1297 -0.7524 -0.1816
14016TIP3   OH263462   1.095   3.494  14.940  0.6262 -0.0156  0.4515
14016TIP3    H163463   1.168   3.540  14.981 -0.2126  0.5574  1.3335
14016TIP3    H263464   1.019   3.549  14.957 -0.6936 -2.3333  2.7360
14017TIP3   OH263465   6.210   6.049   6.214  0.1687 -0.2197 -0.0214
14017TIP3    H163466   6.176   6.129   6.254  1.2893  0.3807 -0.2531
14017TIP3    H263467   6.305   6.055   6.223  0.2812 -1.4833 -0.1283
14018TIP3   OH263468   2.186   2.725   3.421  0.1904 -0.2540  0.5725
14018TIP3    H163469   2.186   2.776   3.341  0.0025 -2.2873 -0.8063
14018TIP3    H263470   2.193   2.789   3.491 -0.7792  1.6729 -1.0134
14019TIP3   OH263471   5.791   3.547  14.529 -0.4663 -0.6884  0.2549
14019TIP3    H163472   5.714   3.523  14.477  0.1990 -2.9805  0.1995
14019TIP3    H263473   5.849   3.472  14.521  1.4718  0.6584  0.9279
14020TIP3   OH263474   3.233   6.355   3.746 -0.2920 -0.4823  0.6510
14020TIP3    H163475   3.246   6.329   3.654 -0.5731 -0.2927  0.5561
14020TIP3    H263476   3.222   6.450   3.742 -1.5293 -0.6049  0.7404
14021TIP3   OH263477   5.027   4.858  14.778 -0.2901 -0.0309  0.1723
14021TIP3    H163478   5.116   4.887  14.799  0.8159 -3.0045  0.1358
14021TIP3    H263479   5.003   4.909  14.701  1.2148  1.1323  0.4188
14022TIP3   OH263480   1.692   0.845  14.106  0.2540  0.0842  0.5986
14022TIP3    H163481   1.690   0.831  14.201  1.1174  2.4224  1.0312
14022TIP3    H263482   1.783   0.868  14.088  0.1140 -0.4204 -0.8424
14023TIP3   OH263483   4.234   6.719  12.064  0.0365 -0.0282  0.1517
14023TIP3    H163484   4.234   6.624  12.076  0.7934  0.0200  0.6003
14023TIP3    H263485   4.316   6.738  12.019  1.1907  0.6526  2.3962
14024TIP3   OH263486   4.054   4.635   3.116  0.0393  0.0740 -0.1829
14024TIP3    H163487   4.033   4.606   3.204 -1.9100 -2.5954 -1.3919
14024TIP3    H263488   4.150   4.630   3.111  0.1624  0.1040  1.6899
14025TIP3   OH263489   1.322   0.456   3.062 -0.4188  0.0521  0.1694
14025TIP3    H163490   1.255   0.390   3.077 -1.1933  0.9959  0.9966
14025TIP3    H263491   1.300   0.528   3.122  0.5405  0.9587 -0.5129
14026TIP3   OH263492   6.233   3.651  11.131 -0.0878 -0.1577  0.2419
14026TIP3    H163493   6.263   3.669  11.043 -1.9882  0.1423 -0.3867
14026TIP3    H263494   6.260   3.727  11.182  0.1042  0.1496 -0.3124
14027TIP3   OH263495   3.760   5.822  13.267  0.5571  0.1486 -0.1803
14027TIP3    H163496   3.809   5.852  13.191  1.5401  1.0571  0.7824
14027TIP3    H263497   3.741   5.902  13.317 -0.4515 -0.3774  0.3175
14028TIP3   OH263498   2.047   3.298  12.773  0.4373  0.0979 -0.2519
14028TIP3    H163499   1.956   3.327  12.768  0.5769  0.4563 -0.8571
14028TIP3    H263500   2.096   3.364  12.725  0.9892 -0.2167 -0.1353
14029TIP3   OH263501   2.583   3.136  13.036 -0.6577 -0.7492 -0.7647
14029TIP3    H163502   2.604   3.104  12.948 -0.1935 -2.2439 -0.1432
14029TIP3    H263503   2.662   3.119  13.087 -1.1634 -0.5626  0.1035
14030TIP3   OH263504   6.582   5.344  16.518  0.0884 -0.1159 -0.6106
14030TIP3    H163505   6.507   5.404  16.524  1.2762  1.3095  1.0879
14030TIP3    H263506   6.547   5.258  16.542 -1.1206  0.4115 -0.4485
14031TIP3   OH263507   0.101   6.285   5.532 -0.6133  0.1955  0.0388
14031TIP3    H163508   0.017   6.326   5.553 -0.3722 -0.6141  2.8859
14031TIP3    H263509   0.167   6.349   5.557 -0.3227 -0.3265  0.6274
14032TIP3   OH263510   5.045   0.615  14.147 -0.1006  0.0227 -1.0531
14032TIP3    H163511   4.958   0.584  14.173  0.8595 -2.0245 -0.0627
14032TIP3    H263512   5.047   0.600  14.052 -0.4610 -0.9465 -0.9230
14033TIP3   OH263513   3.323   3.070  11.730 -0.1805 -0.0731  0.0930
14033TIP3    H163514   3.327   3.165  11.734 -3.1840  0.1248  0.1322
14033TIP3    H263515   3.341   3.041  11.820 -0.2341  0.4963  0.2892
14034TIP3   OH263516   3.946   3.243   1.832  0.2057  0.0264 -0.1851
14034TIP3    H163517   4.017   3.307   1.838  0.7449 -0.4136 -1.5659
14034TIP3    H263518   3.890   3.276   1.762 -0.1855 -0.3856 -0.0689
14035TIP3   OH263519   4.084   6.420  15.975 -0.0584  0.8933  0.2368
14035TIP3    H163520   3.988   6.424  15.977 -0.0443  1.8551 -0.1190
14035TIP3    H263521   4.109   6.378  16.057 -0.8223 -0.3696 -0.1599
14036TIP3   OH263522   0.539   2.345  13.432  0.5182 -0.3838 -0.2864
14036TIP3    H163523   0.487   2.336  13.512  1.0725  0.2766  0.1638
14036TIP3    H263524   0.538   2.258  13.392 -0.9804 -0.3800 -0.3283
14037TIP3   OH263525   6.418   5.343  13.724 -0.4033  0.3318  0.1445
14037TIP3    H163526   6.478   5.376  13.790 -0.1498  0.3113 -0.0710
14037TIP3    H263527   6.343   5.402  13.727  0.5371  1.6563 -1.0310
14038TIP3   OH263528   2.333   2.096   3.971  0.0813  0.6796  0.6471
14038TIP3    H163529   2.309   2.062   3.885 -1.5530 -0.8071  1.6265
14038TIP3    H263530   2.323   2.021   4.030  1.2322  1.6396  2.1467
14039TIP3   OH263531   1.439   0.746   1.158 -0.0826  0.3087 -0.0838
14039TIP3    H163532   1.483   0.728   1.241  1.1729  3.0978 -0.0319
14039TIP3    H263533   1.502   0.717   1.091 -0.3239 -0.2628 -0.0711
14040TIP3   OH263534   1.850   0.902   4.381  0.3644 -0.3891  0.1740
14040TIP3    H163535   1.812   0.979   4.339  0.2891 -0.2313  0.5240
14040TIP3    H263536   1.919   0.937   4.438 -0.0745 -0.5223  0.7921
14041TIP3   OH263537   2.395   5.751   5.199  0.4279  0.6981  0.4599
14041TIP3    H163538   2.348   5.751   5.283 -1.0105 -0.3149 -0.2938
14041TIP3    H263539   2.357   5.824   5.150 -0.5951 -0.2879 -0.2543
14042TIP3   OH263540   4.474   0.326  16.533  0.1621  0.1031  0.3686
14042TIP3    H163541   4.562   0.324  16.571  0.9624  0.8960 -1.3398
14042TIP3    H263542   4.474   0.257  16.468 -0.1578  0.7114 -0.2855
14043TIP3   OH263543   0.038   5.542   6.143 -0.0765 -0.0334 -0.5510
14043TIP3    H163544   0.031   5.447   6.150 -0.3123 -0.1516 -2.0721
14043TIP3    H263545   0.131   5.560   6.159  0.0446 -0.5622 -0.6267
14044TIP3   OH263546   2.231   2.986   1.091 -0.5255 -0.3027  0.0109
14044TIP3    H163547   2.166   2.977   1.021  1.2593 -1.4455 -1.5870
14044TIP3    H263548   2.185   2.954   1.169 -3.5365  3.6724  0.1537
14045TIP3   OH263549   5.325   1.564  11.617  0.7074  0.6985  0.8661
14045TIP3    H163550   5.293   1.477  11.593 -2.7540  1.9749  0.2267
14045TIP3    H263551   5.305   1.618  11.541  1.2879  2.4023  1.8712
14046TIP3   OH263552   1.051   6.190  12.153  0.0684 -0.3233  0.5688
14046TIP3    H163553   1.048   6.215  12.246  0.1587  0.1287  0.4536
14046TIP3    H263554   1.138   6.217  12.124 -0.6522  1.4114 -0.1498
14047TIP3   OH263555   5.111   2.225   4.537  0.3285 -0.4722  0.0812
14047TIP3    H163556   5.053   2.232   4.613  0.8731  0.8323  0.4022
14047TIP3    H263557   5.055   2.189   4.468 -0.9882  1.0869  0.2664
14048TIP3   OH263558   4.325   3.047  15.356 -0.0028 -0.1547 -0.5991
14048TIP3    H163559   4.388   3.102  15.309  0.2188  0.0709 -0.0381
14048TIP3    H263560   4.377   2.975  15.391  0.0773  0.4038  0.4671
14049TIP3   OH263561   6.673   4.805  14.441  0.3173  0.0810 -0.2259
14049TIP3    H163562   6.699   4.770  14.526 -0.9715  0.4286  0.3468
14049TIP3    H263563   6.668   4.900  14.455  2.6832  0.4509 -1.4496
14050TIP3   OH263564   0.820   1.924   5.333  0.8284 -0.3869 -0.2012
14050TIP3    H163565   0.868   1.853   5.291  4.2587  0.3522  2.0369
14050TIP3    H263566   0.865   2.003   5.304  0.0551  0.5019  0.9363
14051TIP3   OH263567   3.894   5.850   4.471  0.1192  0.1957 -0.3820
14051TIP3    H163568   3.960   5.780   4.477 -0.2936 -0.1139  0.9183
14051TIP3    H263569   3.915   5.896   4.389  0.4644 -1.3789 -1.2200
14052TIP3   OH263570   1.507   4.562   1.433 -0.8286  0.2275 -0.3569
14052TIP3    H163571   1.457   4.480   1.430 -1.3238  0.5389 -0.7911
14052TIP3    H263572   1.442   4.630   1.418 -0.8664  0.9221  2.4139
14053TIP3   OH263573   3.159   1.307  15.929 -0.2463 -0.4395  0.2375
14053TIP3    H163574   3.135   1.384  15.877  0.4399 -0.6661 -0.4417
14053TIP3    H263575   3.166   1.340  16.018  0.4200  0.3909 -0.0982
14054TIP3   OH263576   2.184   3.054  13.872  0.4628 -0.4939 -0.4129
14054TIP3    H163577   2.142   3.056  13.959  0.9154 -0.4035 -0.1946
14054TIP3    H263578   2.209   3.145  13.856  0.4138 -0.5174 -0.6248
14055TIP3   OH263579   2.103   2.756  10.297 -0.0428 -0.3026 -0.1714
14055TIP3    H163580   2.169   2.691  10.275 -0.8865 -0.5278 -2.4175
14055TIP3    H263581   2.151   2.828  10.336  1.2223 -1.3266  0.2023
14056TIP3   OH263582   6.547   6.582  11.703 -0.4159  0.3383  0.1660
14056TIP3    H163583   6.549   6.596  11.608 -1.1409  0.0661  0.1093
14056TIP3    H263584   6.479   6.517  11.717 -0.0993  0.1415  0.8519
14057TIP3   OH263585   1.963   3.672  15.914  0.7927  0.2987  0.4212
14057TIP3    H163586   1.922   3.759  15.911  0.9278  0.3476 -0.2319
14057TIP3    H263587   1.891   3.612  15.930  0.4839  0.4027 -0.5300
14058TIP3   OH263588   3.189   0.652   2.911  0.4507 -1.0041 -0.0652
14058TIP3    H163589   3.154   0.670   2.998 -1.9495  0.9537 -1.2773
14058TIP3    H263590   3.275   0.694   2.910 -0.4416  0.9812  0.7133
14059TIP3   OH263591   1.822   2.206   1.943 -0.1564  0.3805  0.2057
14059TIP3    H163592   1.888   2.199   1.874  0.8860 -0.0548  1.2280
14059TIP3    H263593   1.832   2.295   1.977 -2.1047  1.3603 -1.5737
14060TIP3   OH263594   0.659   3.040  16.353  0.2611 -0.6632 -0.1664
14060TIP3    H163595   0.624   3.127  16.332  1.7793  0.1133  0.4029
14060TIP3    H263596   0.744   3.057  16.393  1.2986 -2.4760 -1.4563
14061TIP3   OH263597   5.482   6.769   1.050 -0.7477 -0.9715 -0.5722
14061TIP3    H163598   5.455   6.800   0.963  0.5364 -0.0028 -0.6651
14061TIP3    H263599   5.574   6.744   1.038  0.3810  1.9192  1.0924
14062TIP3   OH263600   0.120   1.453  10.769  0.6248 -0.2495 -0.4574
14062TIP3    H163601   0.137   1.499  10.852  0.8423  0.3182 -0.8135
14062TIP3    H263602   0.026   1.462  10.756  0.7925  0.8826 -0.9766
14063TIP3   OH263603   0.686   6.371  16.918 -0.0815  0.0096  0.2571
14063TIP3    H163604   0.734   6.360  16.836 -0.1977 -0.2650  0.2228
14063TIP3    H263605   0.600   6.331  16.900 -0.1831  0.1467  0.4403
14064TIP3   OH263606   5.224   1.410   5.327 -0.0190  0.2166  0.0456
14064TIP3    H163607   5.229   1.410   5.231 -2.4981 -1.6846 -0.1803
14064TIP3    H263608   5.159   1.477   5.348  0.6861  0.7897  0.4356
14065TIP3   OH263609   1.878   0.141  13.680  0.1582  0.5772 -0.0519
14065TIP3    H163610   1.784   0.126  13.676  0.1530  0.7961 -0.8131
14065TIP3    H263611   1.917   0.058  13.651  0.1805  0.8695 -0.8667
14066TIP3   OH263612   0.065   1.998   4.559  0.3192  0.2211  0.1573
14066TIP3    H163613   0.106   2.081   4.535 -1.4403  0.4833 -2.4361
14066TIP3    H263614   0.011   2.019   4.635  1.0071  1.1059  0.4146
14067TIP3   OH263615   6.732   5.255   0.313  0.0126  0.4769  0.5948
14067TIP3    H163616   6.721   5.348   0.332 -0.8156  0.4811  0.1599
14067TIP3    H263617   6.824   5.246   0.286  0.2744  1.0428  1.2800
14068TIP3   OH263618   0.955   5.593   4.529 -0.1262  0.2742 -0.6697
14068TIP3    H163619   1.042   5.589   4.570 -0.8954 -2.1420  0.9395
14068TIP3    H263620   0.901   5.638   4.594 -0.1213  1.8103 -1.6868
14069TIP3   OH263621   1.961   1.558  16.027  0.0306 -0.6225  0.0569
14069TIP3    H163622   1.985   1.552  15.934  0.7757  0.7089  0.1298
14069TIP3    H263623   1.997   1.642  16.055 -0.3329 -0.9297  1.5196
14070TIP3   OH263624   4.000   1.498   0.487 -0.4599  0.3505  0.0954
14070TIP3    H163625   4.072   1.446   0.450 -0.1435  0.9199 -0.1022
14070TIP3    H263626   3.984   1.459   0.573 -1.2094 -1.0064 -0.6213
14071TIP3   OH263627   0.097   3.832  12.923 -0.8319 -0.1903  0.0121
14071TIP3    H163628   0.177   3.785  12.944 -0.6972 -0.3030 -0.7368
14071TIP3    H263629   0.031   3.764  12.909 -0.8293 -0.1308 -0.2945
14072TIP3   OH263630   5.310   6.472  14.471 -0.3167  0.5002 -0.5441
14072TIP3    H163631   5.352   6.558  14.477  0.3655  0.2032 -0.8873
14072TIP3    H263632   5.232   6.478  14.526 -0.2565  1.3281 -0.5470
14073TIP3   OH263633   3.654   2.730  14.379  0.6996 -0.2474  0.2395
14073TIP3    H163634   3.560   2.709  14.378  0.3613  1.1669 -0.8663
14073TIP3    H263635   3.682   2.712  14.468 -0.5666 -0.9703  0.5060
14074TIP3   OH263636   1.447   2.535   5.091  0.6553 -0.0529 -0.2750
14074TIP3    H163637   1.362   2.489   5.089  0.1090  0.9299 -0.3919
14074TIP3    H263638   1.507   2.475   5.047 -0.5971  0.3833 -2.8062
14075TIP3   OH263639   5.399   1.792  13.953 -0.1845 -0.6200  0.2578
14075TIP3    H163640   5.469   1.825  13.897 -0.6310  0.4974  0.3334
14075TIP3    H263641   5.347   1.869  13.975 -1.0278 -1.3161  0.7902
14076TIP3   OH263642   0.359   1.936   2.098 -0.1909  0.5228  0.5620
14076TIP3    H163643   0.326   2.022   2.070 -0.9187  0.3955  1.0144
14076TIP3    H263644   0.428   1.916   2.035  0.7358  1.9312  1.0605
14077TIP3   OH263645   0.271   5.259   4.366  0.2771 -0.4040 -0.1135
14077TIP3    H163646   0.222   5.338   4.390 -3.1132 -2.5373  0.7528
14077TIP3    H263647   0.324   5.239   4.443 -0.1021  0.1385  0.2974
14078TIP3   OH263648   0.039   3.371   3.450 -0.6314 -0.0865 -0.1589
14078TIP3    H163649   0.047   3.320   3.531  1.3207 -0.7085 -0.6918
14078TIP3    H263650  -0.043   3.420   3.461 -1.7877 -2.1209  1.0517
14079TIP3   OH263651   1.341   1.872   0.980 -0.3346 -0.0267  0.4783
14079TIP3    H163652   1.340   1.959   0.941  2.0025 -0.2986 -0.3294
14079TIP3    H263653   1.371   1.814   0.910  0.1348 -1.1583  1.5731
14080TIP3   OH263654   0.415   4.062   5.017  0.3641 -0.4387  0.1322
14080TIP3    H163655   0.331   4.067   4.972  0.6621 -1.8680 -0.6640
14080TIP3    H263656   0.459   4.145   4.998 -0.5812  0.0363 -0.0060
14081TIP3   OH263657   2.865   5.051   1.376 -0.5083 -0.1271 -0.0505
14081TIP3    H163658   2.925   4.979   1.361 -0.0088  0.2487  0.1034
14081TIP3    H263659   2.780   5.010   1.392 -1.2518 -0.6166 -4.1764
14082TIP3   OH263660   1.567   0.830  13.180  0.0525 -0.1968  0.3361
14082TIP3    H163661   1.640   0.858  13.124 -1.0569  2.1576 -0.0647
14082TIP3    H263662   1.489   0.851  13.129 -0.9993  1.6673  2.5286
14083TIP3   OH263663   2.784   2.492  11.732 -0.0746  0.4949 -0.3749
14083TIP3    H163664   2.792   2.514  11.825  0.1147  1.0108 -0.5116
14083TIP3    H263665   2.873   2.499  11.698 -0.0452 -0.2444 -0.4828
14084TIP3   OH263666   4.570   0.796   4.011 -0.0379  0.1536  0.4141
14084TIP3    H163667   4.560   0.723   4.072  0.6111  0.3722  0.7884
14084TIP3    H263668   4.480   0.825   3.994 -0.2871 -0.6413  0.3679
14085TIP3   OH263669   0.655   4.318  13.699 -0.3799  0.0664 -0.2471
14085TIP3    H163670   0.588   4.373  13.658 -1.1165 -0.7644 -0.1882
14085TIP3    H263671   0.611   4.234  13.713  0.1143  0.0712  1.4653
14086TIP3   OH263672   6.252   3.968   4.910  0.1278 -0.5140  0.2822
14086TIP3    H163673   6.301   3.889   4.930  0.5793  0.0521  1.4674
14086TIP3    H263674   6.218   3.953   4.822  1.1652 -1.5387  0.0348
14087TIP3   OH263675   3.274   2.124   4.921  0.5118  0.0071 -0.2511
14087TIP3    H163676   3.345   2.162   4.868  0.2377  1.2709  0.2482
14087TIP3    H263677   3.317   2.094   5.001  0.9969 -2.2841 -1.2866
14088TIP3   OH263678   3.739   4.284   3.576  0.5026 -0.9831 -0.5023
14088TIP3    H163679   3.675   4.336   3.624  1.0445  0.1198 -0.9462
14088TIP3    H263680   3.699   4.197   3.570 -1.1053 -0.2505 -1.0476
14089TIP3   OH263681   1.543   4.716  12.591  0.3460  0.3076 -0.1116
14089TIP3    H163682   1.482   4.748  12.658 -0.9318 -3.8136  0.9923
14089TIP3    H263683   1.626   4.757  12.613 -0.9276  2.2533  1.4256
14090TIP3   OH263684   3.002   2.679   5.235 -0.5423 -0.3711  1.0150
14090TIP3    H163685   2.959   2.604   5.276 -0.2197 -1.6896 -0.9405
14090TIP3    H263686   3.005   2.658   5.142  0.5396  1.6038  0.5317
14091TIP3   OH263687   0.733   1.543   5.753 -0.1602  0.7720  0.7034
14091TIP3    H163688   0.661   1.483   5.735  0.6717 -0.2422  0.6819
14091TIP3    H263689   0.811   1.489   5.747  0.5977  1.8242  0.8814
14092TIP3   OH263690   4.814   4.299  10.230 -0.2848  0.3415 -0.5745
14092TIP3    H163691   4.759   4.369  10.197  0.4045  1.3610  0.3815
14092TIP3    H263692   4.900   4.339  10.241 -0.1006 -0.3926  0.8862
14093TIP3   OH263693   1.417   6.002   5.132 -0.1689 -0.1666 -0.5458
14093TIP3    H163694   1.369   5.966   5.207 -0.6322  0.6272 -0.4527
14093TIP3    H263695   1.498   6.037   5.171 -0.0285 -0.4825 -0.5430
14094TIP3   OH263696   5.652   5.882  13.577  0.0333  0.4309  0.2530
14094TIP3    H163697   5.622   5.833  13.500  1.0968  1.6713 -0.9974
14094TIP3    H263698   5.676   5.968  13.543  0.5350  1.0166  1.9922
14095TIP3   OH263699   1.967   0.827  11.304  0.7335 -0.3778  0.6613
14095TIP3    H163700   1.887   0.777  11.317 -0.5038  0.7982 -1.8347
14095TIP3    H263701   1.964   0.895  11.372  0.2680 -1.0530  1.3375
14096TIP3   OH263702   1.794   4.279  13.358  0.0254 -0.4065  0.1771
14096TIP3    H163703   1.869   4.225  13.382  0.7804 -0.2829 -1.7229
14096TIP3    H263704   1.752   4.301  13.441  0.3956 -2.8614  1.0947
14097TIP3   OH263705   5.479   5.520  15.780  0.6501  0.2613 -0.2675
14097TIP3    H163706   5.455   5.501  15.690  1.4427  0.5943 -0.5625
14097TIP3    H263707   5.487   5.435  15.822 -1.1514  0.1376 -0.1063
14098TIP3   OH263708   5.938   5.563   2.987 -0.1559  0.0972  0.3204
14098TIP3    H163709   5.962   5.511   2.911  0.6645  1.4164 -0.3673
14098TIP3    H263710   5.981   5.519   3.061 -2.5492 -2.3371  0.4181
14099TIP3   OH263711   6.189   3.502   0.015 -0.0339  0.2811  0.3100
14099TIP3    H163712   6.220   3.593   0.014 -0.4646  0.4250 -0.0301
14099TIP3    H263713   6.196   3.476   0.107 -1.0644  1.0545  0.6276
14100TIP3   OH263714   0.752   4.841  13.688 -0.5202 -0.2766 -0.0520
14100TIP3    H163715   0.778   4.783  13.616  0.1194 -2.0454  1.5021
14100TIP3    H263716   0.807   4.919  13.678  0.8104 -1.2354 -0.5184
14101TIP3   OH263717   5.788   6.509   0.777  0.0041 -0.3583  0.2586
14101TIP3    H163718   5.720   6.450   0.809 -0.2765 -2.5142 -3.7083
14101TIP3    H263719   5.859   6.451   0.747  1.5115  1.5678 -0.1170
14102TIP3   OH263720   2.343   0.575   0.904 -0.2784 -0.1347 -0.3691
14102TIP3    H163721   2.325   0.483   0.885  1.0799 -0.0926 -2.0609
14102TIP3    H263722   2.393   0.572   0.986  3.2924 -1.3327 -2.4051
14103TIP3   OH263723   6.398   2.334   5.248  0.5724 -0.3276 -0.7488
14103TIP3    H163724   6.394   2.404   5.182 -0.5383 -0.7769 -1.1776
14103TIP3    H263725   6.353   2.370   5.324  0.3888 -0.4128 -0.8168
14104TIP3   OH263726   3.858   3.692  16.174  0.0749 -0.7007  0.1787
14104TIP3    H163727   3.816   3.607  16.178 -0.6799 -0.2748  2.4529
14104TIP3    H263728   3.947   3.677  16.206  0.4783 -0.8809 -0.9552
14105TIP3   OH263729   2.149   2.444   3.569  0.0312  0.1205  0.3825
14105TIP3    H163730   2.230   2.458   3.618 -1.1382  0.3606  2.3806
14105TIP3    H263731   2.084   2.497   3.615 -1.2042  0.2391 -1.3903
14106TIP3   OH263732   2.339   5.820  14.516  0.8449 -0.4189 -0.2078
14106TIP3    H163733   2.377   5.751  14.461  2.8906  1.0427 -0.7483
14106TIP3    H263734   2.389   5.899  14.493 -0.1957  0.8604  1.6958
14107TIP3   OH263735   1.007   1.631   3.659  0.0926  0.2142 -0.1090
14107TIP3    H163736   0.921   1.609   3.622  1.2804 -1.5799 -2.0543
14107TIP3    H263737   1.011   1.580   3.739 -1.2358  1.5607  0.8676
14108TIP3   OH263738   2.027   3.141   0.717  0.4077  0.0373 -0.3380
14108TIP3    H163739   1.977   3.222   0.716 -0.8264 -0.7097 -0.8188
14108TIP3    H263740   1.962   3.072   0.709  1.3984 -1.0399  0.4741
14109TIP3   OH263741   1.104   2.343  13.847 -0.0694 -0.4188  0.3535
14109TIP3    H163742   1.117   2.414  13.784 -0.9407  0.7120  1.3923
14109TIP3    H263743   1.009   2.344  13.864  0.1161 -0.8589  1.4955
14110TIP3   OH263744   5.745   5.111  11.667  0.5488  0.2696 -0.1942
14110TIP3    H163745   5.832   5.150  11.670  1.2293 -1.1826 -0.3040
14110TIP3    H263746   5.748   5.050  11.594 -1.2220  1.6310 -1.5192
14111TIP3   OH263747   3.902   4.743  11.535 -0.0396 -0.1767  0.5524
14111TIP3    H163748   3.833   4.800  11.570 -1.2912 -1.1940 -0.1601
14111TIP3    H263749   3.855   4.682  11.478  1.7655  0.8473 -2.2367
14112TIP3   OH263750   6.179   1.398  16.338  0.0203  0.3603 -0.0657
14112TIP3    H163751   6.242   1.447  16.285 -0.8605  0.7954 -0.7351
14112TIP3    H263752   6.220   1.313  16.352  1.6420  1.3179  1.2335
14113TIP3   OH263753   3.843   4.895  10.869 -0.1809  0.4353  0.1111
14113TIP3    H163754   3.776   4.863  10.808  0.2264  1.7340 -1.0702
14113TIP3    H263755   3.797   4.956  10.926 -0.3515 -0.0085  0.4544
14114TIP3   OH263756   6.101   6.548  12.390 -0.4964 -0.2311 -0.0853
14114TIP3    H163757   6.123   6.529  12.299  0.6178  0.5991 -0.0068
14114TIP3    H263758   6.023   6.604  12.384  0.3026  0.8819 -0.6145
14115TIP3   OH263759   5.350   3.972   3.709 -0.3272  0.0782  0.6029
14115TIP3    H163760   5.367   4.025   3.631  0.0070 -0.1091  0.5482
14115TIP3    H263761   5.301   4.031   3.767 -0.0961  0.3996  0.4781
14116TIP3   OH263762   0.953   5.866   2.081  0.2692  0.0689 -0.2920
14116TIP3    H163763   0.866   5.867   2.123  0.8250  1.3702  0.9555
14116TIP3    H263764   0.951   5.790   2.023 -2.2085  0.8674 -1.4013
14117TIP3   OH263765   3.108   0.888  13.268  0.1692 -0.0343  0.8097
14117TIP3    H163766   3.020   0.881  13.304  0.1341 -0.2860  0.6769
14117TIP3    H263767   3.141   0.798  13.269  0.0247 -0.1030 -0.1509
14118TIP3   OH263768   6.408   4.935  15.459 -0.2376 -0.3113  0.3180
14118TIP3    H163769   6.419   5.019  15.503  1.9713  0.4986 -1.5754
14118TIP3    H263770   6.379   4.875  15.528 -1.1407  1.7859  1.8766
14119TIP3   OH263771   3.850   0.437  15.662  0.5049 -0.2118 -0.1174
14119TIP3    H163772   3.941   0.448  15.634  0.8036  1.0371  1.2354
14119TIP3    H263773   3.836   0.507  15.725 -1.0319 -1.1273  0.6019
14120TIP3   OH263774   3.402   1.347  11.673  0.4156 -0.6830 -0.0583
14120TIP3    H163775   3.317   1.375  11.640  0.1619 -1.9103 -0.4934
14120TIP3    H263776   3.382   1.282  11.740  0.9962 -0.9143 -0.0979
14121TIP3   OH263777   3.397   2.725  16.904 -0.0470 -0.2345  0.0811
14121TIP3    H163778   3.348   2.647  16.879  0.2852  0.0892 -1.7027
14121TIP3    H263779   3.349   2.797  16.865  0.3249  0.3484  0.6807
14122TIP3   OH263780   0.782   0.277  16.083  0.2896 -0.4070  0.2166
14122TIP3    H163781   0.729   0.216  16.133 -1.1916  0.1356 -0.6333
14122TIP3    H263782   0.795   0.352  16.142 -0.7444 -0.1232  0.1037
14123TIP3   OH263783   5.695   4.864  15.741  0.4769  0.0257 -0.1780
14123TIP3    H163784   5.723   4.829  15.825 -0.2773  0.4971  0.2829
14123TIP3    H263785   5.776   4.871  15.689  0.7968 -1.2416  0.1269
14124TIP3   OH263786   5.476   5.655   2.763  0.3943 -0.0901 -0.1858
14124TIP3    H163787   5.426   5.668   2.682  0.2108  0.7374  0.0535
14124TIP3    H263788   5.513   5.567   2.754  1.3068  0.4079 -1.6680
14125TIP3   OH263789   6.666   6.018   1.939 -0.2200 -0.4515 -0.3948
14125TIP3    H163790   6.595   5.988   1.995 -0.8073  0.9517 -0.3568
14125TIP3    H263791   6.624   6.078   1.877  0.8929  0.2989 -0.4574
14126TIP3   OH263792   3.937   3.395   1.294 -0.0235 -0.2141  0.2744
14126TIP3    H163793   3.965   3.405   1.203 -0.0777  0.5218  0.3303
14126TIP3    H263794   4.004   3.439   1.345 -0.4917  0.2391  0.5137
14127TIP3   OH263795   5.960   3.102  15.891 -0.0293 -0.3874  0.2395
14127TIP3    H163796   5.951   3.059  15.806 -0.2536  0.7566 -0.3456
14127TIP3    H263797   5.873   3.097  15.930 -0.6261  1.3636 -0.7672
14128TIP3   OH263798   2.410   3.428  11.471  0.1619  0.3186 -0.5957
14128TIP3    H163799   2.373   3.472  11.547 -0.5332 -0.3156 -0.5582
14128TIP3    H263800   2.459   3.496  11.425  0.1527  0.8259  0.1315
14129TIP3   OH263801   1.504   3.637   5.089 -0.7480  0.5347  0.4691
14129TIP3    H163802   1.587   3.672   5.122 -0.3438 -1.1794  1.3862
14129TIP3    H263803   1.438   3.699   5.119  0.0024  0.8872  1.4349
14130TIP3   OH263804   1.075   0.628   3.451  0.8749  0.7861  0.2423
14130TIP3    H163805   1.062   0.675   3.534 -0.5145  0.4283  0.2484
14130TIP3    H263806   1.012   0.667   3.391  1.4570  0.6289 -0.4817
14131TIP3   OH263807   0.995   3.427  15.805 -0.8992 -0.0225 -0.0503
14131TIP3    H163808   1.023   3.338  15.826  1.2993  0.3596 -1.0967
14131TIP3    H263809   1.013   3.477  15.885  2.7542  0.4315 -0.9845
14132TIP3   OH263810   5.466   0.796  11.337 -0.0190 -0.5185 -0.7909
14132TIP3    H163811   5.479   0.724  11.276  0.9352 -1.3185  0.2985
14132TIP3    H263812   5.458   0.754  11.423  0.2729  0.6519 -0.1547
14133TIP3   OH263813   4.365   0.328   0.004 -0.5325  0.0423  0.1897
14133TIP3    H163814   4.392   0.265  -0.063  1.0094  0.2362  0.5945
14133TIP3    H263815   4.300   0.282   0.057  0.1825 -1.0200  0.1521
14134TIP3   OH263816   1.120   6.466  16.932  0.0412 -0.3864 -0.5459
14134TIP3    H163817   1.041   6.501  16.972 -0.2266 -1.4206 -0.1272
14134TIP3    H263818   1.187   6.533  16.945 -0.5812  0.1785 -0.2505
14135TIP3   OH263819   0.909   5.201  12.315  0.6532 -0.4255  0.1428
14135TIP3    H163820   0.825   5.156  12.322  0.5823 -0.1057  2.0577
14135TIP3    H263821   0.892   5.289  12.350  1.2976  0.3986 -1.5060
14136TIP3   OH263822   0.830   5.256   2.637 -0.3547  0.4113  0.0974
14136TIP3    H163823   0.828   5.299   2.722 -0.7130  1.3435 -0.3738
14136TIP3    H263824   0.795   5.169   2.654  0.0530  0.4072  0.9936
14137TIP3   OH263825   0.179   5.475  15.062 -0.6788  0.3301  0.2421
14137TIP3    H163826   0.140   5.390  15.084 -0.5225  0.6546  1.8690
14137TIP3    H263827   0.273   5.462  15.074 -0.2157 -0.2632 -3.0407
14138TIP3   OH263828   3.552   5.903  10.615 -0.0575 -0.0896  1.0552
14138TIP3    H163829   3.497   5.869  10.686 -2.7477  1.4960 -0.1188
14138TIP3    H263830   3.631   5.934  10.659 -0.5254 -1.4299  2.9938
14139TIP3   OH263831   4.389   3.140  13.054  0.0224 -0.1095 -0.5876
14139TIP3    H163832   4.419   3.051  13.033  2.7037 -0.1653  2.5898
14139TIP3    H263833   4.431   3.195  12.988 -0.8484 -1.0594 -1.9936
14140TIP3   OH263834   1.186   0.766   5.325  0.7526 -0.4976 -0.1758
14140TIP3    H163835   1.203   0.745   5.233 -0.0854  1.3499 -0.7868
14140TIP3    H263836   1.264   0.815   5.353  0.6344 -0.3226 -0.1532
14141TIP3   OH263837   1.764   1.681   4.427  0.1765  0.1753 -0.3432
14141TIP3    H163838   1.810   1.756   4.462  1.3621 -0.1112 -1.2129
14141TIP3    H263839   1.790   1.608   4.483 -1.6843  0.5413  1.0558
14142TIP3   OH263840   6.774   2.412   2.577  0.3933 -0.2704  0.1279
14142TIP3    H163841   6.707   2.351   2.607  0.0185  0.0825  0.0131
14142TIP3    H263842   6.854   2.359   2.571  0.3738 -0.4576  1.2777
14143TIP3   OH263843   1.850   6.159   2.596  0.1197 -0.5976  0.6586
14143TIP3    H163844   1.868   6.122   2.510 -2.4885  0.7600 -0.6062
14143TIP3    H263845   1.804   6.091   2.643  0.6145 -0.9762  0.6039
14144TIP3   OH263846   3.732   5.529  17.150 -0.7224  0.0646 -0.6220
14144TIP3    H163847   3.670   5.591  17.187 -0.9768 -0.3053 -0.4227
14144TIP3    H263848   3.684   5.446  17.147 -0.0200 -0.3793  0.1500
14145TIP3   OH263849   0.955   0.071  12.541  0.1891  0.0308  0.6442
14145TIP3    H163850   0.861   0.078  12.555 -0.0685  0.3076 -1.0546
14145TIP3    H263851   0.972  -0.023  12.539 -0.0205 -0.0194  1.0864
14146TIP3   OH263852   1.024   2.063  10.886 -0.0854 -0.0613 -0.4187
14146TIP3    H163853   1.082   2.138  10.876 -0.1790  0.0282 -0.2896
14146TIP3    H263854   0.938   2.095  10.858 -0.1830 -0.0383 -0.0976
14147TIP3   OH263855   3.505   3.589   4.642 -0.1670  0.0248  0.3872
14147TIP3    H163856   3.500   3.532   4.566 -0.3232 -1.3797  1.4073
14147TIP3    H263857   3.414   3.607   4.665 -0.1570  2.6692 -1.2983
14148TIP3   OH263858   2.741   0.267  14.189 -0.3693 -0.7894 -0.1043
14148TIP3    H163859   2.662   0.221  14.161  0.0189 -1.4131 -0.1916
14148TIP3    H263860   2.807   0.198  14.199 -0.1452 -0.4272  1.1029
14149TIP3   OH263861   6.657   4.807  11.124 -0.5460  0.4743 -0.1381
14149TIP3    H163862   6.698   4.848  11.048  0.0899 -0.8274 -0.5324
14149TIP3    H263863   6.726   4.752  11.161 -1.0118  0.6672  1.0775
14150TIP3   OH263864   6.021   2.153  13.219  0.0986  0.3648 -0.2216
14150TIP3    H163865   6.055   2.243  13.217  2.0398 -0.2999  0.1303
14150TIP3    H263866   5.926   2.162  13.213  0.2700  2.4261 -0.3615
14151TIP3   OH263867   5.151   4.549   4.319 -0.1807 -0.1606  0.3084
14151TIP3    H163868   5.148   4.467   4.271 -0.8124  0.2345 -0.3470
14151TIP3    H263869   5.143   4.524   4.411 -0.1097 -0.8397  0.1360
14152TIP3   OH263870   1.822   2.849  13.106  0.0599 -0.3534 -0.4500
14152TIP3    H163871   1.866   2.931  13.127 -1.6395  0.7321 -0.9384
14152TIP3    H263872   1.891   2.792  13.072  1.9960 -0.4858  3.2967
14153TIP3   OH263873   5.442   0.252  14.030 -0.0648 -0.2937 -0.5607
14153TIP3    H163874   5.357   0.286  14.057 -0.3428 -0.3219 -1.3668
14153TIP3    H263875   5.463   0.300  13.950  0.9326  0.0945 -0.0902
14154TIP3   OH263876   4.206   0.150  10.826  0.3552 -0.4794  0.0940
14154TIP3    H163877   4.122   0.175  10.788 -0.3090  0.4899  2.0678
14154TIP3    H263878   4.256   0.115  10.752 -0.8207  1.3269 -1.6545
14155TIP3   OH263879   5.328   2.367  14.256 -0.8283  0.3326 -0.5544
14155TIP3    H163880   5.382   2.291  14.234 -1.4583 -0.1824 -0.3570
14155TIP3    H263881   5.240   2.342  14.229 -1.3623  0.2732  1.1687
14156TIP3   OH263882   2.221   2.767  11.251  0.3930 -0.1683 -0.4480
14156TIP3    H163883   2.189   2.821  11.323 -0.2068 -0.1076 -0.7586
14156TIP3    H263884   2.172   2.798  11.175  1.5062  0.2394 -1.0222
14157TIP3   OH263885   2.536   3.730   3.697  0.5443 -0.5619  0.5869
14157TIP3    H163886   2.595   3.802   3.721  0.4504  0.3438 -1.6612
14157TIP3    H263887   2.449   3.769   3.698  0.3139 -1.0773  0.9167
14158TIP3   OH263888   3.546   2.890  11.444  0.0334  0.2425  0.1182
14158TIP3    H163889   3.614   2.854  11.387 -0.9987 -1.3827 -0.1589
14158TIP3    H263890   3.585   2.968  11.482  2.5918 -1.3554  1.0174
14159TIP3   OH263891   2.429   3.779   1.967 -0.2364 -0.3057  0.1780
14159TIP3    H163892   2.419   3.703   2.025  1.3336 -0.1962  0.6401
14159TIP3    H263893   2.485   3.839   2.016 -1.0217  0.9328 -0.4052
14160TIP3   OH263894   1.348   3.346  12.958  0.1558  0.0680  0.0855
14160TIP3    H163895   1.320   3.275  12.901 -1.1732  1.6613 -1.3640
14160TIP3    H263896   1.442   3.352  12.945 -0.2490  1.3034 -3.2244
14161TIP3   OH263897   2.456   5.456  11.129  0.7330 -0.3155 -0.2967
14161TIP3    H163898   2.522   5.388  11.126  0.4029 -0.5923 -1.5941
14161TIP3    H263899   2.410   5.441  11.212  1.1725 -1.1743 -0.1979
14162TIP3   OH263900   3.860   1.365   6.207  0.8640 -0.6867 -0.1302
14162TIP3    H163901   3.768   1.358   6.181  0.9039 -1.4247 -0.0974
14162TIP3    H263902   3.858   1.414   6.289  0.6381  0.6255 -0.8861
14163TIP3   OH263903   4.122   3.270   4.652 -0.0846  0.6742 -0.9570
14163TIP3    H163904   4.121   3.181   4.616 -1.0390  0.7652 -1.1649
14163TIP3    H263905   4.215   3.295   4.650  0.4035 -0.8687  0.5044
14164TIP3   OH263906   0.504   3.975   1.990  0.3007  0.0271  0.0985
14164TIP3    H163907   0.525   3.938   1.905  0.6082 -0.7353  0.4894
14164TIP3    H263908   0.553   4.057   1.994 -0.9579  0.8679 -1.0663
14165TIP3   OH263909   4.521   6.686  15.213 -0.5522 -0.0358 -0.3075
14165TIP3    H163910   4.543   6.602  15.253 -0.0166 -0.9053 -2.2887
14165TIP3    H263911   4.600   6.739  15.224 -0.1226 -0.5481 -0.9216
14166TIP3   OH263912   5.305   3.475   2.226  0.1283 -0.0616 -0.1976
14166TIP3    H163913   5.344   3.519   2.302 -0.7226 -1.8223  1.3493
14166TIP3    H263914   5.330   3.529   2.152 -0.2303  2.6115  1.4657
14167TIP3   OH263915   0.301   4.350   2.778 -0.2275 -0.2814 -0.0210
14167TIP3    H163916   0.262   4.381   2.860 -0.6766  2.4208 -1.1375
14167TIP3    H263917   0.377   4.299   2.805 -0.3330  0.5733  2.0803
14168TIP3   OH263918   2.788   1.621  13.261  0.0055 -0.4632  0.0121
14168TIP3    H163919   2.755   1.708  13.285 -1.0643 -0.9118  0.2170
14168TIP3    H263920   2.783   1.570  13.342 -0.8369 -1.1410 -0.4452
14169TIP3   OH263921   1.475   4.678  12.119  0.1723 -0.0979  0.4144
14169TIP3    H163922   1.479   4.772  12.099 -0.2139 -0.5197 -1.9857
14169TIP3    H263923   1.564   4.654  12.142  0.6923  0.5386 -0.8193
14170TIP3   OH263924   0.059   6.674  16.977  0.4140 -0.0266  0.6307
14170TIP3    H163925   0.019   6.586  16.978  0.9011 -0.2534  1.6448
14170TIP3    H263926   0.149   6.659  16.948 -0.2558  0.5363 -2.0701
14171TIP3   OH263927   3.346   2.423   1.806 -0.3490  0.1985 -0.1453
14171TIP3    H163928   3.397   2.493   1.847 -1.1422  0.5449  0.2641
14171TIP3    H263929   3.385   2.342   1.839  0.5432  0.4335 -0.5783
14172TIP3   OH263930   2.320   0.536   1.987  0.4458 -0.3522 -0.1722
14172TIP3    H163931   2.333   0.467   2.052  0.7631  0.1619  0.3156
14172TIP3    H263932   2.277   0.606   2.035  4.8920  2.0590  0.8730
14173TIP3   OH263933   1.669   6.473   3.809  0.3919  0.4281 -0.8862
14173TIP3    H163934   1.682   6.403   3.745  1.1222 -0.3870  0.1168
14173TIP3    H263935   1.751   6.476   3.858 -0.1995  0.9285  0.1024
14174TIP3   OH263936   0.898   3.589   0.509 -0.0844 -0.3793  0.8276
14174TIP3    H163937   0.867   3.500   0.492 -0.1267 -0.4427  1.2328
14174TIP3    H263938   0.950   3.611   0.432  0.0142 -0.7950  0.7735
14175TIP3   OH263939   5.888   1.578  14.199 -0.2205 -0.8391  0.3708
14175TIP3    H163940   5.840   1.627  14.266 -0.7733 -1.1365  0.2034
14175TIP3    H263941   5.980   1.597  14.216 -0.4299  0.4891  0.1296
14176TIP3   OH263942   1.354   5.336  11.030  0.0251  0.2906 -0.0764
14176TIP3    H163943   1.401   5.331  11.113 -2.9399 -1.2358  1.7095
14176TIP3    H263944   1.364   5.249  10.991 -1.9317 -0.3762  0.7940
14177TIP3   OH263945   1.438   2.594  12.362  0.0677 -0.1764  0.1621
14177TIP3    H163946   1.514   2.598  12.304  1.6401 -1.8519  1.9937
14177TIP3    H263947   1.385   2.523  12.326  0.3500 -0.3204  0.0296
14178TIP3   OH263948   2.330   6.286   2.665  0.0665 -0.4923  0.9902
14178TIP3    H163949   2.272   6.226   2.713 -1.6483  0.1339 -0.1857
14178TIP3    H263950   2.282   6.369   2.665  0.2220 -0.3552 -1.3474
14179TIP3   OH263951   1.132   0.675  13.551 -0.5061  0.4449 -0.0374
14179TIP3    H163952   1.182   0.665  13.471 -1.3417  0.8014 -0.6228
14179TIP3    H263953   1.116   0.770  13.558 -1.7426  0.2794 -0.2891
14180TIP3   OH263954   1.381   4.659   6.009  0.1628  0.1947 -0.2162
14180TIP3    H163955   1.310   4.596   6.016  0.9480 -0.6184  0.9600
14180TIP3    H263956   1.346   4.730   5.955 -1.5827 -0.0968  0.4638
14181TIP3   OH263957   1.639   6.100   1.774 -0.5046  0.7139  0.0356
14181TIP3    H163958   1.648   6.091   1.869  0.5789  1.3947  0.0198
14181TIP3    H263959   1.660   6.014   1.739  1.5409  1.0509  0.3041
14182TIP3   OH263960   5.366   6.004   5.019 -0.1731 -0.0288  0.3316
14182TIP3    H163961   5.296   5.939   5.020  1.0412 -1.4043  2.4108
14182TIP3    H263962   5.327   6.083   5.055 -1.9148  0.8219 -3.0226
14183TIP3   OH263963   0.455   4.985   4.602 -0.3858 -0.3311 -0.3689
14183TIP3    H163964   0.524   4.996   4.537  0.2814  0.1417  0.3987
14183TIP3    H263965   0.410   5.070   4.604 -1.8518 -1.0169 -1.7857
14184TIP3   OH263966   0.402   5.226  14.077  0.0481  0.1281 -0.4567
14184TIP3    H163967   0.326   5.207  14.132 -0.4556  1.7782 -0.5340
14184TIP3    H263968   0.378   5.193  13.990  0.3241 -1.2960 -0.0330
14185TIP3   OH263969   1.092   2.766  10.949 -0.8469  0.5364  0.1803
14185TIP3    H163970   1.036   2.809  10.884  0.1521  1.4046 -0.1354
14185TIP3    H263971   1.050   2.784  11.033  0.3158  3.4767  0.2172
14186TIP3   OH263972   3.879   1.724   3.306  0.4501  0.2737  0.0128
14186TIP3    H163973   3.966   1.686   3.293  0.6134  0.0670  1.5312
14186TIP3    H263974   3.841   1.675   3.378 -0.7575  0.6745 -0.3173
14187TIP3   OH263975   0.506   6.431  12.277 -0.1743  0.7407  0.3871
14187TIP3    H163976   0.438   6.381  12.322 -0.3403  1.5646  1.0782
14187TIP3    H263977   0.567   6.456  12.347  0.7784  0.1234 -0.1999
14188TIP3   OH263978   5.431   1.269   5.748 -0.4494  0.1981 -0.5017
14188TIP3    H163979   5.340   1.254   5.723 -0.2553  0.7115 -1.5853
14188TIP3    H263980   5.432   1.262   5.843 -1.5986  0.0718 -0.4926
14189TIP3   OH263981   5.756   2.110  13.137 -0.1155 -0.2981 -0.7190
14189TIP3    H163982   5.763   2.038  13.074 -1.0163 -1.9196  0.9303
14189TIP3    H263983   5.683   2.163  13.105  0.4712 -0.1557 -1.8829
14190TIP3   OH263984   6.579   4.922  11.900  0.3969  0.0828  0.2902
14190TIP3    H163985   6.518   4.850  11.915  1.6803 -0.7951  1.6872
14190TIP3    H263986   6.643   4.887  11.839 -0.0818  0.7603 -0.6226
14191TIP3   OH263987   5.952   0.084  14.780 -0.1339 -0.4100  0.0469
14191TIP3    H163988   5.916   0.140  14.848  0.3332  0.8930 -0.7518
14191TIP3    H263989   5.875   0.047  14.736 -0.4596  0.0745  0.2026
14192TIP3   OH263990   1.881   0.623   3.681  0.0248  0.1610  0.1959
14192TIP3    H163991   1.787   0.622   3.699  0.1526  1.1500  1.0003
14192TIP3    H263992   1.893   0.697   3.621  0.2677 -0.1118 -0.0981
14193TIP3   OH263993   4.411   0.461   2.423 -0.6080  0.2449  0.4456
14193TIP3    H163994   4.467   0.529   2.385  0.4392 -1.4846 -1.2931
14193TIP3    H263995   4.460   0.380   2.413 -1.9747 -0.8859  2.0964
14194TIP3   OH263996   5.515   5.408   6.228 -0.0969 -0.5900  0.3374
14194TIP3    H163997   5.584   5.449   6.176 -0.5652 -0.2166 -0.0037
14194TIP3    H263998   5.529   5.440   6.317  0.2368 -0.6094  0.2912
14195TIP3   OH263999   6.498   3.719  16.249  0.2432  0.1359 -0.6905
14195TIP3    H164000   6.403   3.718  16.253  0.2719 -0.0079  0.4354
14195TIP3    H264001   6.521   3.808  16.224 -0.1451  0.9988  1.7731
14196TIP3   OH264002   5.187   2.201  12.975 -0.3579  0.2480  0.4688
14196TIP3    H164003   5.123   2.261  13.011 -0.6684 -0.1205  0.5365
14196TIP3    H264004   5.193   2.224  12.882 -1.5977 -0.5952  0.1581
14197TIP3   OH264005   4.501   3.294   0.212 -0.9519  0.6170 -0.1192
14197TIP3    H164006   4.552   3.218   0.239 -0.1604  1.2714  0.2684
14197TIP3    H264007   4.563   3.348   0.164 -1.6427  0.7816 -0.8448
14198TIP3   OH264008   5.304   3.987  12.466 -0.0153  0.2537  0.0308
14198TIP3    H164009   5.361   3.937  12.407 -0.1427 -0.0044  0.1278
14198TIP3    H264010   5.296   3.932  12.544  0.3272  0.6879  0.3831
14199TIP3   OH264011   5.534   5.331   5.061 -0.0506 -0.2766  0.1028
14199TIP3    H164012   5.493   5.413   5.033  1.3357  0.3140 -0.2563
14199TIP3    H264013   5.505   5.319   5.151 -0.4848  0.4631  0.0709
14200TIP3   OH264014   2.430   4.007   6.582 -0.3436 -0.6935  0.0817
14200TIP3    H164015   2.443   3.987   6.489  1.1198  0.3168  0.0399
14200TIP3    H264016   2.440   3.923   6.626  0.2304 -0.9819 -0.5765
14201TIP3   OH264017   6.242   4.247  10.546  0.8856  0.3937  0.0654
14201TIP3    H164018   6.317   4.299  10.517 -0.5879  1.6541 -1.7251
14201TIP3    H264019   6.166   4.305  10.534 -0.4991 -1.1589  0.8651
14202TIP3   OH264020   5.327   2.952  14.722  0.0667 -0.4334 -0.3430
14202TIP3    H164021   5.350   3.026  14.667  0.7312  0.4938  1.1307
14202TIP3    H264022   5.411   2.914  14.748 -0.2497 -1.1377 -0.3079
14203TIP3   OH264023   3.823   4.774  12.047 -0.2500 -0.1398  0.5624
14203TIP3    H164024   3.887   4.819  12.102 -0.2977  0.4554  0.1438
14203TIP3    H264025   3.793   4.841  11.985 -1.1567 -0.4532  0.6441
14204TIP3   OH264026   5.552   4.197   5.375  0.8272  0.4039  0.0520
14204TIP3    H164027   5.628   4.255   5.381  1.1796  0.1941 -1.8089
14204TIP3    H264028   5.582   4.114   5.412  1.4307  0.4090 -0.4037
14205TIP3   OH264029   2.044   2.394  12.474 -0.2845 -0.0153 -0.1456
14205TIP3    H164030   2.077   2.417  12.387  0.0497  0.7190  0.1614
14205TIP3    H264031   2.111   2.426  12.534 -1.7015  1.9163  0.5220
14206TIP3   OH264032   4.937   2.873   2.275 -0.0240 -0.3869  0.3017
14206TIP3    H164033   5.009   2.861   2.337  0.0540  0.8713  0.4794
14206TIP3    H264034   4.880   2.798   2.289  1.3605 -1.5472 -0.0118
14207TIP3   OH264035   0.170   4.449  16.828 -0.9518 -0.0627 -0.8304
14207TIP3    H164036   0.077   4.466  16.840 -1.1037 -1.7142  0.8530
14207TIP3    H264037   0.177   4.353  16.830  0.8390  0.0483 -0.2852
14208TIP3   OH264038   4.162   2.916   3.266  0.1130  0.6952  0.5358
14208TIP3    H164039   4.244   2.884   3.303 -0.2731  0.9489  1.6743
14208TIP3    H264040   4.127   2.842   3.216  0.2954  0.0759  1.3061
14209TIP3   OH264041   0.205   6.140  10.813 -0.2141  0.2236 -0.4756
14209TIP3    H164042   0.159   6.085  10.877 -0.3997  1.4946  0.5214
14209TIP3    H264043   0.155   6.222  10.812  0.9338  0.9363 -0.7687
14210TIP3   OH264044   4.759   4.605   2.060 -0.4208  0.3013 -0.3153
14210TIP3    H164045   4.841   4.561   2.035 -0.2554  1.4524 -1.9664
14210TIP3    H264046   4.746   4.580   2.151  2.3638  0.9355  0.3688
14211TIP3   OH264047   2.008   5.591  13.206  0.2176 -0.0459 -0.5605
14211TIP3    H164048   1.955   5.514  13.183  0.4759  0.0387 -1.4833
14211TIP3    H264049   2.036   5.575  13.296 -2.7114  0.6500  0.5944
14212TIP3   OH264050   4.992   5.596   5.676 -0.1939 -0.0698  0.3303
14212TIP3    H164051   5.034   5.537   5.614 -1.0105  0.2613 -0.5618
14212TIP3    H264052   4.947   5.538   5.738  0.9755 -0.4092  0.8912
14213TIP3   OH264053   0.769   1.462  11.812  0.8173 -0.9049 -0.0957
14213TIP3    H164054   0.723   1.531  11.765 -1.1641 -0.8665  1.7228
14213TIP3    H264055   0.737   1.380  11.774  1.1220 -0.8563 -0.4603
14214TIP3   OH264056   3.803   2.528   0.241 -0.3231 -0.0891  0.0862
14214TIP3    H164057   3.796   2.506   0.148  1.3501 -0.3697 -0.0165
14214TIP3    H264058   3.725   2.491   0.281 -0.6976 -0.6215 -1.0949
14215TIP3   OH264059   2.047   5.529  16.821  0.0150  0.0328  0.0592
14215TIP3    H164060   2.076   5.519  16.911 -0.5602  1.2641  0.4029
14215TIP3    H264061   2.034   5.623  16.810 -1.2723 -0.2234 -0.8683
14216TIP3   OH264062   2.387   5.347  15.463  0.6422 -0.2825  0.0507
14216TIP3    H164063   2.333   5.366  15.540 -0.3030  0.3955 -0.7635
14216TIP3    H264064   2.475   5.374  15.489  0.6689 -1.5597  1.4555
14217TIP3   OH264065   3.102   1.905   2.306  0.3046 -0.0398  0.1817
14217TIP3    H164066   3.048   1.907   2.227 -2.0416  0.4259  1.6679
14217TIP3    H264067   3.105   1.995   2.336 -1.6228 -0.5485  2.2494
14218TIP3   OH264068   6.638   6.385   5.590  0.7054  0.0691  0.1064
14218TIP3    H164069   6.666   6.417   5.676  1.0607 -0.8898  0.3586
14218TIP3    H264070   6.557   6.433   5.572  0.6732  0.3454  0.9338
14219TIP3   OH264071   1.062   2.264  12.951 -0.0190  0.5697 -0.6717
14219TIP3    H164072   1.082   2.329  13.018  1.1819 -0.1208 -0.3287
14219TIP3    H264073   1.072   2.311  12.868 -0.3833  1.1334 -0.3986
14220TIP3   OH264074   2.486   5.838   0.809 -0.3149  0.0305 -0.2745
14220TIP3    H164075   2.487   5.915   0.867 -0.4528 -1.1673  1.3801
14220TIP3    H264076   2.393   5.814   0.804 -0.2364 -0.2265 -0.5102
14221TIP3   OH264077   2.251   3.808   0.684 -0.1520  0.3186  0.0417
14221TIP3    H164078   2.171   3.757   0.695 -1.6098  2.3930 -0.4134
14221TIP3    H264079   2.240   3.852   0.600  3.2435 -2.2593 -2.0402
14222TIP3   OH264080   0.930   3.298   2.410 -0.0762 -0.2070  0.3223
14222TIP3    H164081   0.979   3.342   2.480  0.2625 -0.5265  0.2886
14222TIP3    H264082   0.845   3.343   2.409 -0.4776 -0.8859  1.6270
14223TIP3   OH264083   4.773   5.169  12.061 -0.5465  0.4883 -0.6800
14223TIP3    H164084   4.696   5.217  12.030 -0.8762 -0.0426 -0.6853
14223TIP3    H264085   4.847   5.209  12.015 -0.8135  1.0130 -0.6608
14224TIP3   OH264086   3.937   2.888  12.194  0.5504 -0.8736  0.1469
14224TIP3    H164087   3.977   2.893  12.108 -1.8431 -2.4636 -1.1620
14224TIP3    H264088   3.991   2.825  12.243  1.6588 -0.2995 -0.3081
14225TIP3   OH264089   6.366   5.089   5.780 -0.6933 -0.0385  0.5671
14225TIP3    H164090   6.280   5.052   5.799  0.3176 -3.4789 -0.7887
14225TIP3    H264091   6.424   5.049   5.845  0.2457  0.5165  0.0926
14226TIP3   OH264092   2.846   3.859  16.593 -0.3869  0.1294 -0.2379
14226TIP3    H164093   2.907   3.852  16.520 -2.1309  0.7342 -1.8210
14226TIP3    H264094   2.794   3.937  16.575 -0.7398  0.4232  1.7794
14227TIP3   OH264095   1.146   3.057   3.323 -0.1218  0.0895  0.0229
14227TIP3    H164096   1.086   3.001   3.373 -0.1747  0.0667 -0.0656
14227TIP3    H264097   1.172   3.004   3.248  0.5747 -0.1660  0.4333
14228TIP3   OH264098   3.370   1.879  11.782  0.5173 -0.3658 -0.0834
14228TIP3    H164099   3.351   1.808  11.721 -0.0566  0.8032 -1.3202
14228TIP3    H264100   3.420   1.942  11.730 -0.2902  0.8297  0.5444
14229TIP3   OH264101   5.957   1.726  13.848  0.8360  0.2687  0.2211
14229TIP3    H164102   5.912   1.774  13.918  0.7893  0.4717  0.0524
14229TIP3    H264103   5.947   1.781  13.771 -1.4338 -1.1702 -0.6093
14230TIP3   OH264104   1.244   1.383   4.255 -0.0200 -0.4532 -0.4614
14230TIP3    H164105   1.238   1.468   4.297 -0.3621  0.0599 -1.5248
14230TIP3    H264106   1.154   1.362   4.230  0.0613 -1.1298 -0.2077
14231TIP3   OH264107   3.029   4.485   5.490 -0.2680  0.3399 -0.0202
14231TIP3    H164108   3.014   4.396   5.460 -0.3718  0.6409 -0.8675
14231TIP3    H264109   3.115   4.481   5.533 -0.1084 -0.0826 -0.3743
14232TIP3   OH264110   1.481   2.092   3.027  0.4924  0.0345 -0.0804
14232TIP3    H164111   1.523   2.140   2.955  2.1659 -0.5306  0.4932
14232TIP3    H264112   1.443   2.161   3.082  1.6058  0.6404 -0.0399
14233TIP3   OH264113   5.226   0.912   5.064  0.2623  0.2015 -0.2355
14233TIP3    H164114   5.261   0.942   4.980  1.4787 -1.9084 -0.5491
14233TIP3    H264115   5.192   0.991   5.106  1.2743  1.5914 -1.9285
14234TIP3   OH264116   3.230   5.735  12.834  0.2351 -0.4245 -0.2920
14234TIP3    H164117   3.246   5.821  12.873  1.7656  1.0093 -3.6375
14234TIP3    H264118   3.136   5.735  12.815  0.2404  0.6340 -0.4042
14235TIP3   OH264119   5.346   3.667   4.613 -0.7144 -0.5099 -0.1386
14235TIP3    H164120   5.299   3.583   4.618  1.0586 -1.6886 -2.0621
14235TIP3    H264121   5.354   3.684   4.519  1.3020  0.4297  0.1668
14236TIP3   OH264122   0.355   5.299  13.555  0.1232 -0.5334 -0.5636
14236TIP3    H164123   0.280   5.285  13.497 -0.6650 -0.1719  0.3404
14236TIP3    H264124   0.388   5.386  13.531 -1.7693  0.7411  1.1913
14237TIP3   OH264125   1.839   2.304  14.581  0.0904 -1.2328  1.1858
14237TIP3    H164126   1.790   2.223  14.596  0.5122 -1.2609  2.5097
14237TIP3    H264127   1.789   2.371  14.628 -0.3834 -0.6564 -0.0896
14238TIP3   OH264128   1.870   3.153   5.207  0.0842 -1.0391  0.2668
14238TIP3    H164129   1.956   3.192   5.193  0.3543 -1.5959  0.3192
14238TIP3    H264130   1.873   3.119   5.296 -0.4885 -0.3362  0.5613
14239TIP3   OH264131   0.501   1.168   3.364  0.5979 -0.4304  0.1409
14239TIP3    H164132   0.445   1.121   3.425 -1.3648 -0.2258 -1.4209
14239TIP3    H264133   0.556   1.100   3.324  0.3668 -0.8667  0.5566
14240TIP3   OH264134   1.020   5.984   3.708 -0.1099  0.2727  0.4347
14240TIP3    H164135   0.931   6.018   3.721  0.2551  0.6611  2.2200
14240TIP3    H264136   1.008   5.889   3.701 -0.5320  0.0818  2.8909
14241TIP3   OH264137   3.075   5.560  14.467  0.3434  0.2199  0.2096
14241TIP3    H164138   3.161   5.554  14.508 -0.9523 -0.0649  3.1735
14241TIP3    H264139   3.065   5.476  14.421  0.4419 -1.2203  2.6219
14242TIP3   OH264140   6.713   0.380  11.289 -0.6325  0.0686 -0.2877
14242TIP3    H164141   6.759   0.400  11.208 -0.3027  0.1649 -0.0785
14242TIP3    H264142   6.623   0.360  11.262 -0.4918 -0.0210 -0.6850
14243TIP3   OH264143   3.890   2.614  10.946  0.1517  0.1371  0.1549
14243TIP3    H164144   3.905   2.587  10.856 -4.0572 -2.1285 -0.1222
14243TIP3    H264145   3.972   2.593  10.991  1.4858 -1.1146 -2.6090
14244TIP3   OH264146   0.194   1.014   3.294 -0.3047  0.5094 -0.1324
14244TIP3    H164147   0.151   1.072   3.231 -1.3654 -0.9616 -0.8385
14244TIP3    H264148   0.123   0.961   3.329  0.3424  0.9769  2.0005
14245TIP3   OH264149   1.339   5.781   3.770  0.7845  0.8934  0.0065
14245TIP3    H164150   1.359   5.873   3.755  1.8268  0.4321 -1.6976
14245TIP3    H264151   1.377   5.735   3.695 -0.3997 -0.8493  0.3979
14246TIP3   OH264152   4.517   5.950   4.862 -0.5275  0.2189  0.0962
14246TIP3    H164153   4.504   5.980   4.772 -0.6241  0.6598  0.2566
14246TIP3    H264154   4.534   5.856   4.853  0.1321  0.3812 -0.4317
14247TIP3   OH264155   4.077   2.601   0.188 -0.0885 -0.1058 -0.4716
14247TIP3    H164156   4.137   2.568   0.255 -0.9264 -0.4547  0.1406
14247TIP3    H264157   3.991   2.601   0.232 -0.6100 -0.0964 -1.4698
14248TIP3   OH264158   6.094   3.922  16.383  0.0120  0.1142 -0.0115
14248TIP3    H164159   6.083   3.869  16.304 -0.6966  0.3853 -0.1082
14248TIP3    H264160   6.152   3.871  16.439  0.1648 -0.2834 -0.5252
14249TIP3   OH264161   6.755   6.688   1.797  0.4758 -0.4036  0.0396
14249TIP3    H164162   6.721   6.612   1.845  1.0492 -0.1407  0.8961
14249TIP3    H264163   6.678   6.742   1.780  0.2378 -0.5780  0.5365
14250TIP3   OH264164   1.364   1.432  14.565 -0.0792 -0.7762 -0.4077
14250TIP3    H164165   1.329   1.477  14.488 -1.4769 -1.0479  0.0470
14250TIP3    H264166   1.328   1.344  14.560 -1.2768 -0.4304  1.2255
14251TIP3   OH264167   2.493   2.882  15.390  0.4772  0.3883  0.0482
14251TIP3    H164168   2.553   2.929  15.332 -0.7476  2.2603  0.2209
14251TIP3    H264169   2.495   2.931  15.472  0.8844 -1.2304  1.0435
14252TIP3   OH264170   4.668   3.103  14.145  0.1512  0.3659  0.2075
14252TIP3    H164171   4.756   3.079  14.174  0.6621  0.5028 -1.1316
14252TIP3    H264172   4.654   3.050  14.066 -1.4487 -0.5207  1.0239
14253TIP3   OH264173   3.223   3.490  16.124  0.0452  0.2654  0.4183
14253TIP3    H164174   3.192   3.405  16.092 -1.9810  1.7830 -1.9896
14253TIP3    H264175   3.178   3.502  16.207 -0.9782 -0.3385 -0.0225
14254TIP3   OH264176   6.061   4.953   5.687  0.3021 -0.2208 -0.2225
14254TIP3    H164177   6.055   5.022   5.753  3.1621 -1.1720  1.1593
14254TIP3    H264178   6.027   4.875   5.731  1.2820 -0.6448 -0.2131
14255TIP3   OH264179   6.307   0.434   5.087 -0.5970 -0.1922  0.8367
14255TIP3    H164180   6.301   0.496   5.015  0.3123 -1.0137  0.0356
14255TIP3    H264181   6.218   0.430   5.123 -1.0047  0.4047 -0.0849
14256TIP3   OH264182   3.741   5.180   6.101  0.5874 -0.0079 -0.7432
14256TIP3    H164183   3.663   5.219   6.141  1.5155  0.2893  0.8497
14256TIP3    H264184   3.754   5.098   6.148  2.9193  1.3324  1.2010
14257TIP3   OH264185   2.966   1.279  13.259  0.4169  0.2992 -0.1369
14257TIP3    H164186   3.008   1.357  13.224  0.0974 -0.3714 -2.1546
14257TIP3    H264187   3.019   1.256  13.336  1.2033  1.8238 -0.1874
14258TIP3   OH264188   3.813   6.783  14.387 -0.0985  0.4403  0.0553
14258TIP3    H164189   3.842   6.701  14.427  1.5534  1.1372  0.3716
14258TIP3    H264190   3.800   6.842  14.461  0.4326  0.9655 -0.2624
14259TIP3   OH264191   5.715   5.844  15.531 -0.0620 -0.4825 -0.1999
14259TIP3    H164192   5.684   5.851  15.621 -1.4061 -1.1335 -0.5946
14259TIP3    H264193   5.721   5.750  15.515 -0.4414 -0.3739 -0.9980
14260TIP3   OH264194   1.636   2.044  16.857 -0.2047 -0.5393 -0.1849
14260TIP3    H164195   1.572   2.101  16.815 -1.1373 -0.9379  0.6612
14260TIP3    H264196   1.721   2.075  16.824 -0.7688  0.4910 -0.7234
14261TIP3   OH264197   3.052   2.861  13.149 -0.1610 -0.7167 -0.0273
14261TIP3    H164198   3.003   2.802  13.091 -1.4140  1.5317 -1.3648
14261TIP3    H264199   3.126   2.890  13.096 -0.6617  0.4387 -0.1150
14262TIP3   OH264200   4.615   4.401  12.128  0.2646  0.2074  0.1006
14262TIP3    H164201   4.577   4.327  12.175  0.5983 -0.6782 -0.9837
14262TIP3    H264202   4.685   4.432  12.184  0.9517 -1.1161  0.0030
14263TIP3   OH264203   6.148   3.663   0.386  0.4368  0.7284  0.3908
14263TIP3    H164204   6.195   3.585   0.357  0.2004 -0.1204  2.1586
14263TIP3    H264205   6.063   3.657   0.343 -0.0660 -0.7196  1.5166
14264TIP3   OH264206   6.754   1.546   5.689 -0.5481 -0.0088  0.0984
14264TIP3    H164207   6.778   1.576   5.776  0.6649 -0.5647 -0.0207
14264TIP3    H264208   6.745   1.451   5.697 -0.2485 -0.0847 -0.4151
14265TIP3   OH264209   4.732   2.680  11.437  0.0957 -0.3096 -0.1504
14265TIP3    H164210   4.810   2.642  11.396  1.9901  2.5198  0.5838
14265TIP3    H264211   4.748   2.774  11.436 -2.8304  0.2866  1.0966
14266TIP3   OH264212   4.799   2.525   4.845  0.4200  0.5195 -0.0016
14266TIP3    H164213   4.715   2.491   4.876  0.8167  0.8061  1.4576
14266TIP3    H264214   4.838   2.567   4.922  2.7846 -1.3161 -0.0691
14267TIP3   OH264215   6.419   6.388   1.609  0.1956 -0.1395 -0.8644
14267TIP3    H164216   6.354   6.454   1.584 -1.1313 -0.7817  0.7489
14267TIP3    H264217   6.409   6.320   1.543 -1.7002 -0.7998  0.0273
14268TIP3   OH264218   2.878   2.419  16.184 -0.0850 -0.1666  0.3933
14268TIP3    H164219   2.865   2.471  16.105 -2.8228 -1.0562  0.1676
14268TIP3    H264220   2.972   2.398  16.183  0.3828  1.7172 -1.3843
14269TIP3   OH264221   1.008   6.148   5.563 -0.3871  0.4353 -0.3727
14269TIP3    H164222   1.035   6.172   5.652 -0.0479  0.2346 -0.4169
14269TIP3    H264223   1.041   6.059   5.552 -1.3079  0.0854 -0.3427
14270TIP3   OH264224   3.666   1.234  14.981  0.2320  0.3347  0.5367
14270TIP3    H164225   3.664   1.158  14.923  0.8433  0.7008  0.0253
14270TIP3    H264226   3.586   1.226  15.034 -1.4885  1.1145 -1.7812
14271TIP3   OH264227   3.235   3.201  14.891 -0.5634 -0.1609  0.1339
14271TIP3    H164228   3.155   3.253  14.896 -0.0997  0.5485  0.1501
14271TIP3    H264229   3.244   3.180  14.798 -0.5273  0.1369  0.0701
14272TIP3   OH264230   4.492   3.167  11.247  0.2941  0.1307  0.3850
14272TIP3    H164231   4.429   3.104  11.213  0.5833  0.0447  0.0113
14272TIP3    H264232   4.481   3.244  11.192  1.2307 -0.2442 -0.3394
14273TIP3   OH264233   4.605   1.342  14.615 -0.0351  0.6267  0.3983
14273TIP3    H164234   4.589   1.252  14.646  0.9475  0.2649 -0.1080
14273TIP3    H264235   4.586   1.397  14.691 -0.9172  0.0176  0.6323
14274TIP3   OH264236   5.158   2.339   5.366  0.4980 -0.3164  0.1631
14274TIP3    H164237   5.116   2.253   5.375 -3.4257  1.4219  0.4152
14274TIP3    H264238   5.161   2.374   5.455  0.3261  0.5268 -0.1560
14275TIP3   OH264239   4.929   6.244  14.527 -0.2143  0.0756  0.4032
14275TIP3    H164240   4.894   6.261  14.614  1.1511  0.2402  0.9401
14275TIP3    H264241   4.895   6.315  14.473 -1.5178 -0.3260  0.6524
14276TIP3   OH264242   2.887   5.569   1.329 -0.0029  0.2578  0.0940
14276TIP3    H164243   2.829   5.640   1.357  1.1873  1.4836 -0.4542
14276TIP3    H264244   2.886   5.507   1.402 -0.6133  1.1065  0.8257
14277TIP3   OH264245   4.912   4.056  10.957  0.0716  0.3670  0.7917
14277TIP3    H164246   4.915   4.064  10.862 -2.0473 -1.1891  0.5153
14277TIP3    H264247   4.960   3.975  10.976 -1.3466 -0.5301  0.7588
14278TIP3   OH264248   6.715   5.310   1.948 -0.1289 -0.6724 -0.6638
14278TIP3    H164249   6.784   5.298   2.014 -0.7010  1.7422  0.5132
14278TIP3    H264250   6.644   5.254   1.977 -0.8890  1.3200  1.6788
14279TIP3   OH264251   1.519   3.440   2.040  0.0014  0.3239 -0.8462
14279TIP3    H164252   1.513   3.473   2.130 -2.1701 -0.5090 -0.6134
14279TIP3    H264253   1.583   3.497   1.998  0.2601  1.4348  0.9304
14280TIP3   OH264254   6.017   1.930  12.003 -0.5777  0.6022 -0.2152
14280TIP3    H164255   6.078   1.858  12.018 -0.2197  1.0467  0.5219
14280TIP3    H264256   6.045   1.969  11.920  1.9624  2.5421  1.3953
14281TIP3   OH264257   4.469   2.316  13.590  0.3130 -0.1517  0.0785
14281TIP3    H164258   4.454   2.303  13.496  0.5043  0.2263 -0.0048
14281TIP3    H264259   4.497   2.230  13.621 -0.0594 -0.3590 -0.1500
14282TIP3   OH264260   3.115   4.864   6.353 -0.3100 -0.7074  0.4557
14282TIP3    H164261   3.147   4.912   6.430 -0.6493 -0.7986  0.6537
14282TIP3    H264262   3.163   4.903   6.280 -0.8668  0.2141  0.5568
14283TIP3   OH264263   4.457   5.986  12.551 -0.1075  0.0852 -0.4760
14283TIP3    H164264   4.464   6.039  12.630  0.5937 -1.4066  0.5029
14283TIP3    H264265   4.398   5.915  12.575  1.2180 -1.1731 -0.7988
14284TIP3   OH264266   4.867   0.542   2.294  0.4015 -0.1930 -0.1959
14284TIP3    H164267   4.832   0.615   2.242  1.9875  1.7497  1.3081
14284TIP3    H264268   4.818   0.547   2.376 -0.8053 -2.0988 -0.7336
14285TIP3   OH264269   0.591   2.111   4.983  0.2326  0.4371  0.5931
14285TIP3    H164270   0.505   2.089   4.947 -0.0713 -0.2234  1.6726
14285TIP3    H264271   0.582   2.201   5.013 -0.1459  0.3225  0.8428
14286TIP3   OH264272   6.633   3.895   3.863 -0.0496 -0.2333 -0.5752
14286TIP3    H164273   6.637   3.881   3.958  0.9458  0.2916 -0.5223
14286TIP3    H264274   6.548   3.862   3.837 -0.5953  0.2055  0.6013
14287TIP3   OH264275   1.897   1.901  11.619  0.0079 -0.3614 -0.2446
14287TIP3    H164276   1.856   1.959  11.555  0.1037 -0.3341 -0.2824
14287TIP3    H264277   1.903   1.817  11.574 -0.2271 -0.4266 -0.1514
14288TIP3   OH264278   6.683   6.100   2.364  0.2562  0.4548  1.0344
14288TIP3    H164279   6.725   6.081   2.280  3.0108  1.9852  1.9147
14288TIP3    H264280   6.629   6.024   2.382  1.3710 -0.9353 -1.0581
14289TIP3   OH264281   4.412   0.258  11.192  0.3878  0.9140 -0.3764
14289TIP3    H164282   4.458   0.203  11.128  1.0200  2.6857 -1.5226
14289TIP3    H264283   4.422   0.212  11.275 -0.5871 -1.5507 -1.5265
14290TIP3   OH264284   2.564   1.890  13.002  0.4308 -0.4843  0.1116
14290TIP3    H164285   2.577   1.984  12.990 -1.3797 -0.4225 -1.9485
14290TIP3    H264286   2.552   1.880  13.096 -1.5703  1.7218  0.1884
14291TIP3   OH264287   5.161   5.710  15.878  0.1845  0.0303 -0.1385
14291TIP3    H164288   5.090   5.775  15.869  0.4281  0.1454 -1.6499
14291TIP3    H264289   5.221   5.749  15.942  0.0713  1.0872 -0.6398
14292TIP3   OH264290   3.582   4.491   6.415 -0.6484 -0.1161  0.1384
14292TIP3    H164291   3.612   4.575   6.380 -2.2356  0.7894  0.8679
14292TIP3    H264292   3.591   4.430   6.342  0.4111  0.6963 -0.4409
14293TIP3   OH264293   5.379   2.261   5.752  0.2770 -0.2674  0.5454
14293TIP3    H164294   5.307   2.314   5.719  0.0240 -1.5050 -0.9834
14293TIP3    H264295   5.371   2.178   5.706 -0.0451 -2.1450  3.6539
14294TIP3   OH264296   6.740   1.554   5.320  0.1011 -0.7322  0.8880
14294TIP3    H164297   6.759   1.642   5.353 -1.5312 -0.4710  1.2040
14294TIP3    H264298   6.826   1.517   5.300  0.8716  0.6042  1.5921
14295TIP3   OH264299   0.493   4.762  14.067  0.8104 -0.2144 -0.2841
14295TIP3    H164300   0.527   4.745  13.979  3.5137 -0.2033  0.6673
14295TIP3    H264301   0.515   4.853  14.085 -0.4869  0.0427  0.1156
14296TIP3   OH264302   2.770   3.679   1.633 -0.3962  0.1545 -0.5878
14296TIP3    H164303   2.737   3.603   1.682  0.1014  0.6037  0.4816
14296TIP3    H264304   2.692   3.721   1.599 -0.8497  0.4252  0.7330
14297TIP3   OH264305   3.837   5.372  12.795  0.0573  0.4403  0.0647
14297TIP3    H164306   3.774   5.432  12.834  0.1142 -0.0111  0.8565
14297TIP3    H264307   3.920   5.392  12.838  0.8539  2.0813 -2.0168
14298TIP3   OH264308   1.463   4.033  11.015 -0.5544 -0.1271  0.4256
14298TIP3    H164309   1.456   4.098  10.945  1.8928 -0.7397 -0.4602
14298TIP3    H264310   1.415   4.072  11.088  0.9052  2.7652 -0.0263
14299TIP3   OH264311   1.444   2.377  16.161 -0.0733 -0.0732 -0.6080
14299TIP3    H164312   1.477   2.467  16.160  1.2565 -0.5301 -0.4433
14299TIP3    H264313   1.363   2.382  16.211 -0.5143  1.1854 -1.4028
14300TIP3   OH264314   0.390   6.188   3.995 -1.0898 -0.7910 -0.2717
14300TIP3    H164315   0.321   6.252   3.978  0.7990  1.5647  0.3712
14300TIP3    H264316   0.366   6.148   4.079 -1.7775 -0.1695 -0.1659
14301TIP3   OH264317   0.873   0.237   2.270  0.0084 -0.9275 -0.4150
14301TIP3    H164318   0.906   0.159   2.225 -0.2407 -0.3380 -1.6522
14301TIP3    H264319   0.783   0.247   2.239  0.3853  0.4722 -1.1431
14302TIP3   OH264320   0.121   1.067  16.302 -0.0177  0.1952  0.2952
14302TIP3    H164321   0.211   1.068  16.332 -0.5547 -0.3744  2.0092
14302TIP3    H264322   0.072   1.113  16.369 -1.0206  0.4634 -0.5900
14303TIP3   OH264323   6.366   4.886  16.446  0.2778  0.3265  0.1095
14303TIP3    H164324   6.303   4.820  16.418  0.9753 -0.7005  0.8578
14303TIP3    H264325   6.325   4.970  16.425 -0.8378 -0.3350 -0.4316
14304TIP3   OH264326   0.299   5.556   6.503  0.4956 -0.3461  0.3954
14304TIP3    H164327   0.375   5.519   6.548  1.4235  1.0608  0.0659
14304TIP3    H264328   0.239   5.581   6.574 -0.2370 -2.5398  0.6145
14305TIP3   OH264329   2.307   0.811  14.923 -0.1160  0.0870 -0.1455
14305TIP3    H164330   2.310   0.788  15.016  0.3361 -0.1326 -0.2106
14305TIP3    H264331   2.248   0.886  14.918 -0.2691 -0.0031  0.2969
14306TIP3   OH264332   6.491   2.709   6.508  0.4967  0.1313  0.2189
14306TIP3    H164333   6.402   2.687   6.535  0.7609 -0.8140  0.3476
14306TIP3    H264334   6.526   2.764   6.579 -0.9147  2.9404 -1.1005
14307TIP3   OH264335   3.601   4.582   0.002  0.2025 -0.1531 -0.3243
14307TIP3    H164336   3.631   4.671  -0.018 -0.7261  0.9796  2.7370
14307TIP3    H264337   3.519   4.594   0.050 -0.6222 -2.7572 -0.9108
14308TIP3   OH264338   3.342   4.005   5.767  0.0279 -0.0200  0.0381
14308TIP3    H164339   3.325   4.089   5.724  1.2897 -0.0212 -0.5086
14308TIP3    H264340   3.381   4.029   5.851 -1.4198 -0.0375  0.7291
14309TIP3   OH264341   0.008   5.204   0.901  0.5458 -0.0844 -0.5511
14309TIP3    H164342   0.032   5.288   0.942 -0.1473 -0.6859  1.1871
14309TIP3    H264343  -0.015   5.148   0.975 -0.0986 -1.4679 -1.7682
14310TIP3   OH264344   1.668   5.237  16.628  0.3304 -0.4114  0.6000
14310TIP3    H164345   1.740   5.294  16.600 -0.5939  0.3277 -0.3044
14310TIP3    H264346   1.614   5.293  16.683 -1.7224  0.2906 -1.9563
14311TIP3   OH264347   4.341   0.021  12.462  1.1285 -0.6910  0.4125
14311TIP3    H164348   4.380  -0.011  12.543  0.8156 -1.0871  0.4105
14311TIP3    H264349   4.277  -0.046  12.438 -0.1632  0.3144  0.8775
14312TIP3   OH264350   3.884   0.972  13.250 -0.2204  0.4894  0.2489
14312TIP3    H164351   3.814   0.984  13.186 -0.4640 -0.9588  0.2100
14312TIP3    H264352   3.881   0.878  13.271  0.1455  0.8474  2.0386
14313TIP3   OH264353   3.732   2.380  14.622 -0.2300  0.3031  0.4395
14313TIP3    H164354   3.749   2.468  14.657 -0.3808 -0.1578  1.7321
14313TIP3    H264355   3.765   2.321  14.690 -3.1511 -0.6429  1.1745
14314TIP3   OH264356   6.747   1.229   0.487  0.4910 -0.2979  0.4061
14314TIP3    H164357   6.744   1.282   0.407  1.4934  1.4990  1.4945
14314TIP3    H264358   6.752   1.139   0.456  1.4405  0.3812 -1.5911
14315TIP3   OH264359   3.276   5.541  15.286 -0.3462  0.4757 -0.0570
14315TIP3    H164360   3.287   5.573  15.376 -0.8429 -0.9177  0.5264
14315TIP3    H264361   3.365   5.518  15.258 -0.3939 -0.9224  0.8221
14316TIP3   OH264362   1.710   1.190  13.958 -0.2906 -1.0745  0.3964
14316TIP3    H164363   1.697   1.104  13.918  1.1546 -1.7495  1.2881
14316TIP3    H264364   1.797   1.185  13.998  0.2325  1.1364 -0.3408
14317TIP3   OH264365   5.751   3.762  14.006 -0.8043  0.1326 -0.2831
14317TIP3    H164366   5.790   3.679  13.979  2.9083  2.3220 -2.4021
14317TIP3    H264367   5.774   3.771  14.099  0.6720 -0.2511 -0.6011
14318TIP3   OH264368   1.646   3.899  10.683 -0.1540 -0.0021 -0.4094
14318TIP3    H164369   1.604   3.817  10.708  1.0852 -0.5628 -0.0640
14318TIP3    H264370   1.574   3.958  10.662 -1.1310 -0.6270  1.0305
14319TIP3   OH264371   6.751   6.512  16.295 -0.1465  0.2103 -0.8601
14319TIP3    H164372   6.840   6.519  16.259  0.2004  2.9011  0.2480
14319TIP3    H264373   6.762   6.528  16.389 -1.7887  0.4361 -0.6751
14320TIP3   OH264374   0.719   5.831  16.382 -0.5791  0.3040  0.3452
14320TIP3    H164375   0.782   5.775  16.337 -0.5282  0.3173  0.3984
14320TIP3    H264376   0.709   5.792  16.469 -0.3521  0.5220  0.4697
14321TIP3   OH264377   6.250   3.131   4.928 -0.3295 -0.3808 -0.4601
14321TIP3    H164378   6.344   3.123   4.910 -0.3521 -1.9048 -0.0665
14321TIP3    H264379   6.208   3.085   4.856 -0.9291  2.0940 -1.7897
14322TIP3   OH264380   4.607   1.206  15.083 -0.4780 -0.0055 -0.0591
14322TIP3    H164381   4.660   1.284  15.101 -0.5330  0.0340 -0.0703
14322TIP3    H264382   4.633   1.144  15.151 -0.5313  0.0692  0.0303
14323TIP3   OH264383   2.064   3.102  10.257 -0.0496  0.2897  0.3014
14323TIP3    H164384   1.991   3.163  10.246  0.4940  1.3600  2.3273
14323TIP3    H264385   2.061   3.077  10.349  2.7390  1.1509  0.7142
14324TIP3   OH264386   2.558   3.800   4.465  0.3479 -0.6634  0.1497
14324TIP3    H164387   2.568   3.709   4.492 -0.1836 -1.0444 -0.8921
14324TIP3    H264388   2.467   3.821   4.486  0.1748 -0.6981 -0.5547
14325TIP3   OH264389   3.396   0.982   0.809 -0.1412 -0.3031 -0.2445
14325TIP3    H164390   3.419   1.071   0.837 -0.6719  0.2243 -1.4168
14325TIP3    H264391   3.466   0.927   0.843 -0.1484  0.4494  1.0873
14326TIP3   OH264392   1.618   2.491   5.465 -0.1577  0.4626  0.2050
14326TIP3    H164393   1.604   2.550   5.392  0.8740 -1.2043 -1.4448
14326TIP3    H264394   1.535   2.444   5.474 -0.0913  0.2181 -0.3705
14327TIP3   OH264395   0.874   5.599  11.766 -0.5573  0.2927  0.3429
14327TIP3    H164396   0.922   5.630  11.689 -0.4801  1.0878  0.7007
14327TIP3    H264397   0.939   5.554  11.819 -0.5978 -0.2067 -0.0230
14328TIP3   OH264398   3.898   3.759  17.079 -0.3374 -0.1507 -0.7128
14328TIP3    H164399   3.891   3.823  17.008 -2.6884  0.8557  0.3104
14328TIP3    H264400   3.918   3.676  17.035  1.9842  1.0543 -2.1466
14329TIP3   OH264401   1.004   5.670   1.414  0.4334 -0.3732 -0.2636
14329TIP3    H164402   1.035   5.647   1.502  1.2526  1.5044 -0.0030
14329TIP3    H264403   1.079   5.711   1.372 -0.2820 -0.2028 -1.4199
14330TIP3   OH264404   2.965   0.220  10.707 -0.1812 -0.3721 -0.3686
14330TIP3    H164405   2.873   0.205  10.728 -0.0152 -0.4675  0.3245
14330TIP3    H264406   2.965   0.303  10.658 -0.6835 -0.6311 -0.8190
14331TIP3   OH264407   5.471   3.150  14.332  0.6262 -0.6481 -0.0742
14331TIP3    H164408   5.419   3.195  14.399  0.7604 -0.9484  0.2337
14331TIP3    H264409   5.406   3.104  14.279  0.6555 -2.8241  1.6126
14332TIP3   OH264410   5.451   1.257  11.867  0.2064  0.1490 -0.1854
14332TIP3    H164411   5.462   1.205  11.788 -3.5521  0.7781 -1.3382
14332TIP3    H264412   5.385   1.210  11.918 -1.0258  2.1435  0.1765
14333TIP3   OH264413   1.429   5.519   3.866  0.2032  0.2454  0.0081
14333TIP3    H164414   1.372   5.593   3.888  0.9549  0.3100  1.9131
14333TIP3    H264415   1.370   5.444   3.860 -0.0759  0.2114  2.4647
14334TIP3   OH264416   1.603   3.510   2.298 -0.5446 -0.3601  0.3443
14334TIP3    H164417   1.594   3.581   2.362  1.9619 -1.0384  1.5965
14334TIP3    H264418   1.545   3.441   2.329  0.0156 -0.3515  1.4456
14335TIP3   OH264419   0.390   1.415   4.725 -0.5119  0.2078  0.0164
14335TIP3    H164420   0.445   1.361   4.669 -0.4849 -0.6125  0.8172
14335TIP3    H264421   0.332   1.460   4.665  0.6921  0.7137 -0.8137
14336TIP3   OH264422   0.933   4.480  16.643 -0.1051  0.0559  0.1890
14336TIP3    H164423   0.912   4.532  16.721 -0.0925 -0.9272  0.8612
14336TIP3    H264424   0.880   4.401  16.652  0.2552 -0.2838 -0.5664
14337TIP3   OH264425   5.532   0.140  16.483  0.1971 -0.3975 -0.1373
14337TIP3    H164426   5.517   0.160  16.575 -1.3238  1.1067 -0.6563
14337TIP3    H264427   5.572   0.219  16.447 -1.1276 -0.1484 -1.1642
14338TIP3   OH264428   4.797   2.304  17.071 -0.3329 -0.2762  0.1008
14338TIP3    H164429   4.734   2.245  17.112 -1.2853  1.2919  0.9822
14338TIP3    H264430   4.874   2.249  17.054 -1.0233 -1.6604  1.2447
14339TIP3   OH264431   2.917   2.899   5.782 -0.6293 -0.0491 -1.0479
14339TIP3    H164432   2.921   2.834   5.713  1.9313 -1.2436  0.0918
14339TIP3    H264433   2.980   2.869   5.848 -0.7668  2.5624  0.4407
14340TIP3   OH264434   3.159   6.270   2.036 -0.9341 -0.4682 -0.0193
14340TIP3    H164435   3.066   6.291   2.041 -0.7732  0.0303  1.9863
14340TIP3    H264436   3.187   6.262   2.127  1.0286 -0.4580 -0.5592
14341TIP3   OH264437   6.497   6.636   3.908 -0.2478  0.2927  0.5790
14341TIP3    H164438   6.517   6.680   3.991 -0.9067 -2.1896  2.1636
14341TIP3    H264439   6.481   6.708   3.847  0.3828  2.2424  2.5434
14342TIP3   OH264440   3.045   0.756   1.794  0.2955 -0.2861 -0.0821
14342TIP3    H164441   2.979   0.818   1.763 -1.0272 -0.8147  1.4911
14342TIP3    H264442   3.125   0.808   1.801 -0.4422  0.9101 -0.1433
14343TIP3   OH264443   5.838   3.985   3.404 -0.3688 -0.0938 -0.0294
14343TIP3    H164444   5.757   3.961   3.359 -0.1454  0.0522 -0.5091
14343TIP3    H264445   5.907   3.949   3.350 -0.0603  0.8729 -0.3025
14344TIP3   OH264446   5.477   0.329  15.399 -0.4617 -0.1785 -0.1733
14344TIP3    H164447   5.458   0.407  15.451  2.0459  0.5942 -0.2855
14344TIP3    H264448   5.517   0.268  15.461 -0.1059 -0.3835 -0.5986
14345TIP3   OH264449   3.111   1.610  11.650  0.1389  0.1672  0.5032
14345TIP3    H164450   3.041   1.590  11.588  1.7151 -0.0791 -1.2949
14345TIP3    H264451   3.163   1.677  11.607  1.1836  0.1341  1.6583
14346TIP3   OH264452   6.502   5.362  17.187 -0.0517  0.1558  0.1944
14346TIP3    H164453   6.495   5.457  17.180 -0.3279  0.0005 -2.6881
14346TIP3    H264454   6.441   5.339  17.257 -3.0158  1.8366 -1.6397
14347TIP3   OH264455   4.444   3.103  13.774  0.3289 -0.2498 -0.2474
14347TIP3    H164456   4.396   3.034  13.728  0.4668  1.0463 -2.4375
14347TIP3    H264457   4.405   3.185  13.743  1.4689  0.7321  0.8069
14348TIP3   OH264458   4.163   0.022  15.676 -0.3133 -0.2033  0.1496
14348TIP3    H164459   4.099   0.053  15.612  0.7846  0.8248 -0.4932
14348TIP3    H264460   4.129  -0.063  15.705 -0.5615 -1.0024 -2.2366
14349TIP3   OH264461   6.096   3.165  15.350  0.3708 -0.8067  0.2182
14349TIP3    H164462   6.060   3.084  15.386  1.2032 -1.3474 -0.1294
14349TIP3    H264463   6.103   3.148  15.256  1.1026 -0.5627  0.2177
14350TIP3   OH264464   6.748   0.411  14.519 -0.2465  0.1242 -0.2540
14350TIP3    H164465   6.701   0.353  14.579 -2.3148  0.5332 -1.4081
14350TIP3    H264466   6.819   0.357  14.485 -0.9268 -1.1067  0.2081
14351TIP3   OH264467   6.153   6.437   0.521  0.5411 -0.2695  0.1794
14351TIP3    H164468   6.076   6.435   0.577 -1.4267 -1.9446 -2.3552
14351TIP3    H264469   6.209   6.505   0.559 -3.0077  2.4400  1.0696
14352TIP3   OH264470   4.811   4.875  12.705 -0.5598 -0.3040 -0.2922
14352TIP3    H164471   4.895   4.889  12.660  0.7024 -1.6118  1.5333
14352TIP3    H264472   4.830   4.810  12.772 -3.0835 -0.6787  0.1487
14353TIP3   OH264473   5.036   0.105  13.478  0.0476 -0.0766  0.2759
14353TIP3    H164474   5.101   0.037  13.457  1.0787  1.8039 -3.4535
14353TIP3    H264475   4.998   0.129  13.393 -0.9128  3.3921  1.5205
14354TIP3   OH264476   0.376   0.130  11.853  0.2286 -0.1724  0.6866
14354TIP3    H164477   0.386   0.044  11.814  1.3907 -0.2484  1.1111
14354TIP3    H264478   0.456   0.143  11.904  0.0475  1.1301  0.6769
14355TIP3   OH264479   4.933   6.300  14.804 -0.0785  0.1175  0.1964
14355TIP3    H164480   4.975   6.321  14.888 -2.1204 -1.8371  1.8560
14355TIP3    H264481   4.892   6.382  14.777 -0.0178  0.6263  1.5521
14356TIP3   OH264482   2.172   1.645  15.137  0.2987  0.1336  0.1472
14356TIP3    H164483   2.247   1.704  15.130  1.1396 -1.0533 -1.2298
14356TIP3    H264484   2.177   1.589  15.059 -2.6344  0.7140 -0.5791
14357TIP3   OH264485   3.599   1.324  14.213 -0.2263 -0.2876  0.5626
14357TIP3    H164486   3.554   1.359  14.136  0.6793  0.7107  0.4748
14357TIP3    H264487   3.686   1.299  14.181 -0.1762 -0.7778  1.0627
14358TIP3   OH264488   6.483   5.945   6.214  0.2636  0.1624  0.1796
14358TIP3    H164489   6.563   5.976   6.172  1.5644 -1.0549  1.6222
14358TIP3    H264490   6.467   5.860   6.174  0.3158 -0.0674  0.6403
14359TIP3   OH264491   0.632   0.039   0.864 -0.4738 -0.4402  0.2378
14359TIP3    H164492   0.712   0.080   0.831  0.0489 -1.6241 -0.0149
14359TIP3    H264493   0.660  -0.011   0.941 -1.1877  0.0472  0.8354
14360TIP3   OH264494   3.743   6.383  15.394 -0.1472 -0.5141  0.2456
14360TIP3    H164495   3.677   6.449  15.411  0.5333 -0.1442  1.6145
14360TIP3    H264496   3.697   6.314  15.346 -2.1695 -1.4097  3.1988
14361TIP3   OH264497   6.341   6.520  16.544 -0.0297  0.4764  0.4909
14361TIP3    H164498   6.271   6.585  16.545 -1.3773 -0.9297  2.1264
14361TIP3    H264499   6.414   6.564  16.588 -0.8972  0.9424  1.5199
14362TIP3   OH264500   0.480   3.496  16.478  0.2359  0.2078  0.3420
14362TIP3    H164501   0.489   3.546  16.560  3.4482  0.2790  0.0827
14362TIP3    H264502   0.426   3.552  16.422  1.5049  2.2403  0.9929
14363TIP3   OH264503   0.981   1.139   2.769 -0.0493 -0.0475  0.1101
14363TIP3    H164504   0.997   1.228   2.738 -1.4869  0.1238 -0.2102
14363TIP3    H264505   0.919   1.102   2.706 -0.0349 -1.0346  0.6498
14364TIP3   OH264506   1.139   4.128   2.884 -0.0880  0.0353 -0.1193
14364TIP3    H164507   1.080   4.109   2.811 -0.0346  0.1232 -0.1852
14364TIP3    H264508   1.081   4.145   2.958 -0.1372 -0.8285  0.0580
14365TIP3   OH264509   4.841   6.678   0.621 -0.3042 -0.1004 -0.1111
14365TIP3    H164510   4.759   6.669   0.573 -0.0422  0.4417 -0.6644
14365TIP3    H264511   4.841   6.769   0.651  1.0746  0.5703 -1.9591
14366TIP3   OH264512   4.865   4.048  12.178  0.5578 -0.5167 -0.0152
14366TIP3    H164513   4.840   4.055  12.086 -0.0610  1.9312  0.2778
14366TIP3    H264514   4.781   4.036  12.224  0.9668 -3.3205  0.2012
14367TIP3   OH264515   1.728   5.463  16.436 -0.0235 -0.0609 -0.0839
14367TIP3    H164516   1.806   5.484  16.384 -0.7554 -2.2693 -2.2562
14367TIP3    H264517   1.714   5.541  16.490  3.2690  0.6740 -0.0608
14368TIP3   OH264518   5.863   3.741   3.631 -0.3214  0.0385 -0.4025
14368TIP3    H164519   5.865   3.658   3.678 -2.5253  0.0262 -0.1884
14368TIP3    H264520   5.837   3.717   3.542  1.7369  0.2703 -1.1070
14369TIP3   OH264521   1.866   5.800   3.059 -0.4483  0.5593  0.5472
14369TIP3    H164522   1.771   5.800   3.071 -0.2740 -1.1361  2.5065
14369TIP3    H264523   1.901   5.815   3.147  1.0932  0.3827 -0.0141
14370TIP3   OH264524   3.996   5.402  11.535 -0.3879 -0.0694 -0.0892
14370TIP3    H164525   4.001   5.430  11.626 -1.8765 -1.4717  0.4640
14370TIP3    H264526   4.087   5.409  11.504 -0.2728  3.0611  0.6021
14371TIP3   OH264527   1.405   2.815   2.560 -0.2129 -0.4864 -0.5362
14371TIP3    H164528   1.359   2.848   2.482 -0.7841  1.6858  0.6474
14371TIP3    H264529   1.336   2.803   2.625  0.4148 -1.1261  0.0292
14372TIP3   OH264530   4.868   0.690  11.012  0.9916 -0.0541  0.4962
14372TIP3    H164531   4.854   0.614  11.069  1.6201 -1.1918 -0.8271
14372TIP3    H264532   4.963   0.703  11.012  0.9792  0.0420 -0.1653
14373TIP3   OH264533   5.190   0.347  16.664 -0.0521  0.1981 -0.3507
14373TIP3    H164534   5.210   0.358  16.757  0.8912  0.3510 -0.5650
14373TIP3    H264535   5.098   0.320  16.663  0.5704 -2.2479  0.7948
14374TIP3   OH264536   4.022   3.119   2.863 -0.5525  0.2078 -0.1605
14374TIP3    H164537   4.074   3.125   2.944 -0.0688 -2.6670 -0.1481
14374TIP3    H264538   4.086   3.100   2.795 -1.1556  0.9555 -0.9592
14375TIP3   OH264539   5.405   6.465   5.729 -0.3632  0.7567  0.3744
14375TIP3    H164540   5.348   6.389   5.742 -1.1925  0.7246 -2.6726
14375TIP3    H264541   5.382   6.525   5.799 -2.4282 -0.2772  0.6588
14376TIP3   OH264542   1.811   3.236  14.104  0.7314  0.8626  0.1856
14376TIP3    H164543   1.861   3.186  14.170  0.1804  1.2238  0.8921
14376TIP3    H264544   1.869   3.307  14.079  0.9302  0.7495  0.3194
14377TIP3   OH264545   1.535   1.518  16.807  0.1689 -0.1021 -0.5976
14377TIP3    H164546   1.535   1.609  16.838 -0.0362 -0.0986 -0.6090
14377TIP3    H264547   1.575   1.523  16.721 -1.5604  0.2678 -1.4292
14378TIP3   OH264548   5.330   3.934  15.100  0.0233 -0.6470 -0.7368
14378TIP3    H164549   5.397   3.972  15.044 -0.4165 -0.5805 -1.2194
14378TIP3    H264550   5.278   4.008  15.129  0.4171 -0.6434  0.0011
14379TIP3   OH264551   1.964   3.171  11.077  0.2840 -0.4103 -0.5921
14379TIP3    H164552   2.015   3.102  11.119  2.0376 -0.0619 -2.0445
14379TIP3    H264553   1.947   3.139  10.989 -0.4362  0.2752 -0.7133
14380TIP3   OH264554   5.679   4.132   0.185 -0.1124 -0.8262 -0.8238
14380TIP3    H164555   5.746   4.112   0.250 -0.2077  2.4174  0.4453
14380TIP3    H264556   5.597   4.104   0.226 -0.0588  0.2019  0.0187
14381TIP3   OH264557   5.228   4.378  16.131 -0.1019  0.6315  0.2543
14381TIP3    H164558   5.223   4.458  16.079  0.6426  0.1520 -0.5688
14381TIP3    H264559   5.260   4.311  16.071 -1.0456 -0.3839  0.8359
14382TIP3   OH264560   3.439   4.195  10.760 -0.3877 -0.0451  0.2621
14382TIP3    H164561   3.517   4.143  10.777  0.9245  1.6286 -0.3405
14382TIP3    H264562   3.376   4.133  10.722  0.4847 -1.5110  1.1434
14383TIP3   OH264563   5.333   3.674  13.367  0.0254 -0.2124  0.2428
14383TIP3    H164564   5.337   3.603  13.303 -0.0513 -0.5947  0.6549
14383TIP3    H264565   5.377   3.638  13.445 -2.4169 -0.8297  1.4242
14384TIP3   OH264566   0.360   5.192   4.125 -0.2072 -0.5431  0.2624
14384TIP3    H164567   0.319   5.198   4.211 -0.0839 -0.5027  0.3181
14384TIP3    H264568   0.445   5.235   4.135 -0.5676  0.2987 -0.1145
14385TIP3   OH264569   6.263   3.877   1.724  0.1679 -0.1949 -0.3360
14385TIP3    H164570   6.245   3.966   1.692 -0.5471  0.2617  1.2466
14385TIP3    H264571   6.350   3.883   1.763  0.8823 -0.6622 -1.7767
14386TIP3   OH264572   5.477   2.184  13.749 -0.1497  0.5462  0.2432
14386TIP3    H164573   5.414   2.203  13.679 -0.2161  1.5198  0.5583
14386TIP3    H264574   5.425   2.146  13.819 -0.0718 -0.5107 -0.2372
14387TIP3   OH264575   2.381   4.073   5.969 -0.0778  0.1518  0.1105
14387TIP3    H164576   2.389   4.129   6.046  0.2406  0.2543  0.0021
14387TIP3    H264577   2.371   3.985   6.004 -0.7099  0.2838  0.2861
14388TIP3   OH264578   1.161   0.082  13.587 -0.5990  0.4268 -0.4339
14388TIP3    H164579   1.154   0.178  13.588 -0.5429  0.4482 -1.2309
14388TIP3    H264580   1.143   0.056  13.677 -4.0389  0.9762 -0.8036
14389TIP3   OH264581   5.090   4.828   1.333  0.2859  0.0899  0.4343
14389TIP3    H164582   5.035   4.766   1.380 -0.2582 -0.4327 -0.8503
14389TIP3    H264583   5.095   4.793   1.244  1.4691  0.9287  0.1458
14390TIP3   OH264584   0.500   6.417   5.463 -0.5258 -0.4909 -0.2105
14390TIP3    H164585   0.490   6.498   5.413  0.9362 -0.1996 -0.0883
14390TIP3    H264586   0.428   6.419   5.527 -0.9703  0.3192 -0.7218
14391TIP3   OH264587   3.922   4.523  12.757 -0.1510 -0.0386  0.3427
14391TIP3    H164588   3.919   4.428  12.769  1.2958 -0.2420 -0.6415
14391TIP3    H264589   3.872   4.558  12.831  0.2869 -1.5138  1.3931
14392TIP3   OH264590   4.785   2.610   4.092 -0.3206  0.1071 -0.1225
14392TIP3    H164591   4.765   2.529   4.138 -0.3687 -0.1301 -0.5580
14392TIP3    H264592   4.719   2.672   4.122  0.2305  0.2398  0.8658
14393TIP3   OH264593   4.420   6.380   5.171  0.5095 -0.0167  0.0250
14393TIP3    H164594   4.363   6.329   5.114  0.1761  0.2135  0.1445
14393TIP3    H264595   4.381   6.372   5.258  1.7928 -1.5020  0.4986
14394TIP3   OH264596   0.707   3.040  16.722  0.0082  0.0450 -0.2379
14394TIP3    H164597   0.749   2.965  16.680 -0.0773  0.1496 -0.5141
14394TIP3    H264598   0.684   3.099  16.650 -0.0937  0.2520 -0.0407
14395TIP3   OH264599   1.603   0.912   5.484  0.0605  0.1855  0.2455
14395TIP3    H164600   1.624   0.996   5.443 -1.9065 -0.3980 -2.1550
14395TIP3    H264601   1.510   0.899   5.467 -0.4391 -1.1213  3.2462
14396TIP3   OH264602   2.280   3.696   5.765 -0.0095  0.3833 -0.1201
14396TIP3    H164603   2.363   3.721   5.805 -1.0038  1.3928  1.4277
14396TIP3    H264604   2.221   3.682   5.839 -2.3006  3.4710 -1.1602
14397TIP3   OH264605   2.990   6.179  13.830  0.0715  0.2031  0.3721
14397TIP3    H164606   3.019   6.163  13.920 -0.1945 -1.8468  0.1436
14397TIP3    H264607   3.071   6.188  13.780  0.2977 -1.2965  0.4197
14398TIP3   OH264608   6.503   3.140  16.828  0.5995  0.3836 -0.5599
14398TIP3    H164609   6.562   3.209  16.861  0.5960  0.6666 -1.1262
14398TIP3    H264610   6.544   3.058  16.856  1.0317  0.5918 -0.5695
14399TIP3   OH264611   3.979   3.199  14.179  0.1409 -0.6009 -0.0184
14399TIP3    H164612   3.984   3.228  14.088 -0.9719 -0.1086  0.0579
14399TIP3    H264613   4.042   3.254  14.225 -0.9348  0.8002 -0.1211
14400TIP3   OH264614   4.221   3.134   3.063  0.1243  0.0084 -0.3108
14400TIP3    H164615   4.291   3.189   3.096  0.5769 -0.8512  0.2038
14400TIP3    H264616   4.182   3.094   3.141 -0.4317 -0.1204 -0.6422
14401TIP3   OH264617   0.163   2.608  16.102 -0.7900  0.2257  0.0435
14401TIP3    H164618   0.112   2.587  16.180  0.6953 -2.0731  0.4872
14401TIP3    H264619   0.232   2.667  16.133  0.4622 -1.5516  0.7740
14402TIP3   OH264620   4.853   5.898   2.651  0.5560 -0.1791  0.5692
14402TIP3    H164621   4.902   5.927   2.728 -0.9698  1.1097  1.1247
14402TIP3    H264622   4.815   5.815   2.677 -0.8552  0.7566  1.6960
14403TIP3   OH264623   1.699   4.696   4.590 -0.1027  0.4511 -0.1794
14403TIP3    H164624   1.653   4.651   4.519  0.3893  0.5382 -0.5601
14403TIP3    H264625   1.656   4.667   4.670  1.1097 -1.8426 -0.2883
14404TIP3   OH264626   2.860   2.507  12.010  0.1813  0.8702 -0.4852
14404TIP3    H164627   2.902   2.433  12.054  1.7688  0.3353 -2.7260
14404TIP3    H264628   2.920   2.580  12.024 -0.4118  1.2615  0.0681
14405TIP3   OH264629   6.201   5.024  11.264 -0.4575 -0.2693  0.0850
14405TIP3    H164630   6.247   4.947  11.231  1.2468 -0.2653  2.2103
14405TIP3    H264631   6.170   5.070  11.186 -0.1328 -2.2707 -1.2776
14406TIP3   OH264632   4.793   2.718   0.902  0.0872 -0.1442 -0.4051
14406TIP3    H164633   4.714   2.667   0.882 -0.1672 -0.0099  0.2484
14406TIP3    H264634   4.818   2.689   0.990  1.4239 -1.0228 -1.0387
14407TIP3   OH264635   5.033   0.152   3.475 -0.0722 -0.2404 -0.6156
14407TIP3    H164636   5.069   0.067   3.501  0.7416  0.1624 -0.3799
14407TIP3    H264637   5.110   0.207   3.461 -0.5880  0.4188 -0.9114
14408TIP3   OH264638   2.550   0.620   9.850  0.3065 -0.3008 -0.5702
14408TIP3    H164639   2.468   0.652   9.889 -0.2028 -0.5324 -1.4397
14408TIP3    H264640   2.594   0.699   9.818  0.8926 -0.0658  0.7483
14409TIP3   OH264641   6.021   4.341   0.419 -0.0670  0.6225  0.0580
14409TIP3    H164642   6.017   4.248   0.438 -2.1611  1.1506  2.7330
14409TIP3    H264643   6.076   4.378   0.487 -0.6804  1.5435  0.0794
14410TIP3   OH264644   0.562   5.194   3.615  0.4338 -0.6024 -1.1169
14410TIP3    H164645   0.507   5.196   3.537 -1.4236  1.6095  0.1374
14410TIP3    H264646   0.501   5.196   3.688  2.1440 -1.5622  0.4264
14411TIP3   OH264647   1.173   3.064  16.555  0.9734 -0.0018 -0.0982
14411TIP3    H164648   1.175   3.013  16.636 -1.2322 -0.2041 -0.1087
14411TIP3    H264649   1.254   3.115  16.557  1.1603 -0.2692  2.0418
14412TIP3   OH264650   2.690   1.401   4.038 -0.1571 -0.2217  0.1195
14412TIP3    H164651   2.734   1.393   3.953 -4.0284 -1.4330 -2.0494
14412TIP3    H264652   2.730   1.333   4.092  0.8864 -0.9794 -1.5163
14413TIP3   OH264653   4.875   0.002  12.953 -0.4585 -0.0506  0.1246
14413TIP3    H164654   4.942   0.051  12.904 -1.8345  2.1258  0.3009
14413TIP3    H264655   4.793   0.023  12.909 -1.2076 -1.7925  0.5912
14414TIP3   OH264656   1.769   1.469   4.043 -1.3435 -0.2298 -0.1206
14414TIP3    H164657   1.715   1.390   4.031 -0.4385 -0.6781 -1.3864
14414TIP3    H264658   1.836   1.462   3.976 -0.6335  1.1195  0.4322
14415TIP3   OH264659   5.694   0.378  12.469 -0.1601  0.6083  0.2356
14415TIP3    H164660   5.750   0.440  12.423  1.0247 -1.6099 -1.4753
14415TIP3    H264661   5.732   0.372  12.557  0.5001  1.2902  0.0098
14416TIP3   OH264662   2.033   2.510  16.918  0.3337  0.5279 -0.1273
14416TIP3    H164663   2.047   2.416  16.924  1.3556  0.7554  2.5234
14416TIP3    H264664   2.043   2.530  16.825  0.7676 -1.8674 -0.6610
14417TIP3   OH264665   4.670   0.450  12.470 -0.1550  0.0439 -0.1352
14417TIP3    H164666   4.594   0.395  12.457  0.1603 -0.1871 -1.0461
14417TIP3    H264667   4.742   0.388  12.484 -0.1138  0.2576  0.6462
14418TIP3   OH264668   3.478   6.633   1.453  0.2043 -0.6101  0.6725
14418TIP3    H164669   3.442   6.665   1.535  0.2915 -1.2609  0.9693
14418TIP3    H264670   3.535   6.560   1.478  1.4906  0.1946  0.1825
14419TIP3   OH264671   0.982   5.916  15.833 -0.1072 -0.1618 -0.4196
14419TIP3    H164672   1.048   5.954  15.891 -0.6097  1.1792 -0.6985
14419TIP3    H264673   0.978   5.824  15.859  1.2055 -0.0657  0.2193
14420TIP3   OH264674   2.777   3.907   3.784 -0.6985  0.3911  0.1148
14420TIP3    H164675   2.841   3.845   3.749 -1.1590  0.5382 -1.0106
14420TIP3    H264676   2.812   3.932   3.870 -1.0615 -2.2906  1.1536
14421TIP3   OH264677   4.256   3.896  14.808  0.0148  0.1583  0.0641
14421TIP3    H164678   4.222   3.951  14.878 -2.3986 -1.6179  0.3963
14421TIP3    H264679   4.351   3.905  14.815 -0.2337  2.4503  1.5213
14422TIP3   OH264680   3.403   6.142   0.859 -0.3645 -0.1502 -0.4593
14422TIP3    H164681   3.398   6.181   0.946  3.1100 -0.0106 -0.1906
14422TIP3    H264682   3.400   6.218   0.799 -1.3981 -0.1480 -0.4266
14423TIP3   OH264683   4.531   5.733  15.011  0.4243  0.0428  0.7844
14423TIP3    H164684   4.442   5.743  15.046  0.6385 -0.0309  1.3645
14423TIP3    H264685   4.581   5.803  15.053  0.7718 -0.2819  0.9219
14424TIP3   OH264686   3.912   5.611   5.824 -0.0876  0.2987  0.2292
14424TIP3    H164687   3.884   5.525   5.856  2.9633 -0.7728  0.3793
14424TIP3    H264688   3.868   5.622   5.740 -1.6706 -0.6813  0.8754
14425TIP3   OH264689   3.977   1.180  16.533  0.7746  0.0150 -0.5498
14425TIP3    H164690   3.974   1.135  16.617 -1.3259 -1.4738 -1.3265
14425TIP3    H264691   3.959   1.272  16.553 -0.5426 -0.4632  0.5586
14426TIP3   OH264692   4.269   6.578  15.134  0.5481  0.1135 -0.0636
14426TIP3    H164693   4.236   6.501  15.180 -1.1278  2.4074  2.9702
14426TIP3    H264694   4.348   6.603  15.182  1.8454 -0.3898 -1.8512
14427TIP3   OH264695   2.916   2.689   5.572 -0.1587 -0.1083 -0.5643
14427TIP3    H164696   2.905   2.619   5.636 -1.0163  1.2916  0.8803
14427TIP3    H264697   2.828   2.721   5.554  0.1690  0.2799 -1.5852
14428TIP3   OH264698   0.122   5.936  12.267 -0.2123  0.4984  0.4046
14428TIP3    H164699   0.053   5.872  12.285 -0.1011  0.4468  0.6576
14428TIP3    H264700   0.198   5.883  12.245 -0.1588  0.5462  0.4736
14429TIP3   OH264701   5.146   3.000  13.517  0.3596 -0.3056  0.2571
14429TIP3    H164702   5.113   2.917  13.551  0.2745 -0.8982 -1.2002
14429TIP3    H264703   5.181   2.978  13.431  1.8928  0.8605  0.5422
14430TIP3   OH264704   6.457   3.903  14.360  0.2001  0.1341  0.4356
14430TIP3    H164705   6.416   3.867  14.281  1.4740 -0.6486  0.0850
14430TIP3    H264706   6.522   3.837  14.385  0.7277  0.9768  1.3784
14431TIP3   OH264707   4.268   3.912   2.626  0.2213 -0.3230 -0.0257
14431TIP3    H164708   4.217   3.837   2.595 -2.3637  0.8886  1.0033
14431TIP3    H264709   4.268   3.973   2.553  1.2225 -0.7625 -0.4129
14432TIP3   OH264710   5.242   2.418  13.438  0.9388 -0.2891 -0.3028
14432TIP3    H164711   5.265   2.483  13.371  0.5280 -0.8576 -0.9989
14432TIP3    H264712   5.309   2.350  13.430  1.3440  0.0153  0.3991
14433TIP3   OH264713   0.073   3.035  10.676 -0.9667 -0.2935  0.1453
14433TIP3    H164714   0.039   3.103  10.734  0.3814 -0.8268  1.6670
14433TIP3    H264715   0.168   3.050  10.676 -0.8121 -1.1857 -0.7925
14434TIP3   OH264716   4.331   4.954   0.096  0.4926 -0.0065  0.2301
14434TIP3    H164717   4.421   4.965   0.125  0.6102 -3.0359  1.3683
14434TIP3    H264718   4.337   4.895   0.021 -0.5474 -0.6647  0.6432
14435TIP3   OH264719   2.131   2.935   5.138  0.2298 -0.5248 -0.1701
14435TIP3    H164720   2.092   2.860   5.183 -1.5778  0.9614  0.8959
14435TIP3    H264721   2.160   2.992   5.209  0.2430  0.4331 -0.9391
14436TIP3   OH264722   6.571   2.503  11.170  0.2094  0.1556  0.8200
14436TIP3    H164723   6.621   2.465  11.098 -0.1572 -1.4837  1.3845
14436TIP3    H264724   6.545   2.590  11.138  1.6289  0.2149 -0.2707
14437TIP3   OH264725   4.228   4.730   5.394 -0.0544  0.0984  0.3038
14437TIP3    H164726   4.228   4.805   5.453 -2.1369 -0.8412  1.6313
14437TIP3    H264727   4.291   4.752   5.326  1.7754  1.6315  2.3768
14438TIP3   OH264728   2.676   6.424  10.612  0.2305 -0.3342  0.8329
14438TIP3    H164729   2.722   6.495  10.567  1.9402 -0.6859  1.9293
14438TIP3    H264730   2.685   6.349  10.553 -1.7256  0.3260 -0.4065
14439TIP3   OH264731   0.025   5.816  16.407 -0.3423  0.3643  0.0731
14439TIP3    H164732   0.009   5.884  16.341 -1.5198  1.3815  1.3385
14439TIP3    H264733   0.003   5.858  16.490  1.1899 -0.8487  1.1456
14440TIP3   OH264734   1.120   5.021  16.295 -0.3243 -0.2265 -0.1871
14440TIP3    H164735   1.171   5.038  16.216 -2.9343  0.5857 -1.8187
14440TIP3    H264736   1.129   5.102  16.347  1.6028 -0.8601  0.5381
14441TIP3   OH264737   6.775   0.020  16.754  0.0306  0.1982 -0.1563
14441TIP3    H164738   6.709   0.077  16.795 -1.0268 -0.3155 -1.0679
14441TIP3    H264739   6.846   0.015  16.818 -0.5024  1.3511  0.5579
14442TIP3   OH264740   2.784   6.745  14.781  1.0670 -0.1902  0.3034
14442TIP3    H164741   2.833   6.665  14.800  3.4016  1.0612 -0.0907
14442TIP3    H264742   2.851   6.813  14.773 -0.6075  1.3414 -1.9779
14443TIP3   OH264743   3.364   0.229   4.193 -0.7343  0.3709 -0.4538
14443TIP3    H164744   3.381   0.285   4.269  0.9246 -0.1395 -0.4009
14443TIP3    H264745   3.367   0.140   4.228 -0.1354  0.1394 -1.0684
14444TIP3   OH264746   1.561   3.016   4.138 -0.0780 -0.2630  0.0934
14444TIP3    H164747   1.570   2.943   4.077  1.3932 -0.7742  0.8738
14444TIP3    H264748   1.646   3.021   4.182 -0.4021  1.4370  0.5975
14445TIP3   OH264749   4.947   5.036  16.397 -0.1562 -0.7388  0.4905
14445TIP3    H164750   4.949   5.118  16.348 -1.8075  0.3040  2.0580
14445TIP3    H264751   4.891   4.978  16.345 -0.6860 -0.1522  0.3965
14446TIP3   OH264752   2.135   3.602   5.178 -0.1923 -0.4588 -0.2949
14446TIP3    H164753   2.093   3.687   5.165 -0.3718 -0.6572 -1.0862
14446TIP3    H264754   2.212   3.621   5.232 -0.4281  0.1466 -0.1613
14447TIP3   OH264755   5.029   3.800  13.598 -0.2347  0.0430  0.5092
14447TIP3    H164756   5.119   3.808  13.631 -0.6226  1.5756  1.3019
14447TIP3    H264757   4.987   3.739  13.658  0.0416  0.0087  0.6696
14448TIP3   OH264758   0.995   1.657   5.602 -0.2892 -0.0748 -0.3720
14448TIP3    H164759   1.068   1.598   5.584  0.0455  0.6243 -1.4660
14448TIP3    H264760   1.018   1.738   5.555 -1.5206  0.3306 -0.3118
14449TIP3   OH264761   5.358   0.434   4.463  0.3384  0.3360  0.2748
14449TIP3    H164762   5.450   0.457   4.474  0.1604  0.5524  1.4289
14449TIP3    H264763   5.352   0.401   4.373  0.9189  3.2974 -0.9839
14450TIP3   OH264764   5.509   0.172  14.747 -0.1772 -0.0468 -0.4561
14450TIP3    H164765   5.583   0.125  14.785 -1.4505 -2.8457 -1.1098
14450TIP3    H264766   5.499   0.250  14.801  2.7318  0.0463  0.1101
14451TIP3   OH264767   1.035   6.075   0.355 -0.1921  0.8281 -0.2463
14451TIP3    H164768   0.992   6.157   0.379  0.4531  1.2994 -0.6667
14451TIP3    H264769   0.972   6.007   0.379 -1.1988  1.4983 -0.9140
14452TIP3   OH264770   6.158   5.694  14.648 -0.0695 -0.1469  0.4102
14452TIP3    H164771   6.079   5.726  14.605  1.4980  2.2641 -0.9394
14452TIP3    H264772   6.128   5.660  14.732 -2.5151  0.7646 -0.0156
14453TIP3   OH264773   5.395   5.539  11.055  0.1592 -0.3516  0.4667
14453TIP3    H164774   5.391   5.446  11.032 -0.0385 -0.3491  0.4895
14453TIP3    H264775   5.349   5.583  10.983 -0.3262 -0.3305  0.7882
14454TIP3   OH264776   3.049   1.179   3.536  0.6392 -0.2052  0.2128
14454TIP3    H164777   3.043   1.117   3.609  1.3129 -0.2323  0.2483
14454TIP3    H264778   3.061   1.123   3.459  2.0805 -0.0950  0.3429
14455TIP3   OH264779   3.541   2.306   1.372 -0.1517 -0.1712 -0.3628
14455TIP3    H164780   3.564   2.395   1.399  1.5097 -0.7930  0.4143
14455TIP3    H264781   3.461   2.285   1.421  1.1490 -0.1802  1.8711
14456TIP3   OH264782   4.947   1.652   5.954  0.9234  0.0301  0.5057
14456TIP3    H164783   4.949   1.563   5.987  0.4576  0.0631  0.6342
14456TIP3    H264784   4.855   1.667   5.931  1.5062 -0.6792 -2.7224
14457TIP3   OH264785   4.236   1.201   2.132  0.2775  0.1468  0.3593
14457TIP3    H164786   4.288   1.206   2.051 -0.9996 -0.9345 -0.5917
14457TIP3    H264787   4.170   1.135   2.112 -2.5399  2.6291  0.8931
14458TIP3   OH264788   5.979   2.234  12.842 -0.3485  0.3747 -0.0283
14458TIP3    H164789   5.909   2.285  12.883 -0.9963 -0.3248 -0.2689
14458TIP3    H264790   5.957   2.143  12.859  0.9212  0.1544  0.5834
14459TIP3   OH264791   3.342   2.204   3.563 -0.4312 -0.3254 -0.1240
14459TIP3    H164792   3.351   2.298   3.549 -1.0690 -0.0478  1.1160
14459TIP3    H264793   3.432   2.170   3.561  0.1480  0.8087  2.3332
14460TIP3   OH264794   5.976   3.644  13.337  0.1244 -0.4382 -0.0388
14460TIP3    H164795   5.955   3.712  13.273  1.0372 -0.6649 -0.6001
14460TIP3    H264796   6.020   3.575  13.286 -0.8556 -1.4968  0.4957
14461TIP3   OH264797   6.198   6.550  17.097  0.2284 -0.7683  0.6183
14461TIP3    H164798   6.262   6.545  17.027  0.0873 -2.0228  0.5732
14461TIP3    H264799   6.115   6.523  17.057 -0.2029  0.1494  0.8541
14462TIP3   OH264800   2.099   6.608  16.756 -0.2078 -0.3921  0.2498
14462TIP3    H164801   2.067   6.518  16.762 -1.2785  0.0364  1.2241
14462TIP3    H264802   2.093   6.642  16.845  0.0297  0.6997 -0.1348
14463TIP3   OH264803   0.213   0.301  14.776  0.3947 -0.2935 -0.8464
14463TIP3    H164804   0.126   0.261  14.771  0.2982 -0.1576 -0.3160
14463TIP3    H264805   0.233   0.305  14.869  1.5978 -1.6291 -1.0243
14464TIP3   OH264806   3.567   6.236   1.302  0.0484  0.2040  0.0077
14464TIP3    H164807   3.625   6.221   1.227  0.4093 -3.2612  0.8346
14464TIP3    H264808   3.608   6.309   1.349  2.2459 -0.3880 -0.8617
14465TIP3   OH264809   0.714   3.381   0.181  0.0391 -0.4343  0.0430
14465TIP3    H164810   0.801   3.342   0.174  0.3832  0.1676  0.8784
14465TIP3    H264811   0.730   3.474   0.199 -0.7573 -0.5288  1.4209
14466TIP3   OH264812   6.038   3.899   4.754 -0.4001 -0.6853 -0.1286
14466TIP3    H164813   6.030   3.972   4.693 -0.9073  0.0011  0.7564
14466TIP3    H264814   5.973   3.836   4.724  0.1130 -0.8423 -0.9585
14467TIP3   OH264815   6.592   6.311  16.615 -0.0726 -0.1148 -0.5525
14467TIP3    H164816   6.561   6.224  16.640  0.3531  0.2519  1.4277
14467TIP3    H264817   6.513   6.357  16.587 -1.0132 -0.0010  1.9837
14468TIP3   OH264818   5.426   4.273   5.082 -0.3261  0.8298 -0.2173
14468TIP3    H164819   5.476   4.208   5.131 -3.4746  0.3534  2.7514
14468TIP3    H264820   5.474   4.355   5.096  0.0347  0.3161  2.0279
14469TIP3   OH264821   5.686   0.440   4.125 -0.4626  0.0382  0.4858
14469TIP3    H164822   5.634   0.379   4.179 -1.2102  0.0958 -0.1403
14469TIP3    H264823   5.768   0.451   4.173 -0.7095 -0.6948  1.1045
14470TIP3   OH264824   0.933   1.203   5.099  0.3216 -0.1075 -0.3292
14470TIP3    H164825   0.844   1.170   5.114  0.3013  0.0619 -0.0743
14470TIP3    H264826   0.991   1.132   5.125  0.3398  0.7011  1.9993
14471TIP3   OH264827   2.724   3.448  13.131  0.4106 -0.1361 -0.1284
14471TIP3    H164828   2.813   3.436  13.097 -0.1079 -0.9688 -1.2771
14471TIP3    H264829   2.694   3.360  13.150 -0.2024  0.1360  0.1627
14472TIP3   OH264830   2.650   5.669   2.726 -0.1207  0.3925 -0.1638
14472TIP3    H164831   2.743   5.651   2.735  0.0841  1.0130 -0.9317
14472TIP3    H264832   2.645   5.750   2.675 -1.0722 -1.7412 -3.8374
14473TIP3   OH264833   4.667   3.443   0.053  0.5844  0.2221  0.0493
14473TIP3    H164834   4.597   3.508   0.047  0.0526  0.1129  3.3777
14473TIP3    H264835   4.746   3.493   0.069  0.4874  0.1534  0.7657
14474TIP3   OH264836   2.314   6.372  14.910 -0.1054 -0.7724  0.4094
14474TIP3    H164837   2.351   6.444  14.859 -0.8670 -1.4601 -1.2038
14474TIP3    H264838   2.220   6.387  14.909 -0.0669  0.5124  3.7786
14475TIP3   OH264839   0.822   6.186   2.325 -0.6438 -0.3868  0.1274
14475TIP3    H164840   0.879   6.220   2.394 -0.1703  1.9646 -1.3071
14475TIP3    H264841   0.759   6.130   2.371  2.8107 -3.3106  1.7801
14476TIP3   OH264842   4.760   3.237  10.559 -0.0610 -0.2581  0.3243
14476TIP3    H164843   4.720   3.277  10.481 -0.4316 -1.5580 -0.1788
14476TIP3    H264844   4.756   3.143  10.542  0.1681 -0.5497  1.7758
14477TIP3   OH264845   2.382   4.187   4.588  0.2569  0.3510  0.7397
14477TIP3    H164846   2.370   4.124   4.659  0.5710  1.2451  1.6123
14477TIP3    H264847   2.326   4.155   4.518  1.6822 -1.8459  0.4888
14478TIP3   OH264848   4.379   5.514  15.473  0.1240  0.3701  0.6096
14478TIP3    H164849   4.409   5.502  15.383 -0.5001 -0.8852  0.5384
14478TIP3    H264850   4.315   5.584  15.468 -0.1081  0.1228  0.0200
14479TIP3   OH264851   1.257   4.175  17.072  0.8295 -0.5473  0.3972
14479TIP3    H164852   1.326   4.139  17.017 -0.4852 -2.2108 -0.2747
14479TIP3    H264853   1.284   4.155  17.162  0.7604 -2.0845  0.0926
14480TIP3   OH264854   0.514   1.959  11.514  0.0722  0.0129 -0.5168
14480TIP3    H164855   0.576   1.892  11.543 -2.0023 -2.0904 -0.6370
14480TIP3    H264856   0.557   2.001  11.439  1.2427 -1.5294 -0.7622
14481TIP3   OH264857   3.330   3.087   5.423  0.0630 -0.0785 -0.3586
14481TIP3    H164858   3.414   3.049   5.445  0.2568 -1.2598 -2.8276
14481TIP3    H264859   3.349   3.179   5.403  0.2321  0.4144  1.8151
14482TIP3   OH264860   0.759   2.627   4.362  0.0868 -0.3860  0.7363
14482TIP3    H164861   0.777   2.720   4.369 -1.4663 -0.0697  0.9145
14482TIP3    H264862   0.824   2.594   4.300  0.5167  0.8523  0.5145
14483TIP3   OH264863   1.234   3.726   2.988  0.5299  0.2761 -0.3336
14483TIP3    H164864   1.301   3.751   2.925  2.1268  0.3241  1.2896
14483TIP3    H264865   1.279   3.728   3.073 -1.7110  0.9642  0.9166
14484TIP3   OH264866   5.971   1.706  14.557  0.2457  0.0685 -0.1081
14484TIP3    H164867   5.951   1.628  14.608  2.2039 -0.8076 -0.5841
14484TIP3    H264868   6.011   1.766  14.620  0.4298 -0.0608 -0.0989
14485TIP3   OH264869   2.706   5.959   2.832 -0.2277  0.0878 -0.2424
14485TIP3    H164870   2.775   5.893   2.828  0.5099  0.7994  0.3911
14485TIP3    H264871   2.723   6.016   2.757 -0.5361 -0.1284 -0.4765
14486TIP3   OH264872   4.372   2.377  14.135 -0.6198 -0.1423  0.1037
14486TIP3    H164873   4.352   2.465  14.167 -1.1049  0.7772 -2.5012
14486TIP3    H264874   4.429   2.391  14.060  0.5822 -2.1685  0.5721
14487TIP3   OH264875   3.888   0.182  12.108 -0.3588  0.3357  0.2680
14487TIP3    H164876   3.921   0.166  12.020  0.3706  0.0102  0.5966
14487TIP3    H264877   3.839   0.264  12.101  0.6457  0.9064 -0.1891
14488TIP3   OH264878   0.807   6.506  13.914 -0.1270 -0.0643  0.2479
14488TIP3    H164879   0.794   6.542  13.827 -0.1591  2.8526  1.3561
14488TIP3    H264880   0.795   6.411  13.903 -0.0989  0.2015 -2.8634
14489TIP3   OH264881   5.068   3.936   3.134  0.5427  0.0659 -0.0155
14489TIP3    H164882   5.148   3.945   3.185  0.7702 -1.2574 -0.1028
14489TIP3    H264883   5.041   4.026   3.115  2.0107  0.5307  0.0125
14490TIP3   OH264884   1.474   4.509  14.765  0.3328  0.2138  0.7200
14490TIP3    H164885   1.558   4.553  14.780  0.9557 -0.1841 -1.2160
14490TIP3    H264886   1.462   4.513  14.670 -2.2650  0.9672  1.0076
14491TIP3   OH264887   1.122   4.520   0.490 -0.2699  0.4545 -0.6039
14491TIP3    H164888   1.063   4.484   0.556  1.3298 -0.6404  0.2965
14491TIP3    H264889   1.112   4.462   0.415 -0.7478  0.6138 -0.6679
14492TIP3   OH264890   3.677   6.046  10.992  0.4312 -0.2975  0.3446
14492TIP3    H164891   3.754   6.082  11.036 -0.9416 -0.9534  3.6091
14492TIP3    H264892   3.606   6.105  11.018 -0.2511  0.2998 -2.5919
14493TIP3   OH264893   0.494   2.523   2.312 -0.6927  0.8136  0.0610
14493TIP3    H164894   0.403   2.502   2.333 -0.1676 -0.8872  0.8606
14493TIP3    H264895   0.534   2.545   2.396 -0.3414  1.4586 -0.2706
14494TIP3   OH264896   5.215   3.712   3.342  0.1287  0.2403  0.6286
14494TIP3    H164897   5.229   3.700   3.436  1.1797 -1.3468  0.3011
14494TIP3    H264898   5.237   3.804   3.326  4.0967 -0.4394  1.2757
14495TIP3   OH264899   6.681   2.961   1.857  0.0785  0.7501 -0.1916
14495TIP3    H164900   6.614   2.911   1.905 -0.0398  0.3969 -0.7200
14495TIP3    H264901   6.764   2.922   1.884 -0.0041  0.3726 -0.4810
14496TIP3   OH264902   6.130   3.516  16.523 -0.2704 -0.1657  0.0130
14496TIP3    H164903   6.038   3.492  16.509 -0.4859  0.2886  0.5888
14496TIP3    H264904   6.160   3.457  16.592 -0.2479 -0.0442  0.1081
14497TIP3   OH264905   0.588   2.714  17.011  0.1495 -0.7012  0.4132
14497TIP3    H164906   0.650   2.787  17.001 -1.8666  1.2340  1.0676
14497TIP3    H264907   0.597   2.663  16.931  1.7009  0.2278 -0.0432
14498TIP3   OH264908   5.257   1.020  15.858 -0.1572 -0.1401  0.2169
14498TIP3    H164909   5.304   0.936  15.862 -0.2912 -0.1873  0.8652
14498TIP3    H264910   5.165   0.997  15.873  0.0397  0.3258  2.4876
14499TIP3   OH264911   0.728   2.970  11.707 -0.6444 -0.3448  0.0502
14499TIP3    H164912   0.805   2.916  11.725 -0.6329 -0.3821 -0.1178
14499TIP3    H264913   0.673   2.917  11.650 -1.6513 -1.0644  1.6031
14500TIP3   OH264914   3.039   5.359  14.220  0.4442 -0.6678  0.5921
14500TIP3    H164915   3.113   5.318  14.265  1.3549  0.9573  0.6148
14500TIP3    H264916   3.063   5.356  14.127  1.1597  1.0162  0.7007
14501TIP3   OH264917   2.067   0.958   2.220 -0.2906  0.0162 -0.5351
14501TIP3    H164918   2.047   0.958   2.314 -0.4562 -0.4539 -0.5686
14501TIP3    H264919   2.058   1.049   2.193  0.8445  0.3514  0.1403
14502TIP3   OH264920   4.579   4.127   0.883 -0.5891  0.9297 -0.2818
14502TIP3    H164921   4.571   4.186   0.808 -0.2396  0.3191 -0.8123
14502TIP3    H264922   4.489   4.110   0.910 -0.8540 -0.4233 -1.8376
14503TIP3   OH264923   3.447   2.142   3.189 -0.0888  0.3019 -0.6258
14503TIP3    H164924   3.415   2.067   3.240 -0.7377  0.2955 -1.0379
14503TIP3    H264925   3.387   2.149   3.116 -0.1358  1.3325 -0.5036
14504TIP3   OH264926   6.366   2.941  13.822 -0.1146 -0.0527  0.1282
14504TIP3    H164927   6.296   2.891  13.779 -0.9110 -0.9363  2.3188
14504TIP3    H264928   6.445   2.891  13.806 -0.0342  0.6013 -1.8027
14505TIP3   OH264929   2.376   3.606   0.854  0.0801  0.4690 -0.1190
14505TIP3    H164930   2.372   3.686   0.802  1.2988  0.5358 -0.1353
14505TIP3    H264931   2.398   3.537   0.792 -0.9377  0.1053 -0.0998
14506TIP3   OH264932   5.068   1.166  13.049  0.3579  0.1812  0.2807
14506TIP3    H164933   5.042   1.078  13.076  2.2799 -0.3459  0.5805
14506TIP3    H264934   5.109   1.204  13.127 -0.2737  1.2811  0.0957
14507TIP3   OH264935   5.785   6.294   1.878  0.1118 -0.3452 -0.0072
14507TIP3    H164936   5.873   6.327   1.863  0.1245 -0.5666 -0.4385
14507TIP3    H264937   5.730   6.373   1.878  0.3929 -0.1299  1.0107
14508TIP3   OH264938   3.583   5.731   4.736  0.6630 -0.6838 -0.2260
14508TIP3    H164939   3.541   5.699   4.817 -0.2797 -1.4352 -0.9816
14508TIP3    H264940   3.570   5.660   4.673 -0.5486  0.7464 -1.6700
14509TIP3   OH264941   2.236   1.022   3.171 -0.5167 -0.2481  0.4128
14509TIP3    H164942   2.257   1.086   3.103  0.0338 -0.1519  0.6654
14509TIP3    H264943   2.145   0.997   3.154 -0.5557  0.1832 -0.0244
14510TIP3   OH264944   1.677   1.211   5.489  0.0820 -0.4109  0.2606
14510TIP3    H164945   1.687   1.235   5.396 -1.0801 -0.2277  0.1731
14510TIP3    H264946   1.588   1.238   5.511  0.1172 -1.0816  1.2521
14511TIP3   OH264947   4.656   4.587   5.205  0.5538 -0.1718  0.3802
14511TIP3    H164948   4.649   4.516   5.142  4.1217  0.4602 -0.9728
14511TIP3    H264949   4.688   4.545   5.285 -0.5793 -0.4911  0.6819
14512TIP3   OH264950   1.529   1.670  10.958 -0.3498  0.2671  0.2159
14512TIP3    H164951   1.493   1.601  10.901  0.6175 -1.1489  1.2286
14512TIP3    H264952   1.624   1.654  10.956 -0.2118  0.8691  1.3823
14513TIP3   OH264953   2.963   4.617  15.407  0.4269  0.1394 -0.3334
14513TIP3    H164954   3.002   4.703  15.427 -1.1527  0.9614 -0.6321
14513TIP3    H264955   2.934   4.584  15.491 -1.9600  1.4626 -0.5432
14514TIP3   OH264956   0.453   1.527   2.664  0.4915 -0.3184  0.6009
14514TIP3    H164957   0.525   1.467   2.644  0.0695 -0.9948  1.0727
14514TIP3    H264958   0.435   1.514   2.757 -0.9447 -0.9572  0.2644
14515TIP3   OH264959   4.753   0.927  10.857  0.0265  0.6269 -0.0855
14515TIP3    H164960   4.846   0.942  10.870  0.1619 -0.6306  0.5924
14515TIP3    H264961   4.744   0.832  10.856 -1.5822  0.6056  2.9620
14516TIP3   OH264962   6.088   5.150   0.758  0.2129 -0.3809 -0.1751
14516TIP3    H164963   6.174   5.111   0.771  0.3041  0.2769  1.5005
14516TIP3    H264964   6.088   5.178   0.667  1.3078 -1.4667 -0.5318
14517TIP3   OH264965   1.670   2.350  12.489 -0.4665 -0.4056  0.0551
14517TIP3    H164966   1.589   2.324  12.532 -2.0906  1.3759 -1.6892
14517TIP3    H264967   1.666   2.308  12.403  0.2733 -0.0159 -0.1817
14518TIP3   OH264968   1.901   2.887   2.323  0.3535 -0.3532  0.0428
14518TIP3    H164969   1.928   2.811   2.374  1.2918  0.5874  0.9854
14518TIP3    H264970   1.980   2.941   2.317  0.4605 -0.6696 -2.8929
14519TIP3   OH264971   0.755   2.031  13.305 -0.4144  0.2284 -0.8548
14519TIP3    H164972   0.692   2.095  13.339  1.2257  1.6644 -0.3693
14519TIP3    H264973   0.831   2.084  13.280  1.2517 -1.5972  0.1241
14520TIP3   OH264974   4.571   1.957   1.393 -0.1184  0.1723  0.1040
14520TIP3    H164975   4.480   1.959   1.420 -1.1908 -0.9196 -2.9295
14520TIP3    H264976   4.600   1.868   1.413  0.2289  0.4607  0.8947
14521TIP3   OH264977   4.779   6.031   1.112  0.2109 -0.2429  0.4113
14521TIP3    H164978   4.734   6.064   1.190  0.5006  0.7555  0.1761
14521TIP3    H264979   4.759   6.096   1.045 -1.1462 -1.7537 -0.7285
14522TIP3   OH264980   4.072   3.499  13.768  0.0227  0.1883  0.2537
14522TIP3    H164981   4.080   3.453  13.684 -1.3291  1.2012 -0.4638
14522TIP3    H264982   4.011   3.571  13.751 -3.2726 -1.6610  2.9457
14523TIP3   OH264983   5.439   2.514   5.872  0.3164 -0.5038 -0.1047
14523TIP3    H164984   5.510   2.549   5.926  0.5349 -0.9413 -0.1099
14523TIP3    H264985   5.371   2.491   5.934 -0.2035  0.7810 -0.1661
14524TIP3   OH264986   6.287   1.508  12.733  0.5638 -0.1206 -0.1220
14524TIP3    H164987   6.324   1.495  12.820 -0.2193  0.2264  0.2684
14524TIP3    H264988   6.352   1.563  12.688 -0.7392  3.0365  1.5386
14525TIP3   OH264989   2.825   6.143   3.839  0.3232  0.3154 -0.2197
14525TIP3    H164990   2.742   6.136   3.793  0.9662 -1.2682 -1.1963
14525TIP3    H264991   2.845   6.237   3.836 -0.7412  0.5443 -1.1829
14526TIP3   OH264992   0.415   2.225   0.537  0.4792  0.2534 -0.1820
14526TIP3    H164993   0.379   2.189   0.456  0.6629  0.4322 -0.3438
14526TIP3    H264994   0.401   2.156   0.602 -3.7684  1.6799  0.7742
14527TIP3   OH264995   0.986   6.513   4.725  0.1790  0.1735  0.2119
14527TIP3    H164996   1.061   6.571   4.716 -0.6266  1.1536 -0.5492
14527TIP3    H264997   0.910   6.572   4.728 -0.8446 -0.8270 -2.4073
14528TIP3   OH264998   5.577   5.093  16.828 -0.1995  0.3031 -0.1787
14528TIP3    H164999   5.591   5.034  16.903  1.2228 -1.0652 -1.4466
14528TIP3    H265000   5.495   5.063  16.789  1.2890 -2.1037 -1.7778
14529TIP3   OH265001   6.218   4.518   1.093  0.3139 -0.1195 -0.1402
14529TIP3    H165002   6.188   4.594   1.144 -0.3976 -1.9002  2.3179
14529TIP3    H265003   6.310   4.507   1.119 -0.0471 -1.0230  0.8676
14530TIP3   OH265004   0.272   0.627   4.561 -0.2157  0.2723  0.9242
14530TIP3    H165005   0.280   0.722   4.573  0.3343  0.3308  0.1603
14530TIP3    H265006   0.247   0.617   4.469  3.0943 -0.4333 -0.0327
14531TIP3   OH265007   1.007   4.670   2.434 -0.0961  0.0184  0.0424
14531TIP3    H165008   1.018   4.764   2.425  0.0493 -0.0345 -0.3780
14531TIP3    H265009   1.026   4.651   2.526  0.3616  0.3309  0.0142
14532TIP3   OH265010   4.775   5.845  13.274 -0.1822  0.1636 -0.0122
14532TIP3    H165011   4.710   5.783  13.306 -0.6200  0.4592 -0.3115
14532TIP3    H265012   4.826   5.796  13.211 -0.8127  0.2165 -0.5813
14533TIP3   OH265013   0.390   1.082   5.251  0.2815  0.6796 -0.3521
14533TIP3    H165014   0.371   1.169   5.215  1.3394  0.1125 -2.4352
14533TIP3    H265015   0.333   1.023   5.203 -1.3151  0.2547  1.8834
14534TIP3   OH265016   5.469   1.496  17.109 -0.0648  0.3919 -0.4405
14534TIP3    H165017   5.533   1.511  17.039  0.9640  2.3341  0.8104
14534TIP3    H265018   5.505   1.543  17.184 -1.7051 -0.6646  1.0695
14535TIP3   OH265019   2.196   4.218  13.127  0.2931  0.2028  0.2399
14535TIP3    H165020   2.184   4.133  13.170 -1.1315 -0.0704 -0.6405
14535TIP3    H265021   2.195   4.281  13.200  0.5839 -0.4598  0.8330
14536TIP3   OH265022   5.357   1.100  15.312 -0.0451 -0.3135 -0.4942
14536TIP3    H165023   5.386   1.167  15.250  1.0464 -0.0294  0.2874
14536TIP3    H265024   5.281   1.137  15.356  0.5352  0.4199 -0.0853
14537TIP3   OH265025   5.262   2.377  10.702  0.1194  0.2276 -0.0351
14537TIP3    H165026   5.233   2.293  10.739  1.4815  0.0445  0.6729
14537TIP3    H265027   5.240   2.371  10.609 -1.0034 -0.3705  0.2519
14538TIP3   OH265028   2.821   2.385  10.532 -0.5010 -0.1268 -0.5848
14538TIP3    H165029   2.843   2.473  10.500  1.5940 -0.1959  0.4377
14538TIP3    H265030   2.888   2.367  10.598 -0.9240 -2.4786 -0.7107
14539TIP3   OH265031   5.354   3.769  12.982  0.1397 -0.2234 -0.0657
14539TIP3    H165032   5.344   3.707  13.054 -0.1336  0.5265  0.5599
14539TIP3    H265033   5.404   3.721  12.916  0.1601 -1.0169  0.5073
14540TIP3   OH265034   5.820   5.972   1.807  0.0984 -0.2754  0.6363
14540TIP3    H165035   5.757   5.937   1.870  0.5895 -0.2703  1.1491
14540TIP3    H265036   5.855   5.896   1.762  0.4442 -0.3626  1.0500
14541TIP3   OH265037   5.723   2.000  13.964  0.0856 -0.3572 -0.2172
14541TIP3    H165038   5.708   1.925  14.022  0.2166 -0.7947 -0.7399
14541TIP3    H265039   5.693   2.076  14.014  2.9810 -0.3058  1.6289
14542TIP3   OH265040   1.280   3.246  13.548  0.1077  0.2389  0.2935
14542TIP3    H165041   1.373   3.264  13.531  0.2044  0.2651  0.8297
14542TIP3    H265042   1.248   3.205  13.467  0.7075 -0.2238  0.2854
14543TIP3   OH265043   6.149   1.826   4.821 -0.4673  0.3161  0.5239
14543TIP3    H165044   6.056   1.846   4.808 -1.7835 -3.2803  2.8673
14543TIP3    H265045   6.178   1.888   4.887 -1.2546  1.2750 -0.0024
14544TIP3   OH265046   6.665   2.892   1.036 -0.7916  0.0112 -0.5454
14544TIP3    H165047   6.581   2.876   1.079  0.6928 -4.2058  1.3095
14544TIP3    H265048   6.670   2.824   0.968  0.9589  0.4250 -0.8570
14545TIP3   OH265049   2.535   0.945   4.866  0.1191  0.5004 -0.2624
14545TIP3    H165050   2.459   0.920   4.918  1.1469 -1.1918  0.5201
14545TIP3    H265051   2.557   0.867   4.816  2.9457 -0.0660  1.6025
14546TIP3   OH265052   3.658   3.862  12.771  0.1469 -0.1658  0.4544
14546TIP3    H165053   3.745   3.901  12.765  1.6974 -2.2022  5.0059
14546TIP3    H265054   3.654   3.800  12.698  1.7815  1.1065 -0.7945
14547TIP3   OH265055   2.992   0.997  12.066  0.1596  0.0209  0.4522
14547TIP3    H165056   2.941   1.028  12.141 -0.0601  0.4080  0.1478
14547TIP3    H265057   2.992   1.071  12.005  0.3616 -0.2798  0.0831
14548TIP3   OH265058   2.155   4.163   2.881 -0.0682 -0.4132  0.3689
14548TIP3    H165059   2.094   4.222   2.925 -2.5644 -0.9079 -2.1419
14548TIP3    H265060   2.221   4.220   2.841 -0.6310  0.3936  0.5962
14549TIP3   OH265061   3.459   2.789   4.595  0.2150 -0.0729 -0.2232
14549TIP3    H165062   3.533   2.757   4.646 -0.0568  1.2893  1.0608
14549TIP3    H265063   3.495   2.856   4.538  0.2371 -0.5420 -0.7806
14550TIP3   OH265064   1.016   0.964   5.171 -0.3606 -0.3634  0.3769
14550TIP3    H165065   1.005   0.903   5.098 -2.5910 -2.3514  2.2220
14550TIP3    H265066   1.046   0.909   5.244 -1.5901  0.8723  1.8760
14551TIP3   OH265067   1.884   2.958  15.769  0.2846  0.1611 -0.0911
14551TIP3    H165068   1.911   2.890  15.830 -1.2286 -0.4917 -0.1172
14551TIP3    H265069   1.832   2.913  15.703 -0.9122  1.3331 -0.0073
14552TIP3   OH265070   3.632   0.942   0.935  0.0897  0.6170 -0.4083
14552TIP3    H165071   3.643   0.847   0.933  3.1175  0.8905 -0.5623
14552TIP3    H265072   3.718   0.977   0.960 -1.5782  3.2479  2.5416
14553TIP3   OH265073   1.523   3.772  15.122  0.1348 -0.1075 -0.3652
14553TIP3    H165074   1.551   3.791  15.032  0.2232  1.2008 -0.0742
14553TIP3    H265075   1.600   3.792  15.176 -0.0968 -0.3544  0.0604
14554TIP3   OH265076   4.725   2.599  16.423 -0.1183 -0.4462  0.1041
14554TIP3    H165077   4.706   2.511  16.393 -0.0877 -0.0299 -1.2107
14554TIP3    H265078   4.739   2.590  16.517 -1.8879 -1.5471  0.3001
14555TIP3   OH265079   0.788   6.336  11.258 -0.1193 -0.0444 -0.2861
14555TIP3    H165080   0.768   6.429  11.255 -1.0177 -0.2422 -0.8222
14555TIP3    H265081   0.880   6.330  11.231 -0.1995  0.6398 -0.7165
14556TIP3   OH265082   1.337   3.839  15.518  0.3784  0.1260  0.5150
14556TIP3    H165083   1.252   3.880  15.534  0.5742  0.6681  0.1762
14556TIP3    H265084   1.365   3.874  15.434 -0.4309 -2.3170 -0.8868
14557TIP3   OH265085   4.165   3.949   5.313 -0.0685 -0.3723  0.0087
14557TIP3    H165086   4.132   4.029   5.271  0.5684 -0.1897 -0.1585
14557TIP3    H265087   4.241   3.924   5.260  0.7257 -0.1601  1.0297
14558TIP3   OH265088   2.133   2.902  11.474  0.1901  0.5200  0.1216
14558TIP3    H165089   2.048   2.889  11.517 -0.3067  4.1606  0.5510
14558TIP3    H265090   2.186   2.947  11.540  1.4049  0.9981 -1.1352
14559TIP3   OH265091   6.714   3.638  16.791  0.0574 -0.1715 -0.0342
14559TIP3    H165092   6.652   3.569  16.813  1.1220 -1.6460 -1.4378
14559TIP3    H265093   6.661   3.705  16.748 -0.7461 -0.8710 -0.1553
14560TIP3   OH265094   6.762   3.398   2.055 -0.3814  0.0322  0.3526
14560TIP3    H165095   6.838   3.415   2.111  0.9013 -0.8292 -1.0604
14560TIP3    H265096   6.760   3.302   2.046 -0.8631  0.1286 -0.6665
14561TIP3   OH265097   3.117   3.710   2.700 -0.4585 -0.2670 -0.3589
14561TIP3    H165098   3.127   3.641   2.766 -2.1862  0.0136  0.2639
14561TIP3    H265099   3.061   3.775   2.743 -1.2299  0.1543 -1.9362
14562TIP3   OH265100   1.284   4.370   1.540  0.0021  0.2585 -0.3438
14562TIP3    H165101   1.314   4.301   1.481 -1.5482  0.8059 -1.8420
14562TIP3    H265102   1.261   4.324   1.621 -1.1483 -1.0507 -1.3628
14563TIP3   OH265103   3.850   4.849   3.383  0.6157 -0.0638 -0.1489
14563TIP3    H165104   3.765   4.892   3.391  0.4358 -0.5130  0.3975
14563TIP3    H265105   3.888   4.885   3.302  0.2253  0.6799 -0.0102
14564TIP3   OH265106   0.556   1.056  15.567  0.4630  0.2720  0.3996
14564TIP3    H165107   0.480   1.030  15.515  0.8249  1.3796 -0.7235
14564TIP3    H265108   0.627   1.066  15.504  0.9460  1.5425  1.0964
14565TIP3   OH265109   2.794   2.024  15.385  0.7244  0.0488  0.0762
14565TIP3    H165110   2.746   2.094  15.427  1.1481  0.4725 -0.1355
14565TIP3    H265111   2.781   2.038  15.291 -0.8582 -1.3429  0.0472
14566TIP3   OH265112   0.955   5.150  15.892  0.4020 -0.1973  0.2382
14566TIP3    H165113   0.896   5.126  15.964 -0.7346 -1.5995 -1.0914
14566TIP3    H265114   1.033   5.095  15.905  0.4716  0.0139  0.7389
14567TIP3   OH265115   5.042   3.760   2.444  0.2547 -0.0320 -0.2901
14567TIP3    H165116   5.057   3.822   2.373 -0.9659  1.2755  0.5507
14567TIP3    H265117   4.961   3.790   2.486  0.0007 -1.7829  0.5845
14568TIP3   OH265118   5.363   5.339  13.738  0.6902 -0.4117 -0.0384
14568TIP3    H165119   5.404   5.284  13.671 -0.4827 -2.1148  0.5931
14568TIP3    H265120   5.271   5.314  13.738  0.3200  0.8158  1.0244
14569TIP3   OH265121   2.862   3.596  17.151  0.4694  0.8626  0.4553
14569TIP3    H165122   2.876   3.636  17.065 -4.6818  1.0601 -0.5989
14569TIP3    H265123   2.862   3.502  17.134 -0.8451  0.9070  0.0571
14570TIP3   OH265124   5.253   2.400  11.973  0.3996 -0.0776 -0.1027
14570TIP3    H165125   5.268   2.463  12.043 -0.4240  0.0365 -0.0137
14570TIP3    H265126   5.334   2.349  11.968  1.3355  1.3895 -0.6089
14571TIP3   OH265127   2.817   6.719  11.276  0.0146 -0.0826 -0.7138
14571TIP3    H165128   2.783   6.690  11.361 -0.9181  0.3900 -0.9149
14571TIP3    H265129   2.843   6.638  11.232 -3.7550 -0.8903 -1.8128
14572TIP3   OH265130   4.725   5.946   3.323 -0.3644  0.0503 -0.1737
14572TIP3    H165131   4.650   5.991   3.360  1.1381  1.6753  1.0905
14572TIP3    H265132   4.725   5.970   3.230  0.8813  3.6214  0.5878
14573TIP3   OH265133   6.288   0.572  13.223  0.0944  0.4667 -0.0059
14573TIP3    H165134   6.288   0.491  13.173 -1.9336  0.2856  0.1902
14573TIP3    H265135   6.369   0.570  13.274 -0.9542 -2.5555  1.7495
14574TIP3   OH265136   6.343   3.705   4.975  0.7081 -0.7299 -0.2035
14574TIP3    H165137   6.283   3.652   5.028 -1.2710  0.7396 -0.8519
14574TIP3    H265138   6.336   3.669   4.887 -0.3457  0.3094 -0.5672
14575TIP3   OH265139   2.265   0.754   2.693  0.2571  0.0849 -0.1349
14575TIP3    H165140   2.286   0.673   2.739 -0.1986 -0.4787 -0.8999
14575TIP3    H265141   2.300   0.823   2.750  3.2308 -0.7226 -0.7939
14576TIP3   OH265142   1.417   3.308   2.386 -0.1318  0.6902 -0.1450
14576TIP3    H165143   1.339   3.343   2.344  0.3222 -0.1199 -1.7177
14576TIP3    H265144   1.421   3.216   2.360 -0.4375 -0.2079  2.6340
14577TIP3   OH265145   5.579   2.044   5.001 -0.0327 -0.0979  0.2167
14577TIP3    H165146   5.644   2.065   5.068 -1.4215  3.2514  0.7128
14577TIP3    H265147   5.516   1.988   5.046  2.1118 -2.9947 -0.1432
14578TIP3   OH265148   3.509   3.561   2.067  0.3483 -0.6094 -0.4202
14578TIP3    H165149   3.583   3.585   2.123  0.5987  1.8108 -1.6528
14578TIP3    H265150   3.433   3.598   2.111  0.3196 -0.2517 -0.7605
14579TIP3   OH265151   1.372   1.925   0.371 -0.1992  0.1312  0.3764
14579TIP3    H165152   1.431   1.852   0.351  0.7023  0.8043  0.5050
14579TIP3    H265153   1.416   1.972   0.441 -0.7728  0.8024  0.2902
14580TIP3   OH265154   0.288   0.805  13.492  0.2105 -0.2687 -0.1940
14580TIP3    H165155   0.231   0.802  13.415  0.4939  1.3521 -0.5061
14580TIP3    H265156   0.339   0.885  13.480  1.4153 -0.8564  0.8785
14581TIP3   OH265157   2.545   1.853   2.668  0.7980 -0.4762  0.1201
14581TIP3    H165158   2.515   1.787   2.606  1.5218 -1.9605  1.2823
14581TIP3    H265159   2.630   1.880   2.634  1.6567 -2.0184  0.9202
14582TIP3   OH265160   5.521   5.282  11.622 -0.2643  0.3233  0.0830
14582TIP3    H165161   5.595   5.234  11.661  0.3181  0.3214 -0.9897
14582TIP3    H265162   5.562   5.350  11.569 -0.9726 -0.3473 -1.3960
14583TIP3   OH265163   5.492   1.637  12.965  0.5194 -0.2498 -0.4357
14583TIP3    H165164   5.496   1.552  12.921  0.6927 -0.6120  0.2638
14583TIP3    H265165   5.452   1.618  13.050  0.5243  0.3767 -0.2914
14584TIP3   OH265166   3.143   4.674  11.923  0.4254 -0.3096 -0.3998
14584TIP3    H165167   3.221   4.672  11.979 -0.3846 -2.8417  0.8115
14584TIP3    H265168   3.175   4.645  11.837  1.3074  1.6018 -0.7636
14585TIP3   OH265169   6.615   1.715   3.886  0.2180  0.9006 -0.2123
14585TIP3    H165170   6.531   1.671   3.899 -0.8705  2.5448 -1.3238
14585TIP3    H265171   6.639   1.694   3.795  0.7714  0.8644 -0.0642
14586TIP3   OH265172   4.939   0.595  12.270  0.1526 -0.4241  0.2583
14586TIP3    H165173   4.859   0.641  12.247 -0.4902 -0.9763  1.3161
14586TIP3    H265174   4.957   0.622  12.360  0.7895 -0.8044  0.2507
14587TIP3   OH265175   2.543   2.898  14.376  0.2181  0.7028 -0.0562
14587TIP3    H165176   2.502   2.903  14.290  1.2090 -2.4227 -0.8145
14587TIP3    H265177   2.632   2.868  14.359  0.5969  0.4626  2.0348
14588TIP3   OH265178   3.973   0.115   5.239  0.7460 -0.0996  0.3002
14588TIP3    H165179   3.933   0.115   5.326  0.3742 -0.6191  0.1368
14588TIP3    H265180   3.949   0.030   5.202  4.0932 -1.5957  1.1384
14589TIP3   OH265181   2.659   3.970   5.580  0.0775 -0.3624 -0.0546
14589TIP3    H165182   2.740   3.954   5.531  0.3746 -0.6624  0.5259
14589TIP3    H265183   2.610   3.888   5.572  0.3089 -0.5534  0.4960
14590TIP3   OH265184   6.152   4.469  12.105  0.2561  0.0179 -0.3983
14590TIP3    H165185   6.156   4.561  12.132  0.1848 -0.0012 -0.3226
14590TIP3    H265186   6.183   4.469  12.015  1.4754 -0.0485  0.0008
14591TIP3   OH265187   4.718   6.626  13.164  0.5938 -0.3169  0.0294
14591TIP3    H165188   4.692   6.536  13.143  1.0203 -1.1128  2.4864
14591TIP3    H265189   4.802   6.638  13.119  1.2851 -1.7419  0.8651
14592TIP3   OH265190   2.907   5.043  15.223 -0.2786  0.5457  0.1097
14592TIP3    H165191   2.856   4.972  15.185  1.7876 -0.8659 -0.1808
14592TIP3    H265192   2.928   5.101  15.150  0.8719 -0.3824 -0.3193
14593TIP3   OH265193   0.761   0.930  13.844 -0.3933  0.2649  0.0756
14593TIP3    H165194   0.763   0.993  13.772  0.8311  0.2330  0.0584
14593TIP3    H265195   0.778   0.983  13.923 -0.1112  0.0672  0.1492
14594TIP3   OH265196   4.924   4.158   4.811 -0.3621 -0.2629 -0.1615
14594TIP3    H165197   4.832   4.164   4.783 -1.4926 -2.4057  2.6623
14594TIP3    H265198   4.922   4.179   4.904  2.3312  1.1157 -0.3303
14595TIP3   OH265199   4.424   2.531  15.519 -0.7009  0.2125 -0.2429
14595TIP3    H165200   4.347   2.551  15.465 -1.4123 -1.7465 -0.0446
14595TIP3    H265201   4.399   2.555  15.608 -1.4354 -1.1695 -0.0491
14596TIP3   OH265202   4.877   0.585  14.805  0.2863  0.2712 -0.6612
14596TIP3    H165203   4.917   0.577  14.892 -0.2135  0.5506 -0.4041
14596TIP3    H265204   4.947   0.621  14.751 -0.1798  2.7033  0.2436
14597TIP3   OH265205   3.401   0.440   4.954  0.4954 -0.0612  0.2602
14597TIP3    H165206   3.395   0.511   4.889 -3.5548  1.2402  1.7599
14597TIP3    H265207   3.403   0.485   5.038  0.1385 -1.7364  1.2068
14598TIP3   OH265208   0.912   1.065   2.236  0.1191  0.0195 -0.1904
14598TIP3    H165209   0.937   0.973   2.244 -1.2467 -0.4325 -0.7685
14598TIP3    H265210   0.938   1.105   2.318  0.2309 -1.0228  0.2913
14599TIP3   OH265211   4.748   1.748   0.082 -0.2826 -0.0167  0.2492
14599TIP3    H165212   4.762   1.682   0.151 -1.6751  1.1729  1.7621
14599TIP3    H265213   4.653   1.748   0.068  0.0225 -0.6986 -2.2399
14600TIP3   OH265214   3.766   5.502   4.316 -0.3546 -0.1940  0.0674
14600TIP3    H165215   3.686   5.514   4.265 -0.7454  0.2281  0.7549
14600TIP3    H265216   3.836   5.498   4.251 -0.8641  0.1053 -0.5083
14601TIP3   OH265217   0.059   5.109  15.142  0.7832 -0.3729 -0.5105
14601TIP3    H165218   0.036   5.148  15.057 -0.0880 -0.4029 -0.2964
14601TIP3    H265219  -0.020   5.063  15.169  1.0644 -0.3769  0.3178
14602TIP3   OH265220   3.442   5.009  11.316  0.0634 -0.2287  0.7228
14602TIP3    H165221   3.445   5.027  11.222 -1.2803 -0.5479  0.6071
14602TIP3    H265222   3.534   5.014  11.344  0.4907 -0.2284 -0.6158
14603TIP3   OH265223   3.876   1.890   4.701  0.5012 -0.0605 -0.2892
14603TIP3    H165224   3.801   1.938   4.665  0.5258  0.6102  0.5232
14603TIP3    H265225   3.916   1.848   4.625 -1.9081 -2.2168 -0.4968
14604TIP3   OH265226   4.159   3.008  10.169 -0.8478 -0.3079 -0.3861
14604TIP3    H165227   4.177   3.090  10.214 -0.4710  0.0739 -1.2082
14604TIP3    H265228   4.237   2.954  10.185 -0.0678  0.3570 -1.7250
14605TIP3   OH265229   3.370   1.750   6.255  0.0141 -0.2525 -0.3938
14605TIP3    H165230   3.356   1.666   6.298 -0.7605  0.1397  0.1439
14605TIP3    H265231   3.459   1.776   6.280 -0.2628 -0.2420  0.6279
14606TIP3   OH265232   0.389   2.769  14.029  0.5230 -0.8872 -0.5124
14606TIP3    H165233   0.408   2.721  14.110 -0.8032 -1.4695 -0.5106
14606TIP3    H265234   0.381   2.860  14.057  2.1552 -0.7642 -0.3593
14607TIP3   OH265235   0.095   6.615  15.513 -0.1931 -0.0073 -0.5865
14607TIP3    H165236   0.027   6.639  15.450 -0.5866 -3.0097 -1.4786
14607TIP3    H265237   0.046   6.586  15.591  0.2726  2.6831  0.8337
14608TIP3   OH265238   4.348   1.493  15.090 -0.3501  0.0151  0.3677
14608TIP3    H165239   4.364   1.447  15.007 -1.5734  0.1567  0.0288
14608TIP3    H265240   4.300   1.430  15.144  0.2300  0.0099  0.8850
14609TIP3   OH265241   1.184   5.702  11.885  0.1023 -0.2116  0.5745
14609TIP3    H165242   1.242   5.771  11.919  1.2654  1.0342 -3.3379
14609TIP3    H265243   1.096   5.734  11.904  0.6391  1.8763 -0.0713
14610TIP3   OH265244   1.812   0.762   5.739  0.0330  0.4776 -0.1101
14610TIP3    H165245   1.885   0.766   5.678 -0.3342  1.5695 -0.5040
14610TIP3    H265246   1.850   0.781   5.824  0.4044 -0.1702 -0.1301
14611TIP3   OH265247   5.257   3.697  14.475  0.1937  0.3684  0.5153
14611TIP3    H165248   5.182   3.756  14.485 -0.6943 -0.5028 -0.6575
14611TIP3    H265249   5.281   3.672  14.564 -0.3816  1.3012  0.9486
14612TIP3   OH265250   6.555   3.426  16.253  0.0097  0.0156  0.1940
14612TIP3    H165251   6.650   3.423  16.263  0.1965  1.0660 -1.0217
14612TIP3    H265252   6.535   3.518  16.236 -0.7521 -0.6543 -3.4182
14613TIP3   OH265253   0.977   5.597  13.275  0.8700 -0.3835  0.1483
14613TIP3    H165254   1.027   5.521  13.305  0.0577 -1.0685 -0.1942
14613TIP3    H265255   0.929   5.627  13.352 -0.2533 -1.3767 -0.1485
14614TIP3   OH265256   5.982   2.935  13.024  0.0398  0.3493  0.4465
14614TIP3    H165257   5.893   2.969  13.034  0.3521  0.7901  2.0356
14614TIP3    H265258   6.035   2.992  13.079  1.2240 -0.2536 -0.0493
14615TIP3   OH265259   6.408   6.397  12.585  0.2568 -0.1723  0.3089
14615TIP3    H165260   6.399   6.341  12.508 -1.0898  1.0242 -0.4520
14615TIP3    H265261   6.385   6.485  12.553  2.4912  0.8886  1.4068
14616TIP3   OH265262   3.327   3.156   6.216  0.0026  0.4986 -0.0972
14616TIP3    H165263   3.305   3.078   6.267 -0.4643  0.1514 -0.8116
14616TIP3    H265264   3.247   3.208   6.216 -0.9962 -0.8338 -2.8243
14617TIP3   OH265265   5.962   4.650   6.642 -0.0054  0.3449  0.8318
14617TIP3    H165266   5.914   4.732   6.629 -1.6613 -0.4542  1.6793
14617TIP3    H265267   5.896   4.587   6.667  1.6557 -0.4813  3.5420
14618TIP3   OH265268   6.262   5.365  16.145  0.0340  0.2734  0.1656
14618TIP3    H165269   6.348   5.373  16.187  0.2979  0.9853 -0.4868
14618TIP3    H265270   6.205   5.425  16.193  0.0814  0.3272  0.1544
14619TIP3   OH265271   1.055   0.285  13.162  0.1027  0.1591  0.4012
14619TIP3    H165272   1.007   0.220  13.110  0.4165  1.8310 -2.1623
14619TIP3    H265273   1.133   0.238  13.194 -0.7437 -1.2574  0.4670
14620TIP3   OH265274   5.716   5.355   1.377 -0.1373  0.0883 -0.0437
14620TIP3    H165275   5.739   5.330   1.287  0.6598  0.5240  0.0247
14620TIP3    H265276   5.652   5.425   1.367 -0.4129 -0.1966 -0.2690
14621TIP3   OH265277   1.934   0.915  13.466 -0.1683 -0.2791  0.5670
14621TIP3    H165278   1.840   0.921  13.448 -0.0439 -0.8922 -0.3235
14621TIP3    H265279   1.945   0.829  13.505 -0.1502  0.2964  1.8823
14622TIP3   OH265280   3.506   3.792   0.278 -0.0447  0.6543  0.1269
14622TIP3    H165281   3.490   3.886   0.275  1.5161  1.0670  2.1699
14622TIP3    H265282   3.427   3.755   0.319  0.5378  1.5115  2.1264
14623TIP3   OH265283   2.512   1.324  11.074  0.1571  0.0443  0.0962
14623TIP3    H165284   2.500   1.245  11.128 -0.9422  0.9086  1.1540
14623TIP3    H265285   2.533   1.393  11.137  0.6078  0.7175 -0.7719
14624TIP3   OH265286   1.475   0.359   2.138  0.0721 -0.4214  0.1763
14624TIP3    H165287   1.558   0.344   2.093  0.2695 -0.3957  0.5254
14624TIP3    H265288   1.448   0.446   2.109  0.3755 -0.2585  0.3805
14625TIP3   OH265289   4.858   3.191   1.586 -0.6059  0.2271 -0.2242
14625TIP3    H165290   4.867   3.193   1.491 -2.1652  0.0941 -0.4015
14625TIP3    H265291   4.875   3.100   1.611 -1.5657 -0.0607 -0.5597
14626TIP3   OH265292   4.892   3.613   0.137  0.2897 -0.2487 -0.0639
14626TIP3    H165293   4.950   3.592   0.209  1.2591  1.4506 -0.2854
14626TIP3    H265294   4.939   3.584   0.059 -0.4232 -1.3955 -0.0909
14627TIP3   OH265295   2.715   3.529   2.411 -0.5750 -0.5644 -0.5430
14627TIP3    H165296   2.808   3.511   2.424 -0.1676  1.6822  0.0100
14627TIP3    H265297   2.670   3.468   2.469  0.7986  1.7011  3.2280
14628TIP3   OH265298   0.842   0.993  14.405  0.1124  0.0928  0.4445
14628TIP3    H165299   0.812   0.966  14.492 -0.0586  0.7665  0.5967
14628TIP3    H265300   0.937   0.999  14.413  0.2482 -1.2933  0.1709
14629TIP3   OH265301   6.157   3.155  15.058  0.1749  0.2426  0.5535
14629TIP3    H165302   6.146   3.072  15.013 -0.2747 -0.2268  1.4892
14629TIP3    H265303   6.237   3.192  15.021 -0.0531 -0.2283 -0.4407
14630TIP3   OH265304   3.146   0.617   2.480 -0.1410 -0.0440 -0.1484
14630TIP3    H165305   3.122   0.682   2.414  1.5140 -0.2820 -1.0620
14630TIP3    H265306   3.063   0.590   2.519 -1.0152  1.3160 -0.9792
14631TIP3   OH265307   1.854   0.291   2.819 -0.1430  0.5707  0.0444
14631TIP3    H165308   1.804   0.210   2.827 -1.4424  1.2344 -1.0045
14631TIP3    H265309   1.943   0.263   2.798 -0.9684 -0.5611 -2.1294
14632TIP3   OH265310   4.126   0.522   2.316  0.0243 -0.4295  0.4443
14632TIP3    H165311   4.194   0.490   2.375  0.1374 -1.6930 -0.3271
14632TIP3    H265312   4.045   0.487   2.351  0.1029 -1.2656 -0.1797
14633TIP3   OH265313   3.276   4.869   1.170 -0.6004 -0.0603  0.1136
14633TIP3    H165314   3.258   4.897   1.081 -0.5514  0.0414  0.1341
14633TIP3    H265315   3.366   4.838   1.168 -0.7542 -0.5043  0.0254
14634TIP3   OH265316   4.231   3.352  12.202  0.0995 -0.1785 -0.1307
14634TIP3    H165317   4.247   3.373  12.110  1.3811 -1.6794 -0.2977
14634TIP3    H265318   4.255   3.259  12.210  1.9503  0.4002  2.1101
14635TIP3   OH265319   5.722   1.887   3.938  0.0261  0.3365 -0.2826
14635TIP3    H165320   5.715   1.843   3.853  0.5149  2.0507 -1.2653
14635TIP3    H265321   5.655   1.956   3.934  1.0212  1.3554  0.1188
14636TIP3   OH265322   2.107   4.442   2.677 -0.8384  0.0800  0.1010
14636TIP3    H165323   2.197   4.458   2.648  0.0603 -1.1262  1.9944
14636TIP3    H265324   2.081   4.362   2.632 -0.0603 -0.8558  1.2286
14637TIP3   OH265325   5.628   6.311   4.109 -0.0682  0.0399  0.1383
14637TIP3    H165326   5.721   6.314   4.088  0.2271 -0.1781  1.3691
14637TIP3    H265327   5.619   6.364   4.187 -1.0949  0.5941 -0.3436
14638TIP3   OH265328   3.548   2.442  11.374  0.3697  0.3566  0.4110
14638TIP3    H165329   3.627   2.472  11.329  0.7767 -0.9160  0.2560
14638TIP3    H265330   3.529   2.357  11.336 -0.4308  0.1447  1.2517
14639TIP3   OH265331   6.377   2.441  11.356  0.0235 -0.2522 -0.2951
14639TIP3    H165332   6.303   2.502  11.352  0.4810  0.2324 -2.7853
14639TIP3    H265333   6.419   2.449  11.271  0.2494 -3.9169 -0.6752
14640TIP3   OH265334   4.846   1.379  14.907 -0.9395 -0.6645 -0.0122
14640TIP3    H165335   4.931   1.395  14.949 -0.2306  0.5922 -1.8244
14640TIP3    H265336   4.855   1.292  14.868  0.4069  0.3258 -2.0908
14641TIP3   OH265337   3.452   1.678   3.536 -0.2171 -0.3628  0.4224
14641TIP3    H165338   3.397   1.607   3.569 -0.2231 -0.4408  0.2459
14641TIP3    H265339   3.453   1.666   3.441  0.2386 -0.4590  0.4366
14642TIP3   OH265340   5.565   4.902   0.214  0.1114  0.6914  0.7681
14642TIP3    H165341   5.604   4.957   0.282 -1.8235  0.3651  2.2053
14642TIP3    H265342   5.546   4.820   0.258  0.5055 -0.2154 -0.6799
14643TIP3   OH265343   1.528   3.458  14.718  0.3566  0.6092  0.1956
14643TIP3    H165344   1.434   3.475  14.708  0.2934  0.2471  0.1634
14643TIP3    H265345   1.569   3.504  14.645  0.1124 -0.0765 -0.3817
14644TIP3   OH265346   6.543   3.137   4.902  0.2247 -0.1615  0.0837
14644TIP3    H165347   6.603   3.064   4.885  2.0643  0.9479  1.3915
14644TIP3    H265348   6.571   3.205   4.840  0.5145  0.4565  0.8761
14645TIP3   OH265349   1.369   6.163  16.205  0.2407 -0.6015  0.9672
14645TIP3    H165350   1.305   6.234  16.195  0.1134 -0.9266 -0.9721
14645TIP3    H265351   1.422   6.188  16.280  1.1626  2.3427 -0.5286
14646TIP3   OH265352   4.884   4.467   5.999 -0.1850  0.0594 -0.1999
14646TIP3    H165353   4.873   4.561   6.013  1.2169  0.0692  0.9814
14646TIP3    H265354   4.863   4.454   5.906  0.3143  1.6416 -0.5591
14647TIP3   OH265355   0.279   6.343   2.140 -0.2825 -0.1647 -0.0531
14647TIP3    H165356   0.323   6.420   2.175 -1.5632  0.2580  0.7050
14647TIP3    H265357   0.262   6.288   2.216 -0.8156 -0.4446 -0.3652
14648TIP3   OH265358   6.493   6.133   3.726  0.4477  0.0919 -0.4142
14648TIP3    H165359   6.437   6.145   3.649  1.4965 -0.2939 -1.2638
14648TIP3    H265360   6.458   6.055   3.769 -0.0654  0.2228 -0.5929
14649TIP3   OH265361   3.778   0.969   5.534 -0.0662 -0.1883  0.0945
14649TIP3    H165362   3.699   1.008   5.496  0.0159 -1.0279 -0.9983
14649TIP3    H265363   3.750   0.880   5.560 -0.0327  0.2502  1.7508
14650TIP3   OH265364   0.735   6.094  12.667  0.4762  0.6289 -0.7864
14650TIP3    H165365   0.766   6.078  12.756  0.4465  0.0222 -0.8809
14650TIP3    H265366   0.807   6.068  12.610 -0.4863 -1.7058 -1.0472
14651TIP3   OH265367   4.767   0.574  14.216  0.3773 -0.6325 -0.0675
14651TIP3    H165368   4.773   0.543  14.306  0.1270 -2.3566 -0.6161
14651TIP3    H265369   4.717   0.507  14.170  0.4074  0.2624 -1.4798
14652TIP3   OH265370   2.346   3.503  13.669 -0.1127  0.4188 -0.6048
14652TIP3    H165371   2.373   3.576  13.612 -0.0786 -0.7234 -2.1239
14652TIP3    H265372   2.264   3.473  13.630 -0.8117  0.4650  0.7951
14653TIP3   OH265373   1.838   5.023  16.911 -0.3146  0.2989  0.1756
14653TIP3    H165374   1.881   4.984  16.835  0.6592  0.3838  0.6642
14653TIP3    H265375   1.848   5.117  16.899 -1.3077  0.3622 -0.2322
14654TIP3   OH265376   6.419   4.471  10.202  0.5955  0.4700  0.8887
14654TIP3    H165377   6.500   4.420  10.213  0.0756 -0.3407  0.9766
14654TIP3    H265378   6.376   4.467  10.288 -0.4379 -0.6649  0.3417
14655TIP3   OH265379   2.505   5.585   1.434 -0.2322 -0.0073 -0.2158
14655TIP3    H165380   2.568   5.657   1.436  0.9288 -1.0160  0.6997
14655TIP3    H265381   2.443   5.605   1.505 -0.2956  0.4089 -0.3864
14656TIP3   OH265382   6.746   5.787  11.182 -0.1673 -0.1671 -0.2949
14656TIP3    H165383   6.775   5.701  11.154  1.7188 -0.5419  2.3695
14656TIP3    H265384   6.679   5.769  11.249 -1.6045  0.5694 -1.4649
14657TIP3   OH265385   6.287   4.407   6.050  0.0953  0.2972  0.1431
14657TIP3    H165386   6.285   4.367   5.963 -3.0358 -1.5606  0.9015
14657TIP3    H265387   6.334   4.344   6.105 -1.0035 -0.2659  0.4606
14658TIP3   OH265388   4.558   3.784   2.264 -0.1604  0.1453  0.5038
14658TIP3    H165389   4.504   3.833   2.326 -1.6383 -2.5519  1.5661
14658TIP3    H265390   4.495   3.751   2.199  0.6399 -0.8161  0.1917
14659TIP3   OH265391   3.205   5.224  10.877  0.2936 -0.0863  0.6421
14659TIP3    H165392   3.265   5.176  10.821  0.5648 -0.9778  1.6718
14659TIP3    H265393   3.124   5.172  10.875 -0.1371  0.5785  0.0588
14660TIP3   OH265394   3.719   4.897  14.234  0.0758 -0.4213  0.0389
14660TIP3    H165395   3.749   4.809  14.258 -1.0780 -1.0220 -0.6516
14660TIP3    H265396   3.718   4.896  14.138 -1.1422 -0.0885  0.0353
14661TIP3   OH265397   3.561   1.278  16.120 -0.1756 -0.4702  0.2027
14661TIP3    H165398   3.613   1.287  16.040 -0.2674 -1.4820  0.0166
14661TIP3    H265399   3.574   1.361  16.166  0.7829 -0.3079 -0.3247
14662TIP3   OH265400   1.071   4.028  13.733 -0.2176 -0.0006  0.0646
14662TIP3    H165401   1.029   3.947  13.702  1.0153 -0.3194 -0.8294
14662TIP3    H265402   0.998   4.089  13.745 -0.9414 -0.4361 -1.7537
14663TIP3   OH265403   0.189   0.656  16.387 -0.4398  0.0618  0.4169
14663TIP3    H165404   0.101   0.625  16.408 -0.4282  1.2633  2.4930
14663TIP3    H265405   0.228   0.677  16.472  2.1263 -1.0989 -0.3769
14664TIP3   OH265406   3.209   2.768   3.147 -0.1158 -0.1812 -0.0917
14664TIP3    H165407   3.294   2.791   3.110 -0.4746  1.7361  0.1283
14664TIP3    H265408   3.154   2.749   3.070  0.3610 -0.9281 -0.2566
14665TIP3   OH265409   3.887   1.863  10.941  0.5798 -0.9457  0.9477
14665TIP3    H165410   3.970   1.887  10.901 -0.8448  1.1838 -1.0348
14665TIP3    H265411   3.846   1.804  10.878 -0.7239  0.6220  0.2447
14666TIP3   OH265412   2.862   5.953  16.214  0.3279 -0.4430  0.2035
14666TIP3    H165413   2.919   5.876  16.211  1.3601  0.2912  0.7522
14666TIP3    H265414   2.782   5.924  16.170  0.7742 -1.7661  0.2125
14667TIP3   OH265415   1.736   6.495  16.624  0.3615 -1.0428 -0.1847
14667TIP3    H165416   1.800   6.475  16.556  1.4855 -0.4106  0.6397
14667TIP3    H265417   1.696   6.577  16.595  0.0969 -1.3071 -0.5793
14668TIP3   OH265418   5.997   3.023   0.752  0.0869  0.0004  0.0897
14668TIP3    H165419   5.970   2.979   0.832 -1.5647  2.8940  1.2972
14668TIP3    H265420   6.067   3.083   0.780 -0.3310  0.8673 -0.6537
14669TIP3   OH265421   0.891   5.406   1.335 -0.9787 -0.2664  0.5149
14669TIP3    H165422   0.862   5.403   1.244  0.8285 -1.4935 -0.0745
14669TIP3    H265423   0.974   5.453   1.332 -0.9116 -0.2967  1.5403
14670TIP3   OH265424   0.688   3.030  13.334  0.1334 -0.0762 -0.5798
14670TIP3    H165425   0.641   3.042  13.251  1.4555 -2.1302 -1.6951
14670TIP3    H265426   0.649   2.952  13.372  1.8257 -1.1552 -0.9846
14671TIP3   OH265427   3.628   2.553  15.208 -0.2890 -0.1676  0.2642
14671TIP3    H165428   3.637   2.485  15.275 -1.5063  0.4938  1.1466
14671TIP3    H265429   3.561   2.519  15.149 -0.9451  0.2670  0.7423
14672TIP3   OH265430   0.316   0.914  14.107 -0.4072  0.5346 -0.1632
14672TIP3    H165431   0.394   0.968  14.123 -0.1645  0.7371 -1.7978
14672TIP3    H265432   0.352   0.830  14.078 -0.6181  1.6402 -4.2987
14673TIP3   OH265433   0.733   5.864   2.272 -0.2792 -0.2060  0.2449
14673TIP3    H165434   0.686   5.914   2.339 -0.1687 -1.2236  1.1236
14673TIP3    H265435   0.690   5.887   2.190  1.0379  2.8574  0.2789
14674TIP3   OH265436   0.526   0.425   4.346 -0.3833 -0.2342  0.3579
14674TIP3    H165437   0.431   0.421   4.332 -0.7467 -0.8985  2.6967
14674TIP3    H265438   0.544   0.517   4.363 -0.3558  0.1203 -1.4087
14675TIP3   OH265439   1.032   4.860  13.778  0.3006  0.0374 -0.0793
14675TIP3    H165440   1.056   4.811  13.699  1.1541 -1.6174  1.1567
14675TIP3    H265441   0.956   4.814  13.813  0.6540  0.0507  0.7085
14676TIP3   OH265442   5.606   2.605   1.696  0.4405  0.1495  0.5135
14676TIP3    H165443   5.570   2.617   1.784 -0.5920 -0.1759  0.1467
14676TIP3    H265444   5.551   2.661   1.640 -0.7134 -1.7307 -0.3372
14677TIP3   OH265445   6.257   0.331   4.402  0.6036  0.1721  0.7395
14677TIP3    H165446   6.190   0.365   4.343  0.0990  0.4122  1.4372
14677TIP3    H265447   6.227   0.356   4.489  1.9109  0.8198  1.0286
14678TIP3   OH265448   6.027   0.481   4.040 -1.0527 -0.1587 -0.3215
14678TIP3    H165449   6.119   0.469   4.062 -0.9990 -1.1547 -1.0242
14678TIP3    H265450   5.985   0.505   4.123  0.1615  2.4501 -0.3810
14679TIP3   OH265451   1.989   6.737  16.999 -0.1452  0.3007  0.1540
14679TIP3    H165452   1.963   6.825  17.028  0.5981  0.6352 -0.1635
14679TIP3    H265453   2.075   6.723  17.038 -2.0027 -2.1341  3.9834
14680TIP3   OH265454   4.805   4.095  14.555  0.7218 -0.1263  0.0984
14680TIP3    H165455   4.830   4.181  14.522 -0.6057  0.8000  1.3414
14680TIP3    H265456   4.818   4.101  14.650 -0.0588 -1.0395  0.2809
14681TIP3   OH265457   1.140   5.597   3.146 -0.1422  0.6061 -0.2699
14681TIP3    H165458   1.053   5.625   3.119 -1.3371 -2.5075 -0.0676
14681TIP3    H265459   1.158   5.645   3.226 -1.0770  2.2203 -0.9895
14682TIP3   OH265460   5.743   2.604  11.590 -0.0753 -0.1303  0.4462
14682TIP3    H165461   5.785   2.690  11.585  1.2119 -0.6113  2.1334
14682TIP3    H265462   5.802   2.546  11.541 -0.0220 -0.3674  0.7888
14683TIP3   OH265463   4.440   3.468  11.595  0.0735 -0.0624  0.2623
14683TIP3    H165464   4.398   3.412  11.660  0.0600 -0.8043 -0.3836
14683TIP3    H265465   4.464   3.547  11.644  2.3071 -1.5707  1.8033
14684TIP3   OH265466   3.445   3.616  14.240 -0.3369  0.2547  0.3951
14684TIP3    H165467   3.384   3.689  14.233  2.2013  2.4712 -0.0290
14684TIP3    H265468   3.440   3.572  14.155 -0.6782  1.0051  0.0142
14685TIP3   OH265469   5.871   2.425  13.270  0.3295  0.0029 -0.8336
14685TIP3    H165470   5.841   2.410  13.181 -0.0754 -1.0155 -0.5344
14685TIP3    H265471   5.939   2.491  13.261  0.5733 -0.3791 -1.9383
14686TIP3   OH265472   3.974   1.404  13.922  0.0692  0.1720 -0.1594
14686TIP3    H165473   3.967   1.341  13.850 -0.3899  0.0231  0.0133
14686TIP3    H265474   3.936   1.359  13.997  1.7436 -0.1905  0.5260
14687TIP3   OH265475   6.304   1.612   2.097  0.4273  0.6128  0.1049
14687TIP3    H165476   6.360   1.628   2.021 -0.7491  3.7282 -0.2321
14687TIP3    H265477   6.290   1.517   2.096  1.4748  0.3752 -2.8169
14688TIP3   OH265478   1.377   6.681  10.810 -0.1120  0.1839  0.2864
14688TIP3    H165479   1.448   6.623  10.783  0.0610 -0.5452  2.1787
14688TIP3    H265480   1.298   6.629  10.797 -0.1696  0.3760 -0.1736
14689TIP3   OH265481   6.039   5.584   4.826 -0.4372 -0.3619 -0.6747
14689TIP3    H165482   6.097   5.660   4.828 -0.0250 -0.6509 -1.2231
14689TIP3    H265483   6.097   5.508   4.834 -0.8789 -0.6150  0.2686
14690TIP3   OH265484   3.901   1.502  16.066 -0.2757  0.3404  0.3101
14690TIP3    H165485   3.904   1.435  16.134  0.4914  1.2369  1.2026
14690TIP3    H265486   3.954   1.574  16.102 -0.0240  0.9140 -1.1510
14691TIP3   OH265487   1.433   1.502  12.659 -0.4444 -0.4818  0.1710
14691TIP3    H165488   1.367   1.470  12.720 -0.7451 -0.0658  0.0662
14691TIP3    H265489   1.507   1.442  12.670  0.0574  0.4132  1.9602
14692TIP3   OH265490   6.097   5.269   0.488 -0.2524  0.0673 -0.5126
14692TIP3    H165491   6.127   5.346   0.536 -1.3619 -0.3644  0.9383
14692TIP3    H265492   6.046   5.305   0.415 -1.4340  0.7236  0.6045
14693TIP3   OH265493   5.364   3.684   2.901 -0.6185 -0.0774  0.2069
14693TIP3    H165494   5.413   3.694   2.982 -2.1645 -2.3159  1.5072
14693TIP3    H265495   5.381   3.594   2.873 -2.0215 -0.0961 -0.6599
14694TIP3   OH265496   6.750   0.956   1.691  0.6873  0.1891 -0.5773
14694TIP3    H165497   6.723   1.047   1.693  4.0940  1.4572 -3.1065
14694TIP3    H265498   6.711   0.921   1.611 -0.4960 -0.6166  0.3146
14695TIP3   OH265499   0.479   1.062   5.513  0.3591  0.1061 -0.4860
14695TIP3    H165500   0.419   1.010   5.566  2.9227 -0.7015  1.8766
14695TIP3    H265501   0.449   1.049   5.423 -1.3451 -2.4416  0.3333
14696TIP3   OH265502   3.521   6.068  12.810 -0.3120 -0.6072 -0.2562
14696TIP3    H165503   3.524   6.068  12.715  1.0184 -0.8516 -0.2330
14696TIP3    H265504   3.587   6.132  12.837 -1.3920  0.2413  0.5162
14697TIP3   OH265505   3.131   6.425  11.130  0.4157  0.4385  0.9411
14697TIP3    H165506   3.068   6.496  11.113 -0.4330 -0.4629  0.1915
14697TIP3    H265507   3.169   6.406  11.045 -0.8357 -1.3237  0.7120
14698TIP3   OH265508   2.441   0.366   2.198 -0.3819  0.1741 -0.4854
14698TIP3    H165509   2.476   0.283   2.164 -0.2593 -0.5866  1.3884
14698TIP3    H265510   2.412   0.345   2.287  1.3545  2.5507  0.7555
14699TIP3   OH265511   3.084   6.224  15.375  0.4587  0.2614 -0.3084
14699TIP3    H165512   3.042   6.287  15.432 -1.4949  0.1264 -1.5081
14699TIP3    H265513   3.100   6.272  15.293 -0.7736 -0.6435 -1.1264
14700TIP3   OH265514   0.873   5.259   4.390 -0.4184 -0.2133 -0.3637
14700TIP3    H165515   0.902   5.251   4.299 -0.1001  1.6915 -0.4579
14700TIP3    H265516   0.953   5.275   4.439 -0.4542 -2.2431  0.4417
14701TIP3   OH265517   0.089   3.257   1.267 -0.2957 -0.4779  0.0986
14701TIP3    H165518   0.027   3.293   1.330  0.3230 -0.9813  1.0197
14701TIP3    H265519   0.138   3.191   1.316  3.4349  2.2837  0.4999
14702TIP3   OH265520   3.435   4.017   2.090  0.3603 -0.2408 -0.5982
14702TIP3    H165521   3.387   3.936   2.077 -0.2862 -0.0263  0.3340
14702TIP3    H265522   3.374   4.086   2.064  0.5372 -0.0083 -0.4038
14703TIP3   OH265523   0.209   2.844  12.254  0.2485  0.1927 -0.9460
14703TIP3    H165524   0.133   2.858  12.310 -0.3434 -2.5341 -0.9295
14703TIP3    H265525   0.195   2.902  12.180  0.6339  3.2828  1.2014
14704TIP3   OH265526   5.173   3.005   3.770 -0.0782 -0.2526  0.3100
14704TIP3    H165527   5.172   2.926   3.716 -0.7982  0.5923 -0.9574
14704TIP3    H265528   5.084   3.013   3.804 -0.3220  0.6081 -0.4894
14705TIP3   OH265529   4.859   3.718  12.146 -0.4910  0.2388 -0.2014
14705TIP3    H165530   4.842   3.812  12.134 -2.2516 -0.2487 -2.0946
14705TIP3    H265531   4.853   3.704  12.240 -1.2966  1.8552  0.0205
14706TIP3   OH265532   6.374   3.393  17.037  0.3543 -0.1752  0.4653
14706TIP3    H165533   6.409   3.411  16.950 -1.2481 -0.6319 -0.3251
14706TIP3    H265534   6.300   3.454  17.045  1.4359  0.9760  2.1819
14707TIP3   OH265535   0.127   1.040  15.533 -0.2327 -0.2748 -0.7774
14707TIP3    H165536   0.142   0.966  15.592 -1.7932 -0.3227 -0.4034
14707TIP3    H265537   0.044   1.021  15.490  0.0654  0.5705 -1.7725
14708TIP3   OH265538   0.808   4.999   2.751  0.1249 -0.1778  0.1030
14708TIP3    H165539   0.882   4.995   2.812  0.6662  1.7298 -0.3842
14708TIP3    H265540   0.788   4.907   2.733 -0.7802 -0.9257  3.9490
14709TIP3   OH265541   4.834   4.130  11.886  0.1522 -0.3431  0.2073
14709TIP3    H165542   4.775   4.054  11.890 -0.4809  0.1497  0.3550
14709TIP3    H265543   4.780   4.200  11.850  0.7906 -0.0080 -0.1106
14710TIP3   OH265544   0.420   2.028   1.148 -0.1139 -0.3583  0.0782
14710TIP3    H165545   0.492   2.087   1.126  0.4483 -1.5693 -1.4929
14710TIP3    H265546   0.341   2.073   1.117 -0.1964  1.2322  2.3013
14711TIP3   OH265547   3.794   4.773  15.349 -0.1230 -0.5760  0.3853
14711TIP3    H165548   3.806   4.773  15.254 -0.6241  0.1790  0.3172
14711TIP3    H265549   3.875   4.812  15.382 -0.0855 -0.5348  0.2492
14712TIP3   OH265550   4.283   4.242  14.247  0.4632 -0.3614  0.0249
14712TIP3    H165551   4.273   4.322  14.297  0.3292 -0.8925  0.8639
14712TIP3    H265552   4.365   4.254  14.199  0.6575  0.1029  0.4717
14713TIP3   OH265553   6.159   1.757   5.344  0.0713 -0.2774 -1.0318
14713TIP3    H165554   6.220   1.688   5.369 -0.9596 -0.7622  0.2903
14713TIP3    H265555   6.074   1.712   5.336 -0.3077  0.5403 -1.8746
14714TIP3   OH265556   0.413   5.556   4.276 -0.2633 -0.1196  0.0232
14714TIP3    H165557   0.431   5.615   4.203 -1.7889  1.6795  0.9967
14714TIP3    H265558   0.496   5.511   4.292  0.9578  1.6894 -0.8425
14715TIP3   OH265559   2.136   3.197   2.973 -0.7379 -0.3935 -0.3033
14715TIP3    H165560   2.208   3.141   2.944 -0.4118  0.1391 -0.5382
14715TIP3    H265561   2.129   3.264   2.905  0.1440  0.9708  0.8789
14716TIP3   OH265562   4.183   5.472  16.632 -0.2531  0.5916  0.1789
14716TIP3    H165563   4.237   5.399  16.602  0.0635  1.2783 -0.9863
14716TIP3    H265564   4.094   5.447  16.610 -0.1318  0.6188 -0.3419
14717TIP3   OH265565   0.637   5.137   0.985  0.1434 -0.0837  0.2017
14717TIP3    H165566   0.722   5.112   1.021  1.1097  1.6697 -0.7394
14717TIP3    H265567   0.593   5.181   1.058  1.7977  2.7949 -0.3997
14718TIP3   OH265568   5.165   4.638  16.849 -0.0985  0.8465 -0.4546
14718TIP3    H165569   5.202   4.624  16.762 -1.2088  1.9774 -1.1511
14718TIP3    H265570   5.119   4.557  16.870  0.8842  0.2561 -0.5320
14719TIP3   OH265571   4.797   6.437   4.091 -0.0613  1.0393  0.2984
14719TIP3    H165572   4.759   6.399   4.012 -1.5344  0.3406  1.3107
14719TIP3    H265573   4.851   6.367   4.127 -1.1630  0.5582  1.0734
14720TIP3   OH265574   3.666   4.996   2.828  0.4854 -0.0303  0.5983
14720TIP3    H165575   3.646   5.083   2.863 -1.1454  0.9230 -2.3797
14720TIP3    H265576   3.689   5.012   2.737 -1.9783 -2.8867 -0.6739
14721TIP3   OH265577   3.191   2.876  17.119 -0.1130  0.0658  0.3178
14721TIP3    H165578   3.162   2.953  17.070 -1.0025  1.6886  3.1640
14721TIP3    H265579   3.252   2.911  17.184  1.4372 -2.0620  0.0887
14722TIP3   OH265580   5.209   0.808  12.798  0.0068 -0.7065 -0.0947
14722TIP3    H165581   5.237   0.891  12.838 -2.1041  0.1955 -0.3436
14722TIP3    H265582   5.277   0.789  12.733  0.6420  0.7194  0.1085
14723TIP3   OH265583   0.235   2.097  13.831  0.6159 -0.1333 -0.4856
14723TIP3    H165584   0.213   2.042  13.755  0.9883  2.1505 -2.3501
14723TIP3    H265585   0.151   2.112  13.875  0.3743 -1.3974 -0.4756
14724TIP3   OH265586   6.298   3.008  14.638 -0.5716 -0.6438  0.3429
14724TIP3    H165587   6.359   2.992  14.710  1.0356  2.7330 -0.0679
14724TIP3    H265588   6.212   2.987  14.673  0.4379 -2.0092  2.1707
14725TIP3   OH265589   6.195   5.359  11.105  0.5322 -0.3139 -0.4071
14725TIP3    H165590   6.104   5.337  11.085  0.7084 -0.7500 -0.7425
14725TIP3    H265591   6.217   5.430  11.045  0.0659  0.5783  0.4502
14726TIP3   OH265592   0.174   6.451  11.544  0.1674 -0.3608  0.0736
14726TIP3    H165593   0.232   6.474  11.616  0.9464 -0.9107 -0.3622
14726TIP3    H265594   0.126   6.532  11.525  0.1304 -0.1516  1.0390
14727TIP3   OH265595   1.284   6.616   3.942 -0.5273 -0.2080  0.4711
14727TIP3    H165596   1.354   6.638   3.881  0.2889 -0.1010  1.4365
14727TIP3    H265597   1.204   6.618   3.888  0.3743 -2.2169 -1.0831
14728TIP3   OH265598   2.722   5.332  12.507 -0.0669 -0.2649  0.1993
14728TIP3    H165599   2.766   5.248  12.520  1.9797  1.0458  2.8285
14728TIP3    H265600   2.682   5.351  12.592 -0.3686  1.4613 -0.2940
14729TIP3   OH265601   1.016   6.724  13.158  0.4736 -0.0582 -0.4408
14729TIP3    H165602   1.017   6.742  13.252  1.1874 -1.6431 -0.1128
14729TIP3    H265603   0.956   6.789  13.122 -1.6593 -0.8531  1.4109
14730TIP3   OH265604   5.143   0.064   0.082  0.1642  0.6584 -0.1104
14730TIP3    H165605   5.222   0.117   0.090  0.8711 -0.2750 -0.7176
14730TIP3    H265606   5.125   0.062  -0.012  0.5995 -0.7787 -0.1899
14731TIP3   OH265607   0.143   4.390   4.524 -0.7034  0.3516 -0.2448
14731TIP3    H165608   0.107   4.476   4.503 -1.1275  1.0080  2.7958
14731TIP3    H265609   0.236   4.405   4.537 -0.9166  0.5986  1.1824
14732TIP3   OH265610   0.081   6.275  16.584  0.3690 -0.5333 -1.2920
14732TIP3    H165611   0.082   6.217  16.508 -0.4439 -1.0409 -0.9332
14732TIP3    H265612  -0.012   6.282  16.608  0.4874  0.6137 -1.0897
14733TIP3   OH265613   0.285   3.249  12.013 -0.0959 -0.3095 -0.6554
14733TIP3    H165614   0.358   3.294  11.971 -0.4639  1.7405  0.7426
14733TIP3    H265615   0.217   3.315  12.020 -1.8224 -1.9584 -1.1946
14734TIP3   OH265616   6.087   4.053   2.986  0.3536  0.2706  0.2786
14734TIP3    H165617   6.161   4.025   2.932 -1.5471 -1.3558 -1.6739
14734TIP3    H265618   6.070   4.143   2.959 -0.1228 -0.2874 -1.4251
14735TIP3   OH265619   6.428   2.461  12.678  0.1758  0.0811  0.1197
14735TIP3    H165620   6.334   2.445  12.668 -0.0851 -0.5097  2.8313
14735TIP3    H265621   6.447   2.531  12.615 -2.2758  0.8768  0.1504
14736TIP3   OH265622   5.916   0.217   2.919 -0.2609 -0.8473 -0.0639
14736TIP3    H165623   5.862   0.174   2.853 -1.0052 -2.0592  1.2542
14736TIP3    H265624   5.991   0.159   2.931 -0.5196 -1.0429  0.6764
14737TIP3   OH265625   6.709   3.097  15.379  0.2962  0.8192  0.0388
14737TIP3    H165626   6.758   3.034  15.432  2.5835  1.1623 -1.5181
14737TIP3    H265627   6.742   3.183  15.408  0.3482  1.0792 -0.7709
14738TIP3   OH265628   6.036   6.263   5.244  0.5161 -0.6933  0.4619
14738TIP3    H165629   5.956   6.311   5.222  0.4896 -0.8728  0.1603
14738TIP3    H265630   6.085   6.323   5.300  0.2585 -0.5063  0.4925
14739TIP3   OH265631   6.199   4.091   5.239  0.1385 -0.1991 -0.2613
14739TIP3    H165632   6.293   4.106   5.251  0.1775 -0.8286  0.2764
14739TIP3    H265633   6.189   3.996   5.235 -0.2373 -0.1217 -2.5660
14740TIP3   OH265634   5.890   3.417  12.606  0.1910 -0.0518 -0.2861
14740TIP3    H165635   5.912   3.502  12.567  1.7757  0.0970  0.8337
14740TIP3    H265636   5.963   3.359  12.580 -0.8648 -1.0957 -1.0277
14741TIP3   OH265637   3.153   2.031  13.287 -0.2783 -0.2625  0.1563
14741TIP3    H165638   3.201   1.952  13.263  0.1172  0.0447 -0.0600
14741TIP3    H265639   3.066   2.018  13.249 -0.1898 -0.5613  0.0534
14742TIP3   OH265640   2.202   4.399   0.232  0.9728 -0.3951 -0.1690
14742TIP3    H165641   2.196   4.489   0.198 -1.5490 -0.7197 -0.7187
14742TIP3    H265642   2.193   4.409   0.327 -0.1750 -0.1245 -0.3005
14743TIP3   OH265643   2.310   1.708   6.404  0.6970  0.4675 -0.1145
14743TIP3    H165644   2.225   1.681   6.370  1.5641  0.3720 -2.3578
14743TIP3    H265645   2.293   1.791   6.450 -0.7859 -0.2150  0.6220
14744TIP3   OH265646   6.297   0.722   2.243 -0.0527 -0.3322 -0.4365
14744TIP3    H165647   6.211   0.765   2.247 -0.2222 -0.6950 -0.0553
14744TIP3    H265648   6.326   0.720   2.334 -0.4994 -1.9141 -0.3002
14745TIP3   OH265649   3.582   2.165   2.894  0.3344  0.1631 -0.2163
14745TIP3    H165650   3.613   2.180   2.805 -0.5312 -0.0371 -0.5512
14745TIP3    H265651   3.548   2.076   2.894 -0.3866  0.4283  0.1046
14746TIP3   OH265652   3.843   5.002   1.976  0.0526  0.4360  0.0519
14746TIP3    H165653   3.885   4.997   1.890  2.6174 -0.8189  1.2942
14746TIP3    H265654   3.785   5.079   1.969  1.8069  1.6858 -2.0996
14747TIP3   OH265655   4.077   1.064  13.894 -0.4693  0.5306  0.4622
14747TIP3    H165656   4.152   1.119  13.918 -0.9110  0.2145  2.7356
14747TIP3    H265657   4.112   1.004  13.828  0.5864  2.0498 -0.4335
14748TIP3   OH265658   4.194   4.408  11.065  0.0003  0.1366  0.5496
14748TIP3    H165659   4.259   4.377  11.001 -1.0926  0.3613 -0.7296
14748TIP3    H265660   4.112   4.411  11.015 -0.5288  2.1661  1.4638
14749TIP3   OH265661   2.944   1.890   3.409 -0.2645 -0.2878 -0.4325
14749TIP3    H165662   2.888   1.879   3.486 -0.9051  3.4983 -0.1670
14749TIP3    H265663   2.887   1.929   3.343  0.9237 -1.0412 -1.9718
14750TIP3   OH265664   6.533   4.298  16.465 -0.2917  0.2702  0.0134
14750TIP3    H165665   6.627   4.290  16.449 -0.6375 -3.5000 -1.1341
14750TIP3    H265666   6.494   4.307  16.378 -1.0884  0.3530  0.3679
14751TIP3   OH265667   4.306   2.838  11.369 -0.3614 -0.3260 -0.1208
14751TIP3    H165668   4.364   2.768  11.399 -1.3338 -0.6802  1.0200
14751TIP3    H265669   4.323   2.844  11.275  1.1058 -0.7916  0.0749
14752TIP3   OH265670   5.420   6.461   1.743 -0.0834  0.8130 -1.0545
14752TIP3    H165671   5.351   6.527   1.746  0.0328  1.1308  3.8299
14752TIP3    H265672   5.501   6.510   1.758  0.6087 -0.0066 -2.0173
14753TIP3   OH265673   2.475   1.697  13.669  0.1409  0.3509  0.4828
14753TIP3    H165674   2.507   1.743  13.591  0.4588 -0.9718 -0.1984
14753TIP3    H265675   2.450   1.610  13.637 -3.0832  0.8906  1.1748
14754TIP3   OH265676   1.353   3.115  14.649 -0.6458  0.1251  0.2318
14754TIP3    H165677   1.289   3.184  14.664 -1.7251 -1.2932  2.7884
14754TIP3    H265678   1.304   3.045  14.605 -0.4148 -0.3052  0.6491
14755TIP3   OH265679   0.831   6.392   1.320  0.3240  0.2556  0.0275
14755TIP3    H165680   0.857   6.301   1.331  1.0031  0.4964  0.4921
14755TIP3    H265681   0.877   6.421   1.241  0.2459  0.2426 -0.0225
14756TIP3   OH265682   0.187   4.682   5.133  0.1095 -0.6209  0.4628
14756TIP3    H165683   0.183   4.769   5.093  1.0340 -0.0530  1.5381
14756TIP3    H265684   0.205   4.623   5.060  2.4882  0.4753  0.0842
14757TIP3   OH265685   6.371   5.536  14.805  0.2614  0.0496  0.9934
14757TIP3    H165686   6.299   5.595  14.827 -0.9367  0.5383 -3.1778
14757TIP3    H265687   6.448   5.592  14.798  0.4520  0.0310  2.6737
14758TIP3   OH265688   4.102   2.286   1.332 -0.2234  0.1676 -0.3857
14758TIP3    H165689   4.167   2.269   1.264  0.0091 -0.0089 -0.1228
14758TIP3    H265690   4.147   2.264   1.414 -0.7125 -0.2704 -0.2263
14759TIP3   OH265691   6.068   2.576   1.952  0.0770 -0.0446  0.0862
14759TIP3    H165692   6.120   2.557   1.874 -1.2768  1.5308 -1.2788
14759TIP3    H265693   6.088   2.504   2.012  1.3393 -1.1922 -1.6051
14760TIP3   OH265694   0.240   4.935  11.877  0.4856  0.1468 -0.1829
14760TIP3    H165695   0.271   4.913  11.965 -0.7765  0.7558  0.4338
14760TIP3    H265696   0.158   4.981  11.891 -0.2782 -0.6496 -1.7274
14761TIP3   OH265697   1.115   2.697  11.445  0.2112  0.3484  0.1479
14761TIP3    H165698   1.077   2.749  11.516 -0.2059 -0.2061  0.3341
14761TIP3    H265699   1.107   2.606  11.474 -0.6801  0.0525 -0.9402
14762TIP3   OH265700   2.441   6.602   1.264  0.0402  0.8780 -0.2955
14762TIP3    H165701   2.520   6.637   1.304 -0.4204  1.1706  0.3651
14762TIP3    H265702   2.418   6.666   1.196  1.8380 -0.5028 -2.3400
14763TIP3   OH265703   5.821   5.873   1.024  0.5556  0.3567  0.0159
14763TIP3    H165704   5.830   5.780   1.042 -2.9698 -0.0580  0.3290
14763TIP3    H265705   5.785   5.910   1.104 -1.1542  1.3137 -1.1113
14764TIP3   OH265706   6.642   3.345  16.567  0.3862 -0.2004  0.4376
14764TIP3    H165707   6.622   3.258  16.533  1.4671 -0.4599  0.4385
14764TIP3    H265708   6.679   3.392  16.492 -0.0861  0.2315  0.4669
14765TIP3   OH265709   3.051   5.270  15.055 -0.2772 -0.5157 -0.4475
14765TIP3    H165710   3.109   5.323  15.001  0.5273  0.7842  1.5619
14765TIP3    H265711   3.110   5.217  15.108 -0.9375 -0.1871  0.6529
14766TIP3   OH265712   5.083   2.446   2.484  0.3446  0.4771 -1.3055
14766TIP3    H165713   5.094   2.402   2.569 -0.8477  1.3655 -0.6601
14766TIP3    H265714   5.006   2.405   2.446 -0.5907  1.7405 -0.8358
14767TIP3   OH265715   5.981   1.620  16.076 -0.3394  0.0035 -0.5446
14767TIP3    H165716   5.886   1.606  16.076 -0.3968  0.3182  0.1088
14767TIP3    H265717   6.018   1.537  16.049 -0.7118 -1.0149  1.8148
14768TIP3   OH265718   2.594   3.084   2.706 -0.1921 -0.8484 -0.4292
14768TIP3    H165719   2.659   3.124   2.764  0.6859 -1.0023 -1.2816
14768TIP3    H265720   2.607   2.990   2.715 -1.3362 -0.9464  0.5299
14769TIP3   OH265721   1.438   5.655  12.572  0.3692 -0.3792 -0.8046
14769TIP3    H165722   1.431   5.587  12.505 -2.0521 -0.9268 -0.0909
14769TIP3    H265723   1.363   5.640  12.629  0.8681  1.7147  0.5017
14770TIP3   OH265724   2.111   0.195  16.838 -0.1489  0.2437  0.0757
14770TIP3    H165725   2.144   0.259  16.774  1.2212  0.6652  1.1733
14770TIP3    H265726   2.183   0.182  16.899 -1.1191 -0.8422  1.0366
14771TIP3   OH265727   6.135   4.258   0.721  0.3374 -0.2179 -0.2949
14771TIP3    H165728   6.173   4.197   0.785  0.1063 -1.0486 -0.9333
14771TIP3    H265729   6.208   4.283   0.665  0.6091  0.7660  0.4719
14772TIP3   OH265730   1.376   5.146  12.134  0.2507 -0.6671 -0.5808
14772TIP3    H165731   1.287   5.137  12.166  0.0516  0.2601 -0.8473
14772TIP3    H265732   1.410   5.224  12.179  0.2975  0.0666 -1.8335
14773TIP3   OH265733   3.954   4.992  13.215  0.0738 -0.0084  0.7677
14773TIP3    H165734   4.035   5.033  13.184 -0.4242  0.3491 -0.0763
14773TIP3    H265735   3.911   5.060  13.267 -0.0302  0.0394  0.6188
14774TIP3   OH265736   4.448   5.165   5.272  0.2782  0.1378  0.3117
14774TIP3    H165737   4.494   5.237   5.316  1.4045  0.2618 -1.0005
14774TIP3    H265738   4.511   5.092   5.273 -0.6360 -0.6790  1.1233
14775TIP3   OH265739   0.315   3.782   3.237  0.1291 -0.5110 -0.3260
14775TIP3    H165740   0.393   3.759   3.289 -0.9898 -2.4732  0.6308
14775TIP3    H265741   0.262   3.835   3.296 -0.5035 -1.5625  0.0856
14776TIP3   OH265742   1.751   3.350  11.079  0.0454  0.3113 -0.2724
14776TIP3    H165743   1.734   3.384  11.167 -0.5547 -0.2949 -0.1426
14776TIP3    H265744   1.802   3.271  11.093 -2.8650 -1.7235 -0.1814
14777TIP3   OH265745   4.346   1.139   5.537  0.1275  0.0020  0.2657
14777TIP3    H165746   4.310   1.139   5.625  1.0567  1.3924  0.6837
14777TIP3    H265747   4.433   1.180   5.546  1.5449 -2.5609 -0.8111
14778TIP3   OH265748   4.640   1.823   4.877  0.3430 -0.3443 -0.0821
14778TIP3    H165749   4.587   1.803   4.800  0.1472 -0.3323  0.0484
14778TIP3    H265750   4.587   1.795   4.951 -0.2643  1.3007  0.1569
14779TIP3   OH265751   1.062   3.477   6.180 -0.3385 -0.4752 -0.4762
14779TIP3    H165752   1.070   3.444   6.270  3.0065 -0.0079 -0.4941
14779TIP3    H265753   1.077   3.571   6.188 -0.6733 -0.3263 -1.4770
14780TIP3   OH265754   0.522   2.053  13.065 -0.3633  0.0151 -0.3811
14780TIP3    H165755   0.609   2.051  13.025 -0.5673  1.2237 -0.9087
14780TIP3    H265756   0.494   2.144  13.057 -2.2245 -0.6092 -1.3716
14781TIP3   OH265757   3.488   2.202  11.283  0.6450  0.1015 -1.0003
14781TIP3    H165758   3.563   2.142  11.277  1.0902  0.6040 -0.5720
14781TIP3    H265759   3.424   2.154  11.336  0.5125 -0.4771 -1.6739
14782TIP3   OH265760   6.667   5.115   2.793  0.4740 -0.4683 -0.2526
14782TIP3    H165761   6.609   5.081   2.861  1.5120 -0.8312  0.4553
14782TIP3    H265762   6.621   5.193   2.760 -0.5569 -0.9131  0.0770
14783TIP3   OH265763   3.116   5.765  12.068 -0.3277  0.2912 -0.2168
14783TIP3    H165764   3.042   5.762  12.129 -0.3349 -1.6389 -0.2455
14783TIP3    H265765   3.090   5.829  12.002 -0.0276  3.0028  2.0809
14784TIP3   OH265766   3.338   4.256  10.266  0.1252 -0.5576 -0.1665
14784TIP3    H165767   3.370   4.190  10.203 -2.0432 -0.5612 -1.3595
14784TIP3    H265768   3.285   4.206  10.328 -0.5829 -0.0900 -0.3929
14785TIP3   OH265769   5.485   5.427  13.964  0.0375 -0.2420  0.1259
14785TIP3    H165770   5.432   5.381  14.028  0.5242 -0.2312  0.5442
14785TIP3    H265771   5.445   5.406  13.879 -0.4035 -0.5310  0.4054
14786TIP3   OH265772   2.981   6.509  16.746 -0.4477  0.5424  0.0805
14786TIP3    H165773   2.989   6.550  16.831 -2.4477 -1.0631  1.1387
14786TIP3    H265774   2.900   6.458  16.751 -0.1802 -0.3081 -2.4820
14787TIP3   OH265775   6.204   4.441  15.958  0.3078  0.1424  0.1378
14787TIP3    H165776   6.268   4.369  15.960  0.4795  0.3137  1.1313
14787TIP3    H265777   6.251   4.514  15.918  0.0130 -0.3885 -1.2510
14788TIP3   OH265778   2.358   0.237   0.929  0.1080  0.3708 -0.2677
14788TIP3    H165779   2.366   0.166   0.992  0.8817  0.7006  0.0112
14788TIP3    H265780   2.301   0.202   0.860 -1.6007  0.3584  1.0891
14789TIP3   OH265781   2.975   1.774  15.649  0.3376  0.1344 -0.1603
14789TIP3    H165782   2.922   1.834  15.701  1.2278  0.0691  0.8425
14789TIP3    H265783   2.949   1.792  15.559 -0.9510  0.5215  0.2592
14790TIP3   OH265784   4.065   1.320  16.872  0.1262 -0.3686 -0.0525
14790TIP3    H165785   4.028   1.234  16.851  0.2914 -0.9277  1.8220
14790TIP3    H265786   4.034   1.339  16.960  1.3605  0.7949  0.1612
14791TIP3   OH265787   2.340   4.851  11.020  0.6022  0.2923  0.0487
14791TIP3    H165788   2.370   4.830  10.932 -0.1826  1.1729 -0.4560
14791TIP3    H265789   2.302   4.770  11.053 -0.9768  0.4693 -1.2386
14792TIP3   OH265790   3.778   0.315  13.501 -0.8285  0.1870 -0.9789
14792TIP3    H165791   3.836   0.295  13.575 -0.6355  1.2504 -0.8300
14792TIP3    H265792   3.766   0.231  13.457 -1.5367 -0.6416  0.6736
14793TIP3   OH265793   1.309   3.812  13.106 -0.1273 -0.3451 -0.3367
14793TIP3    H165794   1.320   3.758  13.184  0.8333  2.2903  1.5231
14793TIP3    H265795   1.373   3.779  13.044  2.1006  0.0092  1.6137
14794TIP3   OH265796   5.174   0.220   5.971  0.4760 -0.0454 -0.2548
14794TIP3    H165797   5.140   0.304   5.939  1.5065  0.4657 -0.0453
14794TIP3    H265798   5.130   0.208   6.055  1.3301  0.9684  0.3585
14795TIP3   OH265799   6.149   6.294   1.016  0.1470  0.8073  0.3465
14795TIP3    H165800   6.216   6.350   0.975 -0.3708  1.3841  0.2674
14795TIP3    H265801   6.146   6.325   1.106 -1.6619  2.4224 -0.2040
14796TIP3   OH265802   0.396   5.181  16.831 -0.4468 -0.7301 -0.2985
14796TIP3    H165803   0.381   5.089  16.810  0.5380 -1.0320  0.2279
14796TIP3    H265804   0.313   5.225  16.811 -0.7816 -1.6494 -0.9910
14797TIP3   OH265805   2.801   2.388   3.480 -0.1071  0.5468  0.2799
14797TIP3    H165806   2.713   2.352   3.484  0.6901 -1.7352 -0.6610
14797TIP3    H265807   2.802   2.440   3.399 -0.9754  1.8366  1.0743
14798TIP3   OH265808   2.048   0.423  13.994  0.1197  0.1129 -0.4754
14798TIP3    H165809   2.001   0.486  14.049 -0.3100 -0.4162 -0.2296
14798TIP3    H265810   2.010   0.338  14.017  1.1057 -0.3132 -0.3680
14799TIP3   OH265811   4.606   2.811  15.808 -0.4708  0.4008 -0.0576
14799TIP3    H165812   4.603   2.716  15.804 -1.5872  0.3296  1.5635
14799TIP3    H265813   4.651   2.831  15.890 -1.1519  1.2275  0.1349
14800TIP3   OH265814   6.197   1.216   2.287 -0.5661  0.0151  0.5649
14800TIP3    H165815   6.189   1.302   2.327  1.6180  1.1103 -1.1133
14800TIP3    H265816   6.140   1.218   2.211  0.1618  0.3602  0.0116
14801TIP3   OH265817   6.281   0.445  16.787 -0.0710  0.5610 -0.0157
14801TIP3    H165818   6.326   0.473  16.708 -0.0595  1.7861  0.4004
14801TIP3    H265819   6.279   0.523  16.842  1.2288 -0.6152  1.8147
14802TIP3   OH265820   6.030   2.516   0.857 -0.6525 -0.5114 -0.4054
14802TIP3    H165821   5.977   2.550   0.930 -0.3312  0.9979 -0.8454
14802TIP3    H265822   6.027   2.585   0.791  0.4757 -1.1293 -1.1323
14803TIP3   OH265823   2.215   0.564  16.470 -0.0592  0.4655  0.0873
14803TIP3    H165824   2.200   0.642  16.522 -1.1097  0.4912 -0.2293
14803TIP3    H265825   2.300   0.578  16.428 -0.4738  1.6665 -0.3747
14804TIP3   OH265826   6.781   0.551  12.378  0.1306  0.1995 -0.0637
14804TIP3    H165827   6.713   0.618  12.380  1.3746  1.5083  0.6087
14804TIP3    H265828   6.857   0.595  12.339  1.0769 -0.7158  0.6841
14805TIP3   OH265829   4.399   4.300  14.511  0.0708  0.5732  0.5180
14805TIP3    H165830   4.439   4.218  14.482  0.8317  1.1805 -0.2143
14805TIP3    H265831   4.315   4.274  14.548 -0.5369 -0.3679 -1.3981
14806TIP3   OH265832   6.590   6.264   1.107  0.1945 -0.0006  0.2184
14806TIP3    H165833   6.656   6.256   1.038  0.3749  1.0506  0.2504
14806TIP3    H265834   6.525   6.325   1.071 -0.0984 -0.0312  0.6863
14807TIP3   OH265835   4.749   1.799   3.393  0.0122 -0.7839 -0.9817
14807TIP3    H165836   4.669   1.776   3.345 -0.6756  2.1147 -1.4335
14807TIP3    H265837   4.762   1.892   3.374  3.0386 -0.9476 -0.1926
14808TIP3   OH265838   2.709   6.182   0.399 -0.0719 -0.4136  0.0521
14808TIP3    H165839   2.785   6.154   0.347 -0.8584 -0.3973 -1.1605
14808TIP3    H265840   2.725   6.148   0.487  1.9236  0.6610  0.1422
14809TIP3   OH265841   6.272   5.434   4.852 -0.2063  0.1527 -0.2328
14809TIP3    H165842   6.306   5.412   4.765  0.0599  0.9877 -0.3485
14809TIP3    H265843   6.342   5.411   4.912  0.0816  0.6870 -0.3562
14810TIP3   OH265844   6.061   2.926   2.297 -0.5272  0.3272 -0.5814
14810TIP3    H165845   6.131   2.942   2.234  0.3468  0.4502  0.3936
14810TIP3    H265846   6.045   3.011   2.337  1.4157 -0.3675  1.8586
14811TIP3   OH265847   2.488   6.732  12.195 -0.4081  0.4027  0.1735
14811TIP3    H165848   2.421   6.686  12.246 -0.6407  0.5312 -0.0124
14811TIP3    H265849   2.470   6.825  12.210 -0.9925  0.4669 -0.7691
14812TIP3   OH265850   3.472   2.598  15.473  0.2162  0.0456  0.2862
14812TIP3    H165851   3.531   2.523  15.475  0.2362  0.0646  0.4226
14812TIP3    H265852   3.522   2.670  15.513  0.9541  0.6927 -1.6671
14813TIP3   OH265853   6.458   0.882   3.481  0.1123  0.1682  0.5034
14813TIP3    H165854   6.418   0.824   3.416  0.4653 -1.5548  1.7419
14813TIP3    H265855   6.445   0.837   3.565  2.4318  0.7490  1.2578
14814TIP3   OH265856   2.358   0.858  12.802  0.3002  0.1286  0.4091
14814TIP3    H165857   2.450   0.838  12.782  0.2113  1.2705 -1.4751
14814TIP3    H265858   2.347   0.948  12.770 -1.3426  0.1819  1.0784
14815TIP3   OH265859   2.483   0.353  15.400  0.1376  0.0387  0.0710
14815TIP3    H165860   2.472   0.437  15.445  0.3019  0.5566 -0.8367
14815TIP3    H265861   2.454   0.370  15.311 -3.9873 -1.9555  0.7961
14816TIP3   OH265862   5.410   4.810  15.050 -0.3294 -1.1564 -0.3845
14816TIP3    H165863   5.504   4.795  15.040 -0.4861 -1.2789 -2.0287
14816TIP3    H265864   5.378   4.734  15.098  0.6074 -0.3980  1.5224
14817TIP3   OH265865   1.602   1.213  11.176  0.2262  0.4256  0.1677
14817TIP3    H165866   1.538   1.203  11.246 -0.0860  1.7846  0.1150
14817TIP3    H265867   1.555   1.192  11.096  0.7689 -1.8103  0.3812
14818TIP3   OH265868   3.316   6.222  12.907 -0.6813  0.3074 -0.0035
14818TIP3    H165869   3.266   6.234  12.827  0.0485  1.1773 -0.3385
14818TIP3    H265870   3.389   6.165  12.882 -1.1777 -0.5026  0.3568
14819TIP3   OH265871   3.094   4.471   4.052 -0.3207 -0.4250  0.0957
14819TIP3    H165872   3.020   4.452   3.993  1.9967 -1.8520 -2.5922
14819TIP3    H265873   3.168   4.487   3.993  1.5564  1.0185  2.6531
14820TIP3   OH265874   2.490   4.151  13.117 -0.5946 -0.3462  0.1128
14820TIP3    H165875   2.556   4.085  13.138  0.3258  0.7731  0.8461
14820TIP3    H265876   2.464   4.131  13.027  1.1156 -0.5401 -0.3755
14821TIP3   OH265877   3.038   6.123   0.979  0.6241 -0.1644 -0.0984
14821TIP3    H165878   3.100   6.152   0.912  0.1459  0.0363 -0.4604
14821TIP3    H265879   3.092   6.081   1.046  1.3157  1.4459  0.3873
14822TIP3   OH265880   0.378   1.996   5.340  0.9291 -0.4637 -0.2448
14822TIP3    H165881   0.453   1.957   5.383  0.1374 -1.1771  0.5172
14822TIP3    H265882   0.303   1.944   5.369  0.1818  0.0048 -1.2707
14823TIP3   OH265883   5.416   1.990  16.210 -0.1523 -0.0838  0.0254
14823TIP3    H165884   5.432   2.082  16.231 -2.4028  0.0853  1.2291
14823TIP3    H265885   5.324   1.986  16.184 -0.6514 -2.2478  1.7951
14824TIP3   OH265886   0.997   3.924   5.443  0.3348  0.1583  0.6294
14824TIP3    H165887   1.019   4.017   5.453 -0.2423  0.1956  1.6036
14824TIP3    H265888   1.082   3.879   5.448  0.4852  0.5200  1.6159
14825TIP3   OH265889   2.598   2.539  15.872  0.1615  0.1210  0.2776
14825TIP3    H165890   2.618   2.449  15.895  0.0941 -0.7495 -2.6588
14825TIP3    H265891   2.518   2.534  15.819  0.5067  1.8071 -0.5017
14826TIP3   OH265892   3.717   5.069   2.557 -0.7214 -0.2203 -0.3105
14826TIP3    H165893   3.636   5.082   2.508 -1.3368 -0.5313  0.6026
14826TIP3    H265894   3.766   5.151   2.545 -1.2602  0.0468 -0.7053
14827TIP3   OH265895   2.584   2.762   3.648  0.2033  0.0802  0.2527
14827TIP3    H165896   2.604   2.824   3.719  0.0610  0.7844 -0.3060
14827TIP3    H265897   2.669   2.742   3.609  0.2033  0.2866  0.1439
14828TIP3   OH265898   1.065   6.249  13.712  0.4686  0.3837 -0.2555
14828TIP3    H165899   0.993   6.312  13.715  0.1704  0.0810 -0.8304
14828TIP3    H265900   1.078   6.232  13.619 -0.8449 -1.9621 -0.1057
14829TIP3   OH265901   4.063   1.104  13.411 -0.0796 -0.4690 -0.3446
14829TIP3    H165902   4.052   1.048  13.334 -0.6370  0.3712 -0.8953
14829TIP3    H265903   4.121   1.174  13.382  0.0311 -0.3655  0.1191
14830TIP3   OH265904   4.499   0.476   3.863 -0.5684 -0.0990 -0.1933
14830TIP3    H165905   4.559   0.550   3.860 -1.7197  1.0307  2.0041
14830TIP3    H265906   4.441   0.488   3.788 -0.6911  1.2231  0.0957
14831TIP3   OH265907   2.090   1.163   5.436 -0.2503  0.3547  0.9194
14831TIP3    H165908   2.007   1.189   5.395 -0.2162 -0.9067 -0.0107
14831TIP3    H265909   2.065   1.131   5.522 -0.9546 -1.3817  0.1136
14832TIP3   OH265910   4.065   0.906   4.410  0.1459 -0.2087 -0.2521
14832TIP3    H165911   4.003   0.979   4.422  0.2663 -0.4421  2.2274
14832TIP3    H265912   4.011   0.835   4.376 -0.7198 -0.0206  0.6688
14833TIP3   OH265913   4.372   4.525   5.520  0.5636 -0.2878 -0.9366
14833TIP3    H165914   4.331   4.561   5.442  1.8157 -0.7168 -1.8254
14833TIP3    H265915   4.336   4.577   5.593 -0.0997  0.5719 -1.8567
14834TIP3   OH265916   0.792   4.091   4.032  0.3641 -0.0574  0.0420
14834TIP3    H165917   0.771   4.010   3.986 -0.8128  0.2346  0.0254
14834TIP3    H265918   0.832   4.147   3.965  2.0924 -0.9375  0.2793
14835TIP3   OH265919   2.620   4.422   3.958  0.0484  0.3096  0.4204
14835TIP3    H165920   2.635   4.328   3.953 -0.2842  0.3021 -0.6453
14835TIP3    H265921   2.645   4.446   4.047 -0.7966 -0.9535  1.0203
14836TIP3   OH265922   6.306   5.593  13.730 -0.4682  0.4357 -0.4050
14836TIP3    H165923   6.373   5.632  13.673 -0.8723  1.1156 -0.4278
14836TIP3    H265924   6.234   5.571  13.671 -0.5597  0.3918 -0.2768
14837TIP3   OH265925   1.605   4.586   5.886  0.2254  0.6730  0.7311
14837TIP3    H165926   1.536   4.639   5.925 -0.7034 -0.0189  0.0650
14837TIP3    H265927   1.660   4.650   5.840 -1.1147  1.0611 -0.4097
14838TIP3   OH265928   0.825   4.721  14.951 -0.0567 -0.2747  0.2525
14838TIP3    H165929   0.745   4.743  14.903 -0.1913  2.9761  1.7210
14838TIP3    H265930   0.867   4.654  14.897 -1.7847  0.7869 -2.6429
14839TIP3   OH265931   2.597   2.852  10.848  0.0224  0.3410 -0.1920
14839TIP3    H165932   2.588   2.809  10.933  1.2851 -1.3940 -0.8895
14839TIP3    H265933   2.675   2.813  10.809  0.5753  2.4705 -1.3845
14840TIP3   OH265934   5.808   5.750   4.049  0.0181  0.0678 -0.1751
14840TIP3    H165935   5.852   5.835   4.055 -0.0188 -0.0210  2.6419
14840TIP3    H265936   5.769   5.736   4.136 -0.4781 -2.5801 -0.7169
14841TIP3   OH265937   2.329   5.382   5.573  0.3890  0.2672  1.4495
14841TIP3    H165938   2.287   5.441   5.511  1.6500 -0.4569 -0.1914
14841TIP3    H265939   2.336   5.433   5.654 -1.0355  1.3510  0.9338
14842TIP3   OH265940   3.136   2.293   1.086  0.1282  0.1235  0.2538
14842TIP3    H165941   3.192   2.220   1.113 -1.7489 -0.8206  1.8453
14842TIP3    H265942   3.142   2.356   1.158 -0.7112  0.0833  0.3663
14843TIP3   OH265943   0.457   0.783  13.190  0.0623  0.4306  0.1205
14843TIP3    H165944   0.448   0.818  13.102  1.7618 -0.0769 -0.2818
14843TIP3    H265945   0.479   0.859  13.244 -1.6388  0.8605  0.2717
14844TIP3   OH265946   2.732   2.759  14.630  0.0016  0.0213  0.4139
14844TIP3    H165947   2.650   2.719  14.662 -0.2070 -0.6708 -0.9398
14844TIP3    H265948   2.801   2.707  14.672 -0.2330  0.3138  1.1965
14845TIP3   OH265949   1.581   3.545  15.512  0.5439 -0.1824  0.3077
14845TIP3    H165950   1.535   3.490  15.449  1.0500  2.2823 -2.3962
14845TIP3    H265951   1.517   3.562  15.581 -1.1823 -0.2798 -1.2051
14846TIP3   OH265952   1.662   6.759   3.982  0.0530 -0.3252 -0.6473
14846TIP3    H165953   1.738   6.701   3.976  0.0977 -0.1280 -2.3376
14846TIP3    H265954   1.650   6.792   3.893 -1.5329  0.2723 -0.2359
14847TIP3   OH265955   0.229   2.586  17.054  0.4571 -0.1565 -0.1931
14847TIP3    H165956   0.172   2.542  16.991  1.1254 -1.2773 -0.0349
14847TIP3    H265957   0.276   2.651  17.002  1.2301 -1.2805 -0.9406
14848TIP3   OH265958   5.391   6.495  14.074  0.7825  0.2773 -0.3985
14848TIP3    H165959   5.386   6.587  14.047  0.2196  0.7125  1.1118
14848TIP3    H265960   5.300   6.466  14.075  0.8441  0.1140  0.4807
14849TIP3   OH265961   3.098   0.173  10.399 -0.7470 -0.0585  0.2425
14849TIP3    H165962   3.066   0.249  10.447 -2.4390 -0.8616  0.4710
14849TIP3    H265963   3.079   0.099  10.456  0.0632 -0.7423 -0.3507
14850TIP3   OH265964   4.467   5.492  12.839  0.4320 -0.0428 -0.7851
14850TIP3    H165965   4.559   5.466  12.834  0.9003  0.5345  2.3834
14850TIP3    H265966   4.462   5.571  12.786  2.5421  1.5215  1.1151
14851TIP3   OH265967   6.454   5.789  15.150  0.0251  0.2192 -0.1397
14851TIP3    H165968   6.495   5.833  15.075 -1.8067  2.4125  0.0368
14851TIP3    H265969   6.388   5.732  15.112  0.3357 -0.0753 -0.2453
14852TIP3   OH265970   2.758   0.407   5.525  0.0392 -0.2076 -0.3194
14852TIP3    H165971   2.726   0.478   5.581 -0.2886 -1.0100  0.5380
14852TIP3    H265972   2.725   0.429   5.437  3.2601  2.7969 -0.9924
14853TIP3   OH265973   2.326   6.051  14.181 -0.1215  0.0181  0.0059
14853TIP3    H165974   2.386   6.072  14.110  0.8597  1.1271  1.1151
14853TIP3    H265975   2.383   6.032  14.256 -1.1107 -1.7703  0.3501
14854TIP3   OH265976   1.203   0.420   4.193  0.1764 -0.2484  0.2039
14854TIP3    H165977   1.146   0.494   4.171  1.2138  0.2713 -0.9337
14854TIP3    H265978   1.155   0.370   4.258 -1.4880  0.2508 -0.5977
14855TIP3   OH265979   4.705   5.910  16.117 -0.6534 -1.0473  0.0455
14855TIP3    H165980   4.613   5.883  16.115 -0.4579 -1.9030  1.3116
14855TIP3    H265981   4.704   5.995  16.161 -0.8963 -0.6683 -0.6630
14856TIP3   OH265982   6.196   4.226   4.291 -0.4660 -0.3438  0.1864
14856TIP3    H165983   6.280   4.252   4.329 -0.5981 -0.5709  0.6519
14856TIP3    H265984   6.130   4.267   4.347 -0.6665 -0.2447 -0.1182
14857TIP3   OH265985   1.010   0.992  12.383  0.3916  0.1560  0.1519
14857TIP3    H165986   1.083   0.984  12.323  0.0540  0.2399 -0.2743
14857TIP3    H265987   1.047   0.971  12.469  1.5522  2.7340  0.3766
14858TIP3   OH265988   1.702   6.677   0.798 -0.4181  0.1665  0.2894
14858TIP3    H165989   1.782   6.728   0.781 -1.0654  0.5342 -1.9721
14858TIP3    H265990   1.639   6.742   0.828 -0.5395  0.3135 -0.2613
14859TIP3   OH265991   0.819   3.477   1.510 -0.6199 -0.0598  0.0465
14859TIP3    H165992   0.890   3.513   1.456  0.2315 -1.0866  0.4637
14859TIP3    H265993   0.739   3.512   1.469  0.1192  1.6317 -0.0582
14860TIP3   OH265994   4.400   6.078   2.734  0.4812  0.4432  0.4945
14860TIP3    H165995   4.471   6.017   2.713  0.2901 -0.2469  1.7671
14860TIP3    H265996   4.415   6.101   2.826 -1.1280  0.0486  0.8748
14861TIP3   OH265997   1.049   2.536   3.205 -0.4473 -0.1379 -0.3351
14861TIP3    H165998   1.041   2.501   3.293  1.3690 -0.5083 -0.2768
14861TIP3    H265999   1.079   2.462   3.152 -2.4030 -0.1761 -1.5033
14862TIP3   OH266000   0.474   2.322   1.914 -0.4297 -0.4142 -0.0349
14862TIP3    H166001   0.486   2.228   1.905 -0.1495 -0.3801 -0.0280
14862TIP3    H266002   0.416   2.333   1.989 -0.5357 -0.5850 -0.0929
14863TIP3   OH266003   4.118   1.694  15.625 -0.2990 -0.0068 -0.1478
14863TIP3    H166004   4.182   1.645  15.574 -0.0970  0.1769 -0.0712
14863TIP3    H266005   4.063   1.738  15.561  0.1306  0.4546 -0.2108
14864TIP3   OH266006   0.048   2.105   5.981  0.0957 -0.3099 -0.3775
14864TIP3    H166007   0.078   2.043   6.047 -2.0746  0.4348  1.4263
14864TIP3    H266008   0.102   2.183   5.994  0.7206 -0.7076 -0.5527
14865TIP3   OH266009   4.295   2.480   2.545  0.2718  0.0045  0.0310
14865TIP3    H166010   4.230   2.414   2.569  0.5696 -0.3364 -0.0743
14865TIP3    H266011   4.250   2.564   2.555  0.4576 -0.0706  2.1087
14866TIP3   OH266012   5.791   6.372  16.589 -0.0435  0.0677  0.4372
14866TIP3    H166013   5.704   6.383  16.551  0.1282 -0.4944 -0.1504
14866TIP3    H266014   5.783   6.298  16.648  0.0615 -0.0687  0.2835
14867TIP3   OH266015   5.741   4.286   4.461 -0.1902 -0.7378  0.4283
14867TIP3    H166016   5.728   4.379   4.477  2.3962 -0.3456  0.6884
14867TIP3    H266017   5.699   4.270   4.376 -1.2411  0.4814  0.6932
14868TIP3   OH266018   2.893   1.480   6.157  0.5045 -0.7058  0.8997
14868TIP3    H166019   2.919   1.572   6.161 -1.3660 -0.0953 -0.0826
14868TIP3    H266020   2.954   1.436   6.216  1.0234  1.2489  1.9137
14869TIP3   OH266021   2.145   5.544  14.628 -0.3481  0.1413  0.4127
14869TIP3    H166022   2.075   5.574  14.571 -1.2655 -0.2754  1.2961
14869TIP3    H266023   2.165   5.621  14.683  0.2090  0.3984 -0.1433
14870TIP3   OH266024   5.813   1.465   5.718  0.1533 -0.0075 -0.2618
14870TIP3    H166025   5.841   1.399   5.654 -0.7009 -0.4411 -0.1953
14870TIP3    H266026   5.844   1.431   5.802  0.8737  0.3390 -0.3740
14871TIP3   OH266027   3.329   0.677   3.443  0.0445  0.0613  0.0036
14871TIP3    H166028   3.309   0.638   3.358 -0.6685 -1.1469  0.6963
14871TIP3    H266029   3.418   0.711   3.435  0.2871 -0.7901 -0.9554
14872TIP3   OH266030   6.155   0.444   5.578 -0.1731  0.1367  0.5739
14872TIP3    H166031   6.118   0.373   5.630  1.5785  0.3842  2.2605
14872TIP3    H266032   6.083   0.506   5.568 -1.0639 -0.7822  1.1060
14873TIP3   OH266033   5.546   0.371   1.773  0.1899  0.1424 -0.3069
14873TIP3    H166034   5.544   0.462   1.743 -0.8730  1.2899  2.8364
14873TIP3    H266035   5.585   0.375   1.860 -1.8094 -2.0628  0.8063
14874TIP3   OH266036   5.530   6.006  13.801 -0.3596  0.0649 -0.4732
14874TIP3    H166037   5.574   6.087  13.829  0.6877 -0.6671  0.0531
14874TIP3    H266038   5.587   5.971  13.732 -0.0017 -0.9853  0.3410
14875TIP3   OH266039   4.647   2.606  14.063  0.6126  0.1388 -0.2660
14875TIP3    H166040   4.578   2.614  13.997  0.8925 -0.3831 -0.6164
14875TIP3    H266041   4.726   2.639  14.020  1.5724 -3.2678 -1.3856
14876TIP3   OH266042   3.148   1.456   2.907  0.2115  0.2497 -0.2798
14876TIP3    H166043   3.076   1.408   2.865 -1.7237  2.3176  0.4300
14876TIP3    H266044   3.166   1.407   2.987 -0.0273 -0.5962 -0.7275
14877TIP3   OH266045   3.468   2.022   2.553 -0.4462  0.2520 -0.4806
14877TIP3    H166046   3.468   1.946   2.494 -1.5548 -1.5244  1.6710
14877TIP3    H266047   3.387   2.068   2.532 -0.6985 -0.2044 -0.5208
14878TIP3   OH266048   0.220   4.388  13.429  0.0419 -0.0723 -0.4508
14878TIP3    H166049   0.147   4.433  13.386  0.6245  1.4439  0.0791
14878TIP3    H266050   0.187   4.368  13.517  0.3130  0.8358 -0.1265
14879TIP3   OH266051   6.700   2.255   0.316 -0.4423  0.3063  0.5161
14879TIP3    H166052   6.738   2.228   0.232 -1.4891  0.5463 -0.0518
14879TIP3    H266053   6.776   2.281   0.369  0.1624  1.2249 -0.7314
14880TIP3   OH266054   1.340   3.220   0.280  0.0853  0.5660  0.2803
14880TIP3    H166055   1.414   3.265   0.320 -0.2449  0.5601  0.9083
14880TIP3    H266056   1.379   3.158   0.219  0.6592 -0.3620  1.5476
14881TIP3   OH266057   1.466   2.498  10.408  0.2598 -0.0733 -0.0685
14881TIP3    H166058   1.530   2.429  10.388 -0.1047 -0.1288 -1.1349
14881TIP3    H266059   1.516   2.565  10.454  1.3444  0.3111 -1.7099
14882TIP3   OH266060   2.783   2.265  15.722  0.3795  0.3481 -0.0148
14882TIP3    H166061   2.728   2.280  15.799  0.4325 -2.0543  0.5716
14882TIP3    H266062   2.726   2.219  15.661  1.0178  0.1380 -0.4635
14883TIP3   OH266063   1.930   4.357  14.133 -0.3199  0.0544  0.0458
14883TIP3    H166064   1.929   4.274  14.086 -0.8329  0.1698 -0.1566
14883TIP3    H266065   1.900   4.335  14.221  1.1574 -0.2545  0.5005
14884TIP3   OH266066   3.887   1.105   6.049  0.3024 -0.0229  0.0816
14884TIP3    H166067   3.811   1.091   6.104 -1.8863  1.3513 -2.3734
14884TIP3    H266068   3.925   1.188   6.081 -0.2372  0.1583  0.2552
14885TIP3   OH266069   2.579   5.322   3.179 -0.4177  0.7193  0.1781
14885TIP3    H166070   2.673   5.305   3.187 -0.4567  0.5807  0.3408
14885TIP3    H266071   2.571   5.375   3.100 -0.3692 -0.6078 -0.7350
14886TIP3   OH266072   2.239   6.335   0.637 -0.1300 -0.8185  0.6749
14886TIP3    H166073   2.168   6.274   0.614 -0.2655 -0.2922 -0.3713
14886TIP3    H266074   2.314   6.278   0.656  0.2895 -1.3410 -2.1252
14887TIP3   OH266075   4.997   1.694  16.058 -0.2535  0.1204 -0.3792
14887TIP3    H166076   4.951   1.698  15.974 -0.0093 -0.4649 -0.5458
14887TIP3    H266077   4.958   1.620  16.103  1.0263 -0.8627 -0.8373
14888TIP3   OH266078   5.687   6.473  15.587  0.5927  0.2682 -0.1364
14888TIP3    H166079   5.661   6.565  15.596 -0.1816 -0.1222  2.8497
14888TIP3    H266080   5.604   6.424  15.589  1.0660 -0.5501 -0.0007
14889TIP3   OH266081   3.421   3.616  14.497 -0.3577  0.0409 -0.5443
14889TIP3    H166082   3.445   3.634  14.407 -1.4764 -0.5178 -0.9777
14889TIP3    H266083   3.326   3.600  14.494 -0.0872 -2.1722  0.3339
14890TIP3   OH266084   2.031   4.563  15.035 -0.1489  0.1454 -0.3283
14890TIP3    H166085   1.958   4.552  14.974  0.3749  1.2588 -1.1999
14890TIP3    H266086   2.088   4.627  14.992  0.9006 -0.0438  0.7396
14891TIP3   OH266087   5.931   2.467   6.403 -0.0520 -0.0264  0.5744
14891TIP3    H166088   5.976   2.388   6.373 -0.6471 -0.0632 -0.2581
14891TIP3    H266089   5.864   2.483   6.336  0.1567  1.2668  0.6509
14892TIP3   OH266090   5.262   2.342  16.515  0.0607  0.2100  0.3338
14892TIP3    H166091   5.178   2.386  16.525 -1.4036 -2.1586 -0.6199
14892TIP3    H266092   5.321   2.387  16.576 -2.3975  0.7166  2.4978
14893TIP3   OH266093   0.288   4.837   5.338 -0.2884  0.4343 -0.2697
14893TIP3    H166094   0.361   4.866   5.284  1.4005 -2.2264  0.3930
14893TIP3    H266095   0.233   4.785   5.279 -0.1991  0.2359 -0.1802
14894TIP3   OH266096   6.735   4.716  11.713  0.1877  0.4159  0.4414
14894TIP3    H166097   6.724   4.623  11.732  2.6895 -0.2571 -0.9710
14894TIP3    H266098   6.798   4.747  11.778  0.3358  0.8053  0.1239
14895TIP3   OH266099   0.208   4.750  14.112 -0.0656 -0.1542  0.5865
14895TIP3    H166100   0.197   4.716  14.024 -1.2457 -1.1811  1.1081
14895TIP3    H266101   0.299   4.781  14.115  0.2132 -0.7999 -0.7314
14896TIP3   OH266102   5.755   3.668   3.378 -0.8146  0.6404  0.5497
14896TIP3    H166103   5.706   3.742   3.342  0.2262  0.8350 -0.5154
14896TIP3    H266104   5.769   3.610   3.303  2.2759  1.5301  0.3021
14897TIP3   OH266105   5.307   0.231   3.417 -0.3528 -0.2687 -0.5264
14897TIP3    H166106   5.353   0.224   3.500 -2.6126 -0.4826  0.7915
14897TIP3    H266107   5.287   0.324   3.408 -0.7657 -0.3421 -0.4220
14898TIP3   OH266108   0.989   4.493  13.085  0.9498  0.2136 -0.8006
14898TIP3    H166109   0.948   4.423  13.035  1.8198 -1.0387  0.1987
14898TIP3    H266110   1.075   4.460  13.107  1.0881  1.2773  0.3786
14899TIP3   OH266111   4.928   4.183   0.234  0.2173  0.5631 -0.3580
14899TIP3    H166112   4.907   4.101   0.190  0.8339 -0.0322  0.4333
14899TIP3    H266113   5.013   4.168   0.275  0.7437  1.8870 -0.9069
14900TIP3   OH266114   3.043   1.315   2.550 -0.6641  0.7418 -0.1799
14900TIP3    H166115   3.021   1.244   2.489 -1.2167  1.1795 -0.5002
14900TIP3    H266116   2.962   1.366   2.557 -1.1601 -0.2103  2.1900
14901TIP3   OH266117   4.206   5.443  14.281  0.6937  0.4536 -0.3292
14901TIP3    H166118   4.218   5.485  14.367 -0.9077  1.9150 -0.7514
14901TIP3    H266119   4.291   5.405  14.261  1.4700  1.1965  1.3347
14902TIP3   OH266120   6.742   5.142  13.658  0.2731 -0.5309 -0.3089
14902TIP3    H166121   6.712   5.211  13.600 -1.0245 -0.9424 -0.1536
14902TIP3    H266122   6.820   5.106  13.615  0.9858  1.0235 -0.3726
14903TIP3   OH266123   2.166   0.108  16.391  0.0525  0.2649  0.0123
14903TIP3    H166124   2.254   0.072  16.403 -0.9792 -2.7778 -0.5779
14903TIP3    H266125   2.111   0.058  16.452 -1.3860  1.5972 -0.1337
14904TIP3   OH266126   1.362   4.628  15.918 -0.5164 -0.1737 -0.4026
14904TIP3    H166127   1.349   4.654  15.826 -1.3415 -0.8569 -0.4901
14904TIP3    H266128   1.391   4.537  15.913 -2.1797 -0.7643  0.0526
14905TIP3   OH266129   1.609   0.667  14.593  0.5305  0.4099  0.4908
14905TIP3    H166130   1.553   0.676  14.670  1.1948  0.0150  1.0295
14905TIP3    H266131   1.625   0.757  14.564 -1.5449  0.4927 -0.5471
14906TIP3   OH266132   1.719   0.330   3.617 -0.6434 -0.0413  0.0924
14906TIP3    H166133   1.757   0.322   3.530 -2.2405  0.6551 -0.7016
14906TIP3    H266134   1.728   0.423   3.639 -2.7082  0.3583 -0.5495
14907TIP3   OH266135   4.003   2.529  16.108 -0.0575  0.0784  0.2668
14907TIP3    H166136   3.990   2.435  16.099  0.2664  0.1044 -0.4849
14907TIP3    H266137   4.023   2.541  16.201 -0.0365 -0.5965  0.3535
14908TIP3   OH266138   2.092   1.847  15.945 -0.1581  0.4368 -0.2876
14908TIP3    H166139   2.091   1.835  16.040  1.4284 -0.0182 -0.2935
14908TIP3    H266140   2.117   1.938  15.933 -1.4596  0.8075 -0.2796
14909TIP3   OH266141   5.049   0.874  12.211  0.5259  0.0477 -0.4632
14909TIP3    H166142   5.051   0.968  12.226 -0.3215 -0.1885  1.4377
14909TIP3    H266143   4.965   0.846  12.249  1.9183 -1.8183  1.4617
14910TIP3   OH266144   3.697   0.114   1.439 -0.5928 -0.4115  0.1996
14910TIP3    H166145   3.668   0.109   1.530  0.4904 -0.0714  0.5887
14910TIP3    H266146   3.793   0.110   1.444 -0.3744  1.9439 -0.7101
14911TIP3   OH266147   5.082   2.902   0.158 -0.0192  0.3272  0.1734
14911TIP3    H166148   5.127   2.984   0.142  0.9758 -0.3915 -0.8517
14911TIP3    H266149   5.064   2.902   0.252  1.5172  0.9387  0.4860
14912TIP3   OH266150   0.922   4.567   4.545  0.5659 -0.1783  0.1924
14912TIP3    H166151   0.888   4.640   4.597  1.1958  0.3490 -0.1155
14912TIP3    H266152   1.005   4.544   4.587  0.4151 -0.6563  0.2315
14913TIP3   OH266153   4.369   6.299   3.897 -0.2050  0.7000 -0.0989
14913TIP3    H166154   4.293   6.240   3.901  1.1148 -1.0992 -0.5426
14913TIP3    H266155   4.387   6.321   3.988 -0.2909 -0.1793  0.1399
14914TIP3   OH266156   1.280   0.155  13.174  0.4835  0.3920  0.6832
14914TIP3    H166157   1.277   0.156  13.078  0.6899  0.7069  0.6766
14914TIP3    H266158   1.279   0.062  13.197  2.5011  0.2210  0.2926
14915TIP3   OH266159   3.863   3.978   0.991 -0.4931  0.4871 -0.4126
14915TIP3    H166160   3.786   3.936   1.031  1.1527 -1.1208  1.3158
14915TIP3    H266161   3.859   3.952   0.899 -1.7424  0.0044 -0.2482
14916TIP3   OH266162   6.364   3.896   0.630  0.0392 -0.6092  0.4555
14916TIP3    H166163   6.427   3.967   0.622 -0.4657 -0.0458  1.3382
14916TIP3    H266164   6.415   3.817   0.612  0.5359 -0.0211 -0.8525
14917TIP3   OH266165   5.401   6.128   1.562  0.2533  0.4830 -0.3550
14917TIP3    H166166   5.473   6.191   1.571  0.9505 -0.5129  2.1178
14917TIP3    H266167   5.444   6.043   1.563 -0.8628 -0.0985 -0.4587
14918TIP3   OH266168   3.324   0.185   5.066  0.0716  0.3754 -0.0956
14918TIP3    H166169   3.272   0.142   4.997 -0.3866 -1.2919  1.2237
14918TIP3    H266170   3.329   0.276   5.038  0.7606 -0.4003 -2.8449
14919TIP3   OH266171   1.327   5.595  16.165  0.3208 -0.2163 -0.0277
14919TIP3    H166172   1.350   5.569  16.254 -0.5447  1.1212  0.6252
14919TIP3    H266173   1.238   5.628  16.172  0.1991 -0.1812 -1.4219
14920TIP3   OH266174   5.125   5.106   3.361 -0.3133  0.1631  0.1566
14920TIP3    H166175   5.047   5.079   3.410  0.9761 -2.5582  0.8741
14920TIP3    H266176   5.145   5.194   3.394 -1.8382  0.0431  1.5091
14921TIP3   OH266177   4.501   5.883  16.883 -0.7451  0.4700 -0.7867
14921TIP3    H166178   4.465   5.845  16.802 -1.5611  1.0745 -0.7215
14921TIP3    H266179   4.564   5.817  16.914 -1.0845 -0.1780 -1.4314
14922TIP3   OH266180   6.671   5.744  11.867  0.6329  0.5391  0.3211
14922TIP3    H166181   6.601   5.782  11.814 -0.5567 -0.2960  1.2569
14922TIP3    H266182   6.693   5.812  11.930 -0.5171  0.2272  1.0906
14923TIP3   OH266183   5.465   4.671  13.804  0.2328  0.2934 -0.4099
14923TIP3    H166184   5.534   4.729  13.772  1.9066 -2.9847 -3.4763
14923TIP3    H266185   5.475   4.673  13.899  2.8134  1.9414 -0.5889
14924TIP3   OH266186   1.596   1.206  11.722  0.0952  0.0654  0.2148
14924TIP3    H166187   1.683   1.182  11.753  0.5043  0.9532 -0.2344
14924TIP3    H266188   1.582   1.295  11.754 -0.4530  0.1096 -0.1257
14925TIP3   OH266189   4.008   5.221  16.130  0.0712 -0.2552 -0.1265
14925TIP3    H166190   3.994   5.209  16.036  1.1540  0.3496 -0.3840
14925TIP3    H266191   4.099   5.196  16.144  0.5620  1.6486  0.3774
14926TIP3   OH266192   3.668   0.290   5.654 -0.0709  0.4846  0.0585
14926TIP3    H166193   3.712   0.343   5.721 -1.2644 -0.2911  1.5209
14926TIP3    H266194   3.633   0.215   5.702  1.5697 -1.7134 -1.9069
14927TIP3   OH266195   0.366   4.321  14.660 -0.6884 -0.4211  0.0147
14927TIP3    H166196   0.301   4.274  14.713 -0.4967 -1.7028 -0.8314
14927TIP3    H266197   0.316   4.391  14.618 -1.0883 -0.1294  0.9425
14928TIP3   OH266198   3.825   5.988  10.710  0.6145  0.2627 -0.0701
14928TIP3    H166199   3.801   5.974  10.802  0.3437  1.7559  0.1083
14928TIP3    H266200   3.874   6.070  10.711  0.9914  0.0607 -1.2135
14929TIP3   OH266201   0.837   4.610   0.565  0.0924 -0.1857  0.4259
14929TIP3    H166202   0.753   4.623   0.608  0.4853  1.1497  0.8170
14929TIP3    H266203   0.875   4.534   0.610 -0.0265  0.4410  1.6190
14930TIP3   OH266204   5.988   2.725  11.813 -0.1159  0.0851 -0.4754
14930TIP3    H166205   5.963   2.814  11.787 -0.1064  0.4640  0.7596
14930TIP3    H266206   5.938   2.709  11.893  1.3935 -0.2647  0.4214
14931TIP3   OH266207   1.630   3.780   0.229  1.1402 -0.0451 -0.4906
14931TIP3    H166208   1.712   3.731   0.226  1.2276  0.0974 -0.4219
14931TIP3    H266209   1.595   3.763   0.316  1.7206  0.9087 -0.0559
14932TIP3   OH266210   0.538   5.375  14.770 -0.3885  0.2464  0.2480
14932TIP3    H166211   0.616   5.409  14.726  0.2726  0.2266  1.3578
14932TIP3    H266212   0.573   5.331  14.848 -1.3908 -1.0750 -0.0149
14933TIP3   OH266213   0.800   4.810   1.187  0.1434 -0.0012 -0.3347
14933TIP3    H166214   0.827   4.811   1.279 -0.8884  0.7347 -0.0391
14933TIP3    H266215   0.799   4.902   1.161  1.7524 -0.2589 -1.5054
14934TIP3   OH266216   3.349   5.556  14.514  0.4418  0.2092 -0.4068
14934TIP3    H166217   3.410   5.511  14.573 -0.7409  1.3042  1.7271
14934TIP3    H266218   3.336   5.493  14.442  1.1079 -1.6212  0.9921
14935TIP3   OH266219   2.497   6.092   3.963  0.4920  0.0501  0.0211
14935TIP3    H166220   2.555   6.065   3.892  2.0175 -0.7532  1.4996
14935TIP3    H266221   2.461   6.176   3.934 -1.5367 -1.7103 -3.1174
14936TIP3   OH266222   4.544   5.525   3.294  0.1600 -0.0137  0.5453
14936TIP3    H166223   4.629   5.549   3.333  0.8552 -0.7842 -0.4336
14936TIP3    H266224   4.480   5.543   3.363  1.0771  0.9134  1.1867
14937TIP3   OH266225   1.514   1.680  10.568 -0.5143  0.4527  0.2216
14937TIP3    H166226   1.460   1.652  10.642 -1.4171 -0.0220 -0.5946
14937TIP3    H266227   1.599   1.701  10.607 -0.0011 -2.6461  1.0378
14938TIP3   OH266228   2.058   4.691   4.188 -0.8103  0.2931  1.0158
14938TIP3    H166229   2.036   4.609   4.232 -1.4384 -0.7639 -1.1156
14938TIP3    H266230   2.144   4.715   4.223  0.5763 -2.6478 -0.0541
14939TIP3   OH266231   2.891   1.650   4.202 -0.1962 -0.5547  0.2337
14939TIP3    H166232   2.816   1.601   4.235 -0.7073  0.0128 -0.0703
14939TIP3    H266233   2.940   1.675   4.280 -0.1178 -1.2475  0.4103
14940TIP3   OH266234   5.107   1.250  12.493 -0.0228 -0.6023 -0.4160
14940TIP3    H166235   5.178   1.264  12.556 -1.4000  0.2195  1.0265
14940TIP3    H266236   5.036   1.212  12.545 -1.7961  1.6189 -1.0522
14941TIP3   OH266237   5.746   3.477   6.165  0.0349 -0.8524  0.2598
14941TIP3    H166238   5.741   3.381   6.169 -0.9372 -0.8318 -0.1430
14941TIP3    H266239   5.681   3.507   6.229  2.6256 -0.4008  2.8592
14942TIP3   OH266240   1.569   0.912   5.754  0.4435  0.1268  0.7985
14942TIP3    H166241   1.523   0.855   5.816  1.1525 -1.5416 -0.1435
14942TIP3    H266242   1.637   0.856   5.717 -0.7129  0.6411 -2.4114
14943TIP3   OH266243   1.532   4.126  12.826  0.3845  0.2070 -0.1926
14943TIP3    H166244   1.581   4.091  12.751  0.2563 -1.8378  0.6105
14943TIP3    H266245   1.598   4.149  12.890  0.4476 -3.0194  1.0919
14944TIP3   OH266246   2.774   3.375   6.041 -0.3198  0.1649  0.0710
14944TIP3    H166247   2.854   3.392   5.991 -1.8090 -0.7424 -2.8844
14944TIP3    H266248   2.792   3.409   6.128  4.0557 -1.9241  0.2476
14945TIP3   OH266249   0.150   5.317  16.805  0.2363  0.7554 -0.2659
14945TIP3    H166250   0.084   5.291  16.869  0.2405  1.0752 -0.1275
14945TIP3    H266251   0.159   5.412  16.817 -0.5367  1.0080 -1.4619
14946TIP3   OH266252   1.130   3.483   5.732 -0.0644 -0.3350 -0.1300
14946TIP3    H166253   1.160   3.433   5.807 -0.1325  0.7171  0.6303
14946TIP3    H266254   1.129   3.574   5.763  1.3535  0.3318 -1.8596
14947TIP3   OH266255   1.380   0.448  13.535  0.7754  0.0761 -0.2595
14947TIP3    H166256   1.291   0.414  13.538  1.7314 -2.7097 -0.6325
14947TIP3    H266257   1.400   0.471  13.626 -0.5697  1.5865 -0.3009
14948TIP3   OH266258   1.682   1.403  15.740  0.1978  0.0017  0.4134
14948TIP3    H166259   1.615   1.347  15.700  1.4021 -1.4402  0.3353
14948TIP3    H266260   1.691   1.477  15.680 -1.5847  0.4464  0.6311
14949TIP3   OH266261   0.268   2.595  15.622 -0.0471  0.0498  0.0079
14949TIP3    H166262   0.356   2.594  15.661  0.4313 -0.0925 -1.0366
14949TIP3    H266263   0.262   2.679  15.577 -1.3809  1.1218  2.0486
14950TIP3   OH266264   4.361   4.521  14.138 -0.3763  0.2771  0.0594
14950TIP3    H166265   4.408   4.445  14.103  0.4369  0.2915  1.0775
14950TIP3    H266266   4.417   4.596  14.117 -1.0027  0.5652 -0.6238
14951TIP3   OH266267   5.708   6.329  11.416  0.7696 -0.0111  0.0921
14951TIP3    H166268   5.748   6.254  11.461 -0.1518  0.1741  1.2604
14951TIP3    H266269   5.619   6.302  11.397  1.0342  0.0464 -1.3786
14952TIP3   OH266270   4.240   1.785  13.664  0.5994 -0.0817 -0.0168
14952TIP3    H166271   4.258   1.806  13.755 -2.1598  0.6725  0.4633
14952TIP3    H266272   4.144   1.786  13.658  0.4549 -4.0639 -1.9930
14953TIP3   OH266273   4.987   5.838   1.907 -0.3118  0.8904  0.3355
14953TIP3    H166274   4.948   5.762   1.950 -0.4927  1.2635  0.8454
14953TIP3    H266275   5.056   5.866   1.967  2.6443 -1.3613 -1.7571
14954TIP3   OH266276   3.494   1.554  16.700  0.7028  0.6801 -0.2563
14954TIP3    H166277   3.430   1.485  16.687  2.2062 -0.8768  0.1914
14954TIP3    H266278   3.578   1.509  16.701  1.5931  2.1285  2.8064
14955TIP3   OH266279   4.720   3.438  15.674  0.4350  0.6091 -0.0154
14955TIP3    H166280   4.812   3.460  15.685  0.5104  0.1444  0.3541
14955TIP3    H266281   4.685   3.436  15.763 -0.4329  2.7870 -0.2677
14956TIP3   OH266282   2.771   4.773  16.567 -0.4403  0.0058  0.3858
14956TIP3    H166283   2.754   4.814  16.652 -1.8160  0.0015  0.1506
14956TIP3    H266284   2.749   4.681  16.580 -1.7871  0.2044 -0.2286
14957TIP3   OH266285   6.687   1.399   0.217 -0.1335  0.2470 -0.2086
14957TIP3    H166286   6.779   1.422   0.208  0.3740 -1.2375  0.7472
14957TIP3    H266287   6.657   1.386   0.127  0.6400  0.5790 -0.5225
14958TIP3   OH266288   5.237   3.451  15.532 -0.4230 -0.2868 -0.8913
14958TIP3    H166289   5.249   3.481  15.623  0.2546 -0.5205 -0.8951
14958TIP3    H266290   5.267   3.525  15.479  0.3177 -0.5814 -0.9064
14959TIP3   OH266291   4.819   2.653   1.310  0.4920  0.2382  0.1759
14959TIP3    H166292   4.829   2.636   1.404 -1.0881 -2.2602  0.0016
14959TIP3    H266293   4.887   2.601   1.269  0.7022  0.7296 -0.1014
14960TIP3   OH266294   3.224   4.295   4.205  0.0968 -0.2388 -0.1137
14960TIP3    H166295   3.182   4.367   4.157 -1.0271  0.2493  1.5461
14960TIP3    H266296   3.264   4.242   4.136  0.8847  1.8891 -1.4219
14961TIP3   OH266297   2.712   5.042   4.836  0.0447  0.4680  0.3569
14961TIP3    H166298   2.646   5.112   4.837  1.0726  1.5600 -1.7162
14961TIP3    H266299   2.745   5.040   4.926 -1.3048  1.3708  0.9155
14962TIP3   OH266300   3.661   4.413   1.676  0.1430 -0.0650  0.3145
14962TIP3    H166301   3.716   4.440   1.749  0.7200 -0.6947  0.1265
14962TIP3    H266302   3.575   4.449   1.696  1.3076  4.2330 -1.1613
14963TIP3   OH266303   4.576   5.156  16.513  0.5174  0.1131 -0.1137
14963TIP3    H166304   4.583   5.065  16.540  0.0035  0.2598  0.5405
14963TIP3    H266305   4.615   5.206  16.585 -3.7018  0.7291  2.0595
14964TIP3   OH266306   1.322   2.544  13.873  0.3385 -0.3172  0.2441
14964TIP3    H166307   1.248   2.567  13.817  0.9824 -0.8190 -0.8437
14964TIP3    H266308   1.323   2.448  13.873 -0.6559 -0.3947  2.4980
14965TIP3   OH266309   3.890   0.732  12.258  0.3546 -0.4448 -0.2692
14965TIP3    H166310   3.911   0.734  12.165 -0.8716 -0.6930 -0.5694
14965TIP3    H266311   3.798   0.705  12.262 -0.2564  1.5510  0.9061
14966TIP3   OH266312   4.359   1.048  10.859 -0.5857 -0.1376  0.0029
14966TIP3    H166313   4.440   1.084  10.896 -1.2041  0.3842  0.8906
14966TIP3    H266314   4.379   0.956  10.843  0.4532  0.1813 -0.6151
14967TIP3   OH266315   3.810   1.672   0.376  0.2360  0.1206 -0.2514
14967TIP3    H166316   3.876   1.729   0.336  1.6603 -0.6893  0.8416
14967TIP3    H266317   3.855   1.633   0.451 -1.3385 -0.8884  0.2074
14968TIP3   OH266318   4.791   1.592  15.325 -0.1271 -0.3919  0.1547
14968TIP3    H166319   4.819   1.683  15.323 -0.5380 -0.0697  3.2457
14968TIP3    H266320   4.742   1.579  15.244  0.4261  1.9438 -0.6177
14969TIP3   OH266321   0.118   4.565  16.191 -0.7058 -0.5003 -0.0728
14969TIP3    H166322   0.189   4.515  16.150  0.4089  0.4132  0.6690
14969TIP3    H266323   0.144   4.657  16.179 -1.6463 -0.1583  0.4376
14970TIP3   OH266324   5.437   3.832   5.647 -0.0145 -0.1919  0.7584
14970TIP3    H166325   5.432   3.751   5.698  0.0783  0.0294  1.1195
14970TIP3    H266326   5.404   3.900   5.706 -1.5849 -0.1913 -0.0528
14971TIP3   OH266327   5.112   0.743  11.162  0.0753 -0.6135  0.1096
14971TIP3    H166328   5.045   0.804  11.193  1.3866  1.1828 -0.4351
14971TIP3    H266329   5.101   0.740  11.067  1.8464  1.1509 -0.2150
14972TIP3   OH266330   4.162   2.025  13.428 -0.1747  0.6315 -0.7759
14972TIP3    H166331   4.197   2.052  13.513 -1.6479 -1.4648  0.6050
14972TIP3    H266332   4.235   1.980  13.385  0.0036 -0.2336  0.3643
14973TIP3   OH266333   6.428   3.813  13.620  0.0606 -0.3758  0.2137
14973TIP3    H166334   6.382   3.890  13.586  1.3199  0.1557 -0.3592
14973TIP3    H266335   6.372   3.739  13.597 -0.1604  0.1821 -1.1292
14974TIP3   OH266336   1.474   1.124  16.471 -0.2031  0.2858 -0.4028
14974TIP3    H166337   1.567   1.100  16.478  0.2138  1.9757  0.6045
14974TIP3    H266338   1.461   1.187  16.541 -2.4486 -0.7794  0.2171
14975TIP3   OH266339   5.401   2.743  11.200  0.5598 -0.2378 -0.4148
14975TIP3    H166340   5.333   2.685  11.234  1.5202 -0.8474  0.5328
14975TIP3    H266341   5.377   2.758  11.109 -0.6440 -0.7226 -0.1867
14976TIP3   OH266342   1.516   6.577  15.455 -0.1595  0.1301 -0.0722
14976TIP3    H166343   1.608   6.603  15.446 -0.6678  2.1329 -0.0228
14976TIP3    H266344   1.519   6.492  15.499  1.6457  0.5916  0.7875
14977TIP3   OH266345   3.207   6.780  12.728 -0.5893  0.2217 -0.0605
14977TIP3    H166346   3.268   6.782  12.801 -0.1081  0.3094 -0.4653
14977TIP3    H266347   3.166   6.866  12.728  0.8712  0.9547 -1.1256
14978TIP3   OH266348   2.470   1.678  12.017 -0.2161 -0.4809 -0.0037
14978TIP3    H166349   2.461   1.632  12.101  0.6336 -1.3952 -0.3957
14978TIP3    H266350   2.529   1.751  12.035 -0.1549 -0.5876  0.2248
14979TIP3   OH266351   6.225   0.937  16.138  0.1622 -0.1549 -0.2298
14979TIP3    H166352   6.310   0.897  16.157  0.8230  1.6330  0.8018
14979TIP3    H266353   6.211   0.921  16.045  0.7485 -2.0539 -0.0239
14980TIP3   OH266354   2.678   0.869   0.016 -0.1581 -0.3382  0.7793
14980TIP3    H166355   2.712   0.852   0.104  0.9865  0.2876  0.4769
14980TIP3    H266356   2.756   0.873  -0.040 -0.8939 -1.3204 -0.3832
14981TIP3   OH266357   4.210   6.371  15.311 -0.7374  0.4482  0.2486
14981TIP3    H166358   4.129   6.338  15.272 -0.3626 -0.1423 -0.0559
14981TIP3    H266359   4.183   6.412  15.392 -1.1178 -1.7095  1.2847
14982TIP3   OH266360   5.744   3.630   0.014  0.2001 -0.0613 -0.0569
14982TIP3    H166361   5.723   3.723  -0.000 -0.7849 -0.0603  1.2178
14982TIP3    H266362   5.689   3.604   0.088 -0.3360 -1.9686 -1.0579
14983TIP3   OH266363   0.088   1.606   5.937  0.1463 -0.5026 -0.1326
14983TIP3    H166364   0.135   1.670   5.991 -1.8120  1.2332 -0.3561
14983TIP3    H266365   0.017   1.575   5.994 -0.0946 -0.9771 -0.6854
14984TIP3   OH266366   0.202   5.145   5.142 -0.1289  0.4765  0.4543
14984TIP3    H166367   0.188   5.237   5.164 -2.7171  0.3002 -0.1748
14984TIP3    H266368   0.144   5.097   5.202  0.9463 -0.7507  0.5600
14985TIP3   OH266369   0.233   5.530   4.481 -0.0639 -0.9547 -0.8545
14985TIP3    H166370   0.276   5.582   4.413 -1.0494  1.7225  0.3970
14985TIP3    H266371   0.226   5.590   4.555 -1.4052 -2.9057  0.6943
14986TIP3   OH266372   5.757   3.791   2.269 -0.0441  0.4941 -0.1330
14986TIP3    H166373   5.812   3.842   2.330  0.6528  0.6427 -0.8710
14986TIP3    H266374   5.742   3.850   2.195 -0.8093  0.2785 -0.1635
14987TIP3   OH266375   2.341   4.797   5.458  0.0121  0.2093  0.0191
14987TIP3    H166376   2.429   4.802   5.496 -0.6719 -0.1569  1.7501
14987TIP3    H266377   2.311   4.888   5.458  0.3630  0.3312 -0.5411
14988TIP3   OH266378   0.490   2.618   4.391 -0.0608 -0.0566  0.0777
14988TIP3    H166379   0.498   2.626   4.486  0.8613  0.9750 -0.0614
14988TIP3    H266380   0.579   2.600   4.361 -0.4985 -1.3156 -0.5234
14989TIP3   OH266381   2.497   5.552   1.171 -0.2670  0.2809 -0.3939
14989TIP3    H166382   2.487   5.536   1.265  1.6170 -0.0944 -0.2166
14989TIP3    H266383   2.482   5.646   1.160  0.3168  0.4785  0.4267
14990TIP3   OH266384   5.814   6.571  15.970 -0.2370 -0.0950  0.0496
14990TIP3    H166385   5.861   6.509  15.916 -1.2890  0.8528 -2.0793
14990TIP3    H266386   5.732   6.527  15.992  0.8148 -1.0813  2.3029
14991TIP3   OH266387   3.226   0.214  14.374  0.5882 -0.8019  0.0778
14991TIP3    H166388   3.301   0.170  14.414  0.7945  0.2484  0.8857
14991TIP3    H266389   3.233   0.192  14.280  4.0615  2.1591 -0.5818
14992TIP3   OH266390   3.952   6.376  16.879 -0.2721 -0.3117  0.0344
14992TIP3    H166391   3.909   6.302  16.837 -0.6748  0.3781 -0.7811
14992TIP3    H266392   3.887   6.410  16.941 -0.1947 -0.4569  0.1964
14993TIP3   OH266393   5.218   5.971  10.856  0.3830  0.0175  0.2233
14993TIP3    H166394   5.126   5.990  10.875  0.8480  1.0881  1.5532
14993TIP3    H266395   5.241   6.032  10.786 -0.0297 -0.5897 -0.4581
14994TIP3   OH266396   3.588   6.716   2.306  0.0617  0.4036 -0.4831
14994TIP3    H166397   3.639   6.696   2.385  1.1972  0.3760 -1.2022
14994TIP3    H266398   3.653   6.721   2.236 -0.8655  0.9718 -1.3308
14995TIP3   OH266399   5.410   5.505  15.239  0.0171  0.4015 -0.3822
14995TIP3    H166400   5.395   5.595  15.210  1.3744  0.2646 -1.6531
14995TIP3    H266401   5.375   5.451  15.168  1.3856 -0.0037 -0.7717
14996TIP3   OH266402   2.661   2.228   1.112 -0.5185  0.6076  0.0407
14996TIP3    H166403   2.696   2.289   1.048 -1.9725  1.7286  0.2748
14996TIP3    H266404   2.616   2.161   1.060  0.7159 -0.0731 -0.1942
14997TIP3   OH266405   2.947   6.144   0.294  0.2398  0.4235 -0.1028
14997TIP3    H166406   2.943   6.163   0.201  1.5089  1.1756 -0.0287
14997TIP3    H266407   3.039   6.157   0.317  0.3020 -1.4345  0.9051
14998TIP3   OH266408   1.514   5.254  15.153 -0.3926  0.3782 -0.1671
14998TIP3    H166409   1.466   5.291  15.227  0.1274 -1.6469  1.2705
14998TIP3    H266410   1.590   5.311  15.143  0.5190 -0.2941  2.1333
14999TIP3   OH266411   2.483   2.590  13.349 -0.0470 -0.5591 -0.6438
14999TIP3    H166412   2.537   2.669  13.340 -1.2907  0.4247  0.1638
14999TIP3    H266413   2.537   2.529  13.398 -0.3048  1.1158  1.8958
15000TIP3   OH266414   3.105   5.675   2.555 -0.1774  0.3962 -0.3404
15000TIP3    H166415   3.087   5.733   2.480 -2.5078  0.1481 -0.0422
15000TIP3    H266416   3.196   5.649   2.543 -0.1458  1.2441 -2.4834
15001TIP3   OH266417   0.292   1.848   0.005 -0.3057  0.4978  0.5908
15001TIP3    H166418   0.330   1.905  -0.062  0.1782 -0.6889 -0.1915
15001TIP3    H266419   0.225   1.798  -0.042  0.4322 -0.7593  0.8359
15002TIP3   OH266420   1.219   2.502   4.874  0.3078  0.2355  0.0426
15002TIP3    H166421   1.165   2.572   4.911 -1.4176 -1.1487  0.2817
15002TIP3    H266422   1.286   2.547   4.823  1.0640  2.1377  2.5456
15003TIP3   OH266423   2.692   3.687  12.734  0.3410 -0.3432  0.1685
15003TIP3    H166424   2.744   3.608  12.747 -0.2601 -0.8015 -0.1709
15003TIP3    H266425   2.654   3.705  12.820  0.9250 -0.0972  0.3805
15004TIP3   OH266426   3.649   6.496  11.072  0.5000 -0.1202  0.3609
15004TIP3    H166427   3.684   6.574  11.028 -1.2907  1.5079  1.6588
15004TIP3    H266428   3.625   6.438  11.000 -1.2025  1.9560 -0.8908
15005TIP3   OH266429   1.486   2.130   5.410 -0.4002  0.0889 -0.4672
15005TIP3    H166430   1.533   2.159   5.332  0.7848  0.1943  0.2554
15005TIP3    H266431   1.510   2.194   5.477 -3.0419  1.2422 -0.4750
15006TIP3   OH266432   6.120   5.717  12.851  0.5136  0.1989  0.3439
15006TIP3    H166433   6.092   5.776  12.922 -0.2956  0.2425  0.0001
15006TIP3    H266434   6.158   5.776  12.786 -0.8888  0.4267 -0.2871
15007TIP3   OH266435   1.491   4.488  16.215 -0.1028 -0.2645 -0.0141
15007TIP3    H166436   1.587   4.478  16.212 -0.1569 -0.9578  0.3326
15007TIP3    H266437   1.465   4.440  16.293 -0.7169  0.1467  0.0387
15008TIP3   OH266438   3.694   3.360  12.619 -0.5507  0.2992  0.2831
15008TIP3    H166439   3.697   3.267  12.594  0.4856 -0.1518  1.9436
15008TIP3    H266440   3.667   3.359  12.711  4.3571  1.1663  2.0495
15009TIP3   OH266441   1.285   4.979   4.359  0.4834 -0.0084  0.3482
15009TIP3    H166442   1.311   5.071   4.364  0.6709 -0.0296 -0.1979
15009TIP3    H266443   1.193   4.981   4.333  1.1452  0.0065 -2.2755
15010TIP3   OH266444   5.919   0.490  12.336 -0.2040 -0.1934  0.1172
15010TIP3    H166445   5.938   0.420  12.274  0.8051 -0.2432  0.4501
15010TIP3    H266446   5.988   0.482  12.402  0.9009  2.0649 -0.6637
15011TIP3   OH266447   6.059   3.941  11.153 -0.4341  0.0454  0.7339
15011TIP3    H166448   5.999   3.971  11.221 -1.1395  0.3074  0.0213
15011TIP3    H266449   6.002   3.894  11.091  0.2473 -0.4940  0.5112
15012TIP3   OH266450   5.584   0.813  14.432 -0.4123 -0.2618  0.4925
15012TIP3    H166451   5.568   0.720  14.411  0.0106 -0.4616  1.0312
15012TIP3    H266452   5.536   0.861  14.364 -2.0607 -0.8523  1.2003
15013TIP3   OH266453   0.014   6.426  13.357  0.1447 -0.5487  0.1382
15013TIP3    H166454  -0.046   6.352  13.350  0.8772 -1.1596  0.2203
15013TIP3    H266455   0.099   6.386  13.374  1.1521  0.0844 -2.8025
15014TIP3   OH266456   0.809   5.992   2.959 -0.0520 -0.0525  0.3384
15014TIP3    H166457   0.738   6.030   2.908 -1.0854 -0.7788  1.1829
15014TIP3    H266458   0.867   5.951   2.894 -1.0835 -0.5517 -0.2893
15015TIP3   OH266459   3.461   6.330  13.810 -0.1895 -0.3246 -0.0413
15015TIP3    H166460   3.472   6.425  13.814 -0.7086 -0.2414 -0.5955
15015TIP3    H266461   3.501   6.305  13.727 -0.4502 -0.5319 -0.1044
15016TIP3   OH266462   6.785   3.640   5.774 -0.2008 -0.1246  0.5031
15016TIP3    H166463   6.779   3.585   5.852 -1.9763  2.5997  2.4850
15016TIP3    H266464   6.878   3.661   5.766  0.4303 -2.7287  0.0490
15017TIP3   OH266465   5.949   5.462  12.062  0.6267  0.0622 -0.0594
15017TIP3    H166466   5.995   5.424  12.137  0.6103 -0.7518 -0.4474
15017TIP3    H266467   5.886   5.523  12.101  0.4573 -0.5209  0.6061
15018TIP3   OH266468   3.988   0.352   2.482  0.5515  0.4482 -0.0107
15018TIP3    H166469   3.993   0.370   2.576 -1.4585 -0.8495  0.4107
15018TIP3    H266470   4.028   0.266   2.471 -0.9720 -0.2922  0.0126
15019TIP3   OH266471   4.590   5.191  11.428  0.4731  0.3244 -0.2381
15019TIP3    H166472   4.559   5.234  11.508 -0.0687 -2.0661  0.9506
15019TIP3    H266473   4.684   5.183  11.441  0.1874 -1.7174  1.1567
15020TIP3   OH266474   4.074   2.257  16.090 -0.9093 -0.2346  0.4841
15020TIP3    H166475   4.026   2.181  16.058  1.6655 -1.2169 -1.3313
15020TIP3    H266476   4.081   2.243  16.184 -3.0478 -0.6165  0.6517
15021TIP3   OH266477   0.895   2.110   1.440  0.3783  0.2105  0.2570
15021TIP3    H166478   0.969   2.066   1.481  0.5801 -1.3487 -1.6274
15021TIP3    H266479   0.922   2.122   1.349 -1.4085  0.2151 -0.3190
15022TIP3   OH266480   5.926   4.150   1.717 -0.3330 -0.0427 -0.2273
15022TIP3    H166481   5.875   4.089   1.664 -0.3402  0.3762 -0.7097
15022TIP3    H266482   6.017   4.123   1.706 -0.2789  0.4142 -0.9454
15023TIP3   OH266483   5.530   5.334  12.644  0.2943 -0.8806  0.1027
15023TIP3    H166484   5.469   5.396  12.682  1.1428  0.7694 -1.1258
15023TIP3    H266485   5.513   5.337  12.550  0.3745 -2.5197 -0.0032
15024TIP3   OH266486   0.822   6.125  16.347 -0.3592 -0.1602  0.1303
15024TIP3    H166487   0.885   6.067  16.305 -0.0041  1.0919 -1.1423
15024TIP3    H266488   0.811   6.089  16.435  1.4746 -0.8884  0.0921
15025TIP3   OH266489   4.820   6.251   4.446 -0.3931 -0.0221  0.1107
15025TIP3    H166490   4.735   6.292   4.458 -0.2731  0.1203  0.4836
15025TIP3    H266491   4.801   6.167   4.403 -0.6937  0.1361 -0.0648
15026TIP3   OH266492   1.406   4.110  12.040 -0.4126  0.3297  0.0329
15026TIP3    H166493   1.359   4.154  11.969  2.1647  1.3212 -1.2016
15026TIP3    H266494   1.422   4.179  12.104  0.1260  0.2537 -0.0107
15027TIP3   OH266495   3.195   5.634   1.588  0.2623  0.4183 -1.1936
15027TIP3    H166496   3.124   5.696   1.608 -1.0152 -0.9760 -1.2495
15027TIP3    H266497   3.270   5.690   1.567  0.4089  1.9918  2.7214
15028TIP3   OH266498   2.475   4.481   0.426  0.3707 -0.0456 -0.0071
15028TIP3    H166499   2.473   4.496   0.521  1.4364 -0.0652  0.0266
15028TIP3    H266500   2.410   4.541   0.391  2.0140  2.1183  0.4585
15029TIP3   OH266501   6.354   0.817  11.844  0.1229 -0.1797 -0.1244
15029TIP3    H166502   6.427   0.772  11.884  0.7996  0.3272 -0.7571
15029TIP3    H266503   6.336   0.768  11.764 -1.4612 -1.4123  0.9144
15030TIP3   OH266504   1.338   3.880  14.783 -0.4644 -0.2400 -0.4202
15030TIP3    H166505   1.306   3.817  14.719 -1.0748  0.5054 -0.8674
15030TIP3    H266506   1.271   3.881  14.852  0.4870 -1.5078  0.5955
15031TIP3   OH266507   6.401   5.613  12.972  0.2350 -0.0313 -0.3502
15031TIP3    H166508   6.366   5.695  12.938  0.9358 -0.6964 -2.8672
15031TIP3    H266509   6.324   5.558  12.988 -0.1167  0.2137 -1.1756
15032TIP3   OH266510   4.931   2.953  16.635 -0.3169 -0.5053  0.4163
15032TIP3    H166511   4.882   3.034  16.644  0.2446  0.1645 -1.8238
15032TIP3    H266512   4.975   2.941  16.719 -0.7587  1.2699  0.9318
15033TIP3   OH266513   4.508   6.045   3.927 -0.0529 -0.3948 -0.3861
15033TIP3    H166514   4.569   5.995   3.873 -0.1914 -1.8980  0.7943
15033TIP3    H266515   4.423   6.031   3.886 -0.2087 -1.8009  0.3593
15034TIP3   OH266516   6.602   0.097  16.331 -0.4459 -0.8003 -0.2936
15034TIP3    H166517   6.562   0.011  16.324  0.5922 -1.2330 -1.0231
15034TIP3    H266518   6.574   0.143  16.252  1.3555 -1.4966 -1.4002
15035TIP3   OH266519   5.728   2.293  15.920 -0.2164  0.0978 -0.3141
15035TIP3    H166520   5.738   2.307  15.826 -0.6471 -0.8528 -0.5106
15035TIP3    H266521   5.671   2.217  15.927 -1.5448  1.1282  0.7314
15036TIP3   OH266522   1.997   5.963   4.463 -0.3249 -0.0355 -0.0431
15036TIP3    H166523   2.008   5.903   4.538 -1.5100  0.5493  0.6388
15036TIP3    H266524   2.022   6.049   4.498 -0.4885  0.1737 -0.4439
15037TIP3   OH266525   5.667   5.528   4.435 -0.2832  0.0340  0.2638
15037TIP3    H166526   5.712   5.471   4.373 -0.2169 -1.4688  1.6194
15037TIP3    H266527   5.696   5.497   4.521 -1.0799  1.4374  1.0736
15038TIP3   OH266528   1.500   5.109  16.886 -0.1805 -0.1660  0.4083
15038TIP3    H166529   1.582   5.154  16.866 -0.1982  0.1688  1.0816
15038TIP3    H266530   1.449   5.173  16.935 -0.0675 -1.0296  1.6772
15039TIP3   OH266531   4.383   3.557   6.133  0.3188 -0.1057  0.0414
15039TIP3    H166532   4.367   3.624   6.200  0.5970 -1.5989  1.6681
15039TIP3    H266533   4.340   3.479   6.167 -0.0850 -0.7445 -1.8689
15040TIP3   OH266534   6.115   2.492  11.842  0.0248  0.2500 -0.1541
15040TIP3    H166535   6.175   2.521  11.910  0.9895 -0.3642 -0.7268
15040TIP3    H266536   6.062   2.570  11.822  3.0411  1.9867 -2.2147
15041TIP3   OH266537   4.872   2.376   0.467 -0.0806  0.3384 -0.3949
15041TIP3    H166538   4.958   2.376   0.510 -0.3602  0.5222  0.1681
15041TIP3    H266539   4.868   2.460   0.421  0.5870 -0.2261 -1.5492
15042TIP3   OH266540   1.782   5.843  14.515  0.6551 -0.1183  0.3229
15042TIP3    H166541   1.689   5.861  14.509  0.4315 -0.8238  1.2802
15042TIP3    H266542   1.813   5.901  14.585  0.7441 -0.5031  0.6087
15043TIP3   OH266543   4.639   3.662  12.659 -0.2745 -0.3972 -0.3099
15043TIP3    H166544   4.702   3.651  12.730 -1.4123  1.1537  1.0092
15043TIP3    H266545   4.616   3.572  12.634 -0.0617 -1.0090  1.5010
15044TIP3   OH266546   1.194   4.076  13.465 -0.5659  0.0703  0.4347
15044TIP3    H166547   1.157   4.065  13.553 -0.3109 -0.9499  0.4245
15044TIP3    H266548   1.186   3.990  13.425 -1.7913  0.8166 -1.0034
15045TIP3   OH266549   1.180   6.532   4.944 -0.0682 -0.8170  0.4528
15045TIP3    H166550   1.195   6.626   4.955 -0.1474 -0.8546  0.9119
15045TIP3    H266551   1.099   6.526   4.894 -1.6885 -0.6457  2.8987
15046TIP3   OH266552   1.957   0.408  13.712 -0.1196  0.2309 -0.6216
15046TIP3    H166553   1.996   0.398  13.799 -0.8371  0.5746 -0.2594
15046TIP3    H266554   1.894   0.337  13.705 -1.9494  1.6761  0.1876
15047TIP3   OH266555   4.654   5.422   0.031 -0.5850  0.5961 -0.4859
15047TIP3    H166556   4.656   5.407  -0.064  0.3849  0.7453 -0.5072
15047TIP3    H266557   4.628   5.338   0.068  0.7360  0.0090 -0.8112
15048TIP3   OH266558   1.662   3.372  12.989  0.1466 -0.3137 -0.5704
15048TIP3    H166559   1.742   3.334  13.026 -0.0394 -1.6446 -1.4446
15048TIP3    H266560   1.619   3.414  13.064  0.9260 -0.8912  0.2336
15049TIP3   OH266561   5.586   6.080   2.209 -0.1504 -0.6689  0.0102
15049TIP3    H166562   5.499   6.051   2.181 -0.1962  0.0920 -0.6685
15049TIP3    H266563   5.598   6.040   2.295 -1.6882  0.1906  0.6639
15050TIP3   OH266564   2.584   3.699   5.547 -0.7909 -0.3888  0.3508
15050TIP3    H166565   2.674   3.673   5.526 -0.0330  1.4562  1.0982
15050TIP3    H266566   2.553   3.631   5.607  0.0657 -1.0957  0.0187
15051TIP3   OH266567   5.740   6.566   4.876  0.3824  0.1564 -0.3874
15051TIP3    H166568   5.662   6.598   4.921  0.4883 -0.0670 -0.0386
15051TIP3    H266569   5.743   6.472   4.895 -0.3795 -0.2527 -2.0741
15052TIP3   OH266570   3.534   3.514   1.817 -0.3671 -0.2183  0.1384
15052TIP3    H166571   3.501   3.519   1.907 -0.8479  2.1877 -0.1017
15052TIP3    H266572   3.586   3.594   1.806 -2.3864  0.8814 -2.4539
15053TIP3   OH266573   1.723   0.434  11.675 -0.3140 -0.4601 -0.1443
15053TIP3    H166574   1.629   0.421  11.667 -0.6842  1.8162 -0.2988
15053TIP3    H266575   1.752   0.451  11.585  0.0572 -0.2281  0.0160
15054TIP3   OH266576   5.724   3.427  14.973 -0.0234  0.0048  0.5011
15054TIP3    H166577   5.673   3.362  15.021  1.3590 -0.5041  1.3308
15054TIP3    H266578   5.785   3.376  14.920  1.0341  0.6100  1.1075
15055TIP3   OH266579   0.352   1.460  15.074  0.2057 -0.4851  0.4567
15055TIP3    H166580   0.295   1.430  15.144 -4.1472  3.2296 -1.0788
15055TIP3    H266581   0.397   1.536  15.109 -0.7829  0.4446 -0.2464
15056TIP3   OH266582   3.310   5.150   1.854 -0.2768 -0.1792 -0.1522
15056TIP3    H166583   3.220   5.129   1.882 -0.2133 -0.3413 -0.0668
15056TIP3    H266584   3.361   5.074   1.883 -0.1918 -0.2979 -0.6096
15057TIP3   OH266585   6.076   4.474   5.846 -0.7461 -0.4900  0.3709
15057TIP3    H166586   6.156   4.466   5.795 -0.0963  2.0882  0.8478
15057TIP3    H266587   6.101   4.446   5.934 -0.3474  0.2334  0.5004
15058TIP3   OH266588   3.176   0.471  13.868 -0.4286  0.0618  0.3968
15058TIP3    H166589   3.158   0.512  13.953  2.1440  0.5249  0.7992
15058TIP3    H266590   3.194   0.379  13.888  0.6490  0.2716  0.4491
15059TIP3   OH266591   1.006   4.436  12.665 -0.3595  0.0593  0.6675
15059TIP3    H166592   0.913   4.455  12.658 -0.0494  2.0218  1.4772
15059TIP3    H266593   1.015   4.386  12.746 -0.6527  0.1467  0.7526
15060TIP3   OH266594   4.183   5.019  14.407  0.0720  0.5252 -1.2030
15060TIP3    H166595   4.241   4.946  14.430  1.9689  1.8904 -1.3688
15060TIP3    H266596   4.124   4.983  14.342  1.3632 -0.7297 -1.7358
15061TIP3   OH266597   6.455   5.691   4.492  0.3192  0.3871  0.1351
15061TIP3    H166598   6.463   5.688   4.587  2.3366 -0.6300 -0.0267
15061TIP3    H266599   6.530   5.743   4.463 -0.3174  0.7579 -0.9239
15062TIP3   OH266600   1.896   3.762   3.001 -0.4762 -0.3050 -0.6963
15062TIP3    H166601   1.985   3.772   3.034 -0.9042 -1.2893  0.8310
15062TIP3    H266602   1.877   3.846   2.958  0.2920  0.8612  1.1501
15063TIP3   OH266603   5.507   1.782   1.447  0.0383  0.1153 -0.0098
15063TIP3    H166604   5.516   1.801   1.541 -0.0452 -0.5419  0.1367
15063TIP3    H266605   5.529   1.864   1.404  0.2245  0.3843  0.5816
15064TIP3   OH266606   0.902   4.038   4.594  0.4951 -0.2781 -0.4353
15064TIP3    H166607   0.908   4.129   4.565 -0.8830 -0.2558 -0.7217
15064TIP3    H266608   0.822   4.005   4.553  0.6542 -1.4435  0.1523
15065TIP3   OH266609   1.927   1.418   5.410 -0.1454 -0.5291  0.0081
15065TIP3    H166610   1.839   1.400   5.378 -1.5959  3.1179  1.3330
15065TIP3    H266611   1.928   1.382   5.499 -0.7790  0.4429  0.4241
15066TIP3   OH266612   2.399   6.651  15.475 -0.4058 -0.4600 -0.8563
15066TIP3    H166613   2.402   6.696  15.391 -1.1789  0.4974 -0.3818
15066TIP3    H266614   2.341   6.703  15.530 -1.5076 -2.1415 -0.3325
15067TIP3   OH266615   1.812   2.607   0.595  0.4078  0.3050  0.4541
15067TIP3    H166616   1.782   2.593   0.685 -0.2645 -0.9217  0.0651
15067TIP3    H266617   1.772   2.690   0.569  0.8226  0.8041  1.3651
15068TIP3   OH266618   5.820   4.050  16.236  0.0715 -0.3583 -0.2278
15068TIP3    H166619   5.855   3.983  16.177  0.0869  1.4716 -2.4250
15068TIP3    H266620   5.897   4.099  16.266  0.0645 -1.2623  1.3858
15069TIP3   OH266621   3.440   5.462   2.326 -0.1469 -0.9615 -0.3849
15069TIP3    H166622   3.362   5.411   2.348  0.2766 -1.4310  0.0545
15069TIP3    H266623   3.439   5.534   2.389  0.5437 -1.7698  0.5705
15070TIP3   OH266624   5.493   1.068   5.575 -0.4272 -0.7546  0.4537
15070TIP3    H166625   5.463   1.141   5.628 -1.8577 -0.5964 -0.5149
15070TIP3    H266626   5.465   0.990   5.622  0.0862 -0.6692  0.9118
15071TIP3   OH266627   6.035   1.343  11.156 -0.2117  0.0526  0.3410
15071TIP3    H166628   6.117   1.374  11.118 -1.0277  1.3989 -0.3902
15071TIP3    H266629   5.976   1.333  11.081 -1.2168  0.7136  1.0188
15072TIP3   OH266630   3.819   2.500   3.500  0.0620 -0.5521 -0.3352
15072TIP3    H166631   3.735   2.461   3.475 -0.7121  0.2677  0.9483
15072TIP3    H266632   3.859   2.434   3.557  1.0258 -1.6256 -2.1511
15073TIP3   OH266633   3.639   0.922  12.729 -0.3330 -0.1012 -0.2042
15073TIP3    H166634   3.671   0.873  12.805  0.9318  0.5412 -0.2899
15073TIP3    H266635   3.636   0.857  12.658  0.6000 -0.2524 -0.1282
15074TIP3   OH266636   4.013   0.716   1.879 -0.8533  0.6927 -0.4049
15074TIP3    H166637   3.957   0.661   1.824  0.2642 -0.7696 -0.1222
15074TIP3    H266638   4.057   0.655   1.938 -0.5287  2.0230  0.8037
15075TIP3   OH266639   2.639   1.616  15.657  0.5230 -0.4683 -0.4812
15075TIP3    H166640   2.647   1.655  15.570 -1.4792 -2.4088 -1.6301
15075TIP3    H266641   2.565   1.661  15.696  1.2211  0.1756  0.1416
15076TIP3   OH266642   3.302   1.102   1.582 -0.1472 -0.7773 -0.6076
15076TIP3    H166643   3.209   1.122   1.571 -0.7943 -2.7189  0.8384
15076TIP3    H266644   3.312   1.014   1.545  0.1481 -2.3303  2.7906
15077TIP3   OH266645   4.397   4.051  17.192 -0.2020  0.2052  0.3571
15077TIP3    H166646   4.470   4.019  17.244 -0.2190 -0.0104  0.2503
15077TIP3    H266647   4.433   4.063  17.104 -0.5576 -1.0136  0.0112
15078TIP3   OH266648   4.976   1.792  15.501  0.0303  0.2751  0.0780
15078TIP3    H166649   4.975   1.786  15.405 -2.6029  1.1832 -0.0574
15078TIP3    H266650   5.068   1.798  15.524  0.7216  1.0842 -2.4967
15079TIP3   OH266651   2.604   3.659  12.995 -0.7267  0.3990 -0.2307
15079TIP3    H166652   2.597   3.727  13.062 -1.4897 -0.8287  1.0017
15079TIP3    H266653   2.658   3.591  13.035 -1.2049 -0.3636 -0.8503
15080TIP3   OH266654   4.418   2.564  17.065  0.0556  0.5754 -0.3352
15080TIP3    H166655   4.404   2.630  16.998 -2.7535 -0.2792 -0.7001
15080TIP3    H266656   4.402   2.609  17.148 -1.7837  0.4366 -0.5788
15081TIP3   OH266657   3.002   6.133   2.285 -0.0689  0.1378  0.7733
15081TIP3    H166658   2.948   6.088   2.220  1.4037  0.4572 -0.7315
15081TIP3    H266659   2.951   6.211   2.309 -0.0846  0.6903 -0.9735
15082TIP3   OH266660   4.141   4.761  13.532  0.0436 -0.2847 -0.1494
15082TIP3    H166661   4.203   4.750  13.460  0.7191 -1.9235  0.6512
15082TIP3    H266662   4.193   4.748  13.611 -0.8497  0.7132  0.6305
15083TIP3   OH266663   6.343   5.226  16.674 -0.1873 -0.2466 -0.5059
15083TIP3    H166664   6.400   5.154  16.700  0.0758  0.4821  1.0873
15083TIP3    H266665   6.349   5.289  16.746 -0.2773  1.4510 -1.8855
15084TIP3   OH266666   2.304   4.378   6.421  0.0385 -0.3083 -0.3306
15084TIP3    H166667   2.332   4.343   6.506  0.2166  1.1660  0.2624
15084TIP3    H266668   2.327   4.471   6.426  1.1570 -0.4052 -2.4653
15085TIP3   OH266669   5.319   6.600  14.928 -0.2576  0.3810  0.1648
15085TIP3    H166670   5.273   6.673  14.886 -2.7069 -0.0697  1.8570
15085TIP3    H266671   5.366   6.641  15.001  0.1840  0.5326 -0.1980
15086TIP3   OH266672   2.989   1.490  11.165  0.0649 -0.4962  0.1373
15086TIP3    H166673   2.937   1.505  11.086 -0.7920  0.1112  0.7994
15086TIP3    H266674   3.063   1.551  11.156 -1.1458  1.1378  0.7786
15087TIP3   OH266675   4.037   2.861  10.947 -0.0759 -0.0449 -0.3141
15087TIP3    H166676   3.952   2.817  10.952 -1.7856  3.0434  0.4292
15087TIP3    H266677   4.024   2.931  10.883  2.0620  0.2534 -0.4835
15088TIP3   OH266678   2.632   1.821   4.618  0.1367 -0.2462  0.2685
15088TIP3    H166679   2.696   1.888   4.592  0.8143 -0.9729  0.0030
15088TIP3    H266680   2.593   1.855   4.698 -0.1767  0.8785 -0.3334
15089TIP3   OH266681   5.512   6.744  11.760 -1.0000  0.5462 -0.4387
15089TIP3    H166682   5.500   6.727  11.854  0.2388  0.0018 -0.3707
15089TIP3    H266683   5.504   6.839  11.752  0.0861  0.7253  0.4142
15090TIP3   OH266684   3.177   5.332   3.524  0.5425 -0.0662  0.1027
15090TIP3    H166685   3.244   5.400   3.529  0.1285  0.3573 -0.0125
15090TIP3    H266686   3.097   5.375   3.555  0.1394 -0.3048 -0.5682
15091TIP3   OH266687   3.172   1.338   3.167  0.0439 -0.0809  0.0264
15091TIP3    H166688   3.245   1.313   3.223  0.0863  1.8592  0.9337
15091TIP3    H266689   3.142   1.422   3.204 -2.3749 -0.6214 -0.5537
15092TIP3   OH266690   4.012   1.447   2.593 -0.2756  0.1320 -0.4126
15092TIP3    H166691   3.927   1.423   2.630 -0.5537  0.5232 -0.7883
15092TIP3    H266692   4.064   1.366   2.597 -0.7974 -0.2163 -0.5578
15093TIP3   OH266693   4.497   5.833   3.119  0.3105 -0.1187  0.0095
15093TIP3    H166694   4.558   5.767   3.152 -0.2311 -1.6990 -1.9086
15093TIP3    H266695   4.411   5.792   3.125  0.1699 -0.5138 -3.0700
15094TIP3   OH266696   6.755   0.002  12.601  0.7257  0.2887 -0.2572
15094TIP3    H166697   6.678  -0.002  12.657  1.9148  0.2774  1.4570
15094TIP3    H266698   6.763  -0.086  12.565  0.8441 -0.1538  0.8367
15095TIP3   OH266699   4.388   5.311   2.231  0.7260 -0.2113 -0.5013
15095TIP3    H166700   4.386   5.371   2.306  1.4551  0.3683 -0.9319
15095TIP3    H266701   4.315   5.339   2.176  0.3947 -0.4238 -0.1737
15096TIP3   OH266702   3.836   0.016   5.614  0.3415  0.3309 -0.1017
15096TIP3    H166703   3.871  -0.063   5.655 -0.6231  0.0368  0.1783
15096TIP3    H266704   3.911   0.075   5.610  0.7829 -0.1293  0.8601
15097TIP3   OH266705   3.554   3.934  13.629 -0.1429 -0.1496 -0.4261
15097TIP3    H166706   3.547   4.017  13.677 -1.3934 -0.2846 -0.3406
15097TIP3    H266707   3.648   3.922  13.616  0.0867  1.0345 -0.0093
15098TIP3   OH266708   6.498   1.857   5.474  0.4838 -0.1118  0.0298
15098TIP3    H166709   6.467   1.890   5.389  0.7213 -0.3004 -0.1344
15098TIP3    H266710   6.580   1.811   5.453  0.4012 -0.3973  0.3208
15099TIP3   OH266711   2.397   5.538  14.812 -0.4346 -0.0456 -0.2140
15099TIP3    H166712   2.424   5.548  14.721  1.6489 -0.1844  0.3288
15099TIP3    H266713   2.475   5.561  14.863 -1.9326  1.3167  1.5933
15100TIP3   OH266714   2.384   4.000  12.865 -0.1020  0.2192  0.1733
15100TIP3    H166715   2.443   3.925  12.870  0.4774  0.6312 -0.3737
15100TIP3    H266716   2.296   3.962  12.873  0.2543 -0.3017  1.9948
15101TIP3   OH266717   0.852   1.207   0.666  0.6206  1.3626 -0.4226
15101TIP3    H166718   0.815   1.142   0.726  2.5630  0.2058 -0.4000
15101TIP3    H266719   0.776   1.248   0.625 -0.6806 -0.3148  0.2026
15102TIP3   OH266720   3.988   6.189   1.513  0.5772 -0.1816  0.3848
15102TIP3    H166721   4.007   6.104   1.553 -0.9223 -0.9862 -0.5259
15102TIP3    H266722   3.970   6.169   1.421  1.0422  1.2410 -0.0350
15103TIP3   OH266723   1.239   3.722   0.403  0.1263  0.7369 -0.5363
15103TIP3    H166724   1.230   3.629   0.385 -1.4079  0.6862  0.3404
15103TIP3    H266725   1.185   3.766   0.338 -1.4003  0.8270  0.7436
15104TIP3   OH266726   1.796   1.710   6.034 -0.3417  0.4896  0.3185
15104TIP3    H166727   1.804   1.761   5.953  0.7994  2.0168  1.3359
15104TIP3    H266728   1.704   1.718   6.058  0.1364  4.0704  1.5947
15105TIP3   OH266729   4.047   5.643   1.004  0.5081  0.5968 -0.6504
15105TIP3    H166730   4.128   5.609   1.040 -0.2916 -0.8053 -0.0987
15105TIP3    H266731   4.051   5.737   1.021  1.3006  0.3236  0.8298
15106TIP3   OH266732   5.987   2.160   0.588 -0.0178 -0.0048  0.1649
15106TIP3    H166733   6.048   2.198   0.650  2.0039 -0.5926 -1.3254
15106TIP3    H266734   6.041   2.141   0.511 -2.0535 -0.8249 -1.1401
15107TIP3   OH266735   5.050   3.054  12.393 -0.1093 -0.4551  0.0820
15107TIP3    H166736   5.035   3.053  12.299 -0.4107  0.3889  0.1141
15107TIP3    H266737   5.145   3.052  12.402 -0.1007 -1.6016 -0.2125
15108TIP3   OH266738   0.925   5.381   5.573 -0.1377 -0.0421 -0.1353
15108TIP3    H166739   0.859   5.384   5.504 -0.8709 -0.8842  0.5001
15108TIP3    H266740   1.003   5.344   5.531 -0.9231 -1.6354 -0.2734
15109TIP3   OH266741   1.978   0.707  12.293 -0.0979  0.5832 -0.6847
15109TIP3    H166742   1.941   0.661  12.368 -0.4161 -1.2134 -1.8966
15109TIP3    H266743   1.982   0.799  12.321 -0.2661 -0.0182  1.4838
15110TIP3   OH266744   2.396   5.702   4.003  0.5878 -0.7299 -0.2054
15110TIP3    H166745   2.329   5.694   4.071  1.1449  2.6252  0.9355
15110TIP3    H266746   2.347   5.703   3.921 -0.7478  0.9672  0.5584
15111TIP3   OH266747   5.205   2.718   1.316  0.4940 -0.5236 -0.0111
15111TIP3    H166748   5.277   2.771   1.281  1.7080 -1.9427  0.1874
15111TIP3    H266749   5.136   2.780   1.336  1.8135  0.9562  0.1454
15112TIP3   OH266750   4.570   4.894  11.942 -0.1832  0.3400 -0.1565
15112TIP3    H166751   4.563   4.889  11.847  0.3923 -0.6344 -0.1608
15112TIP3    H266752   4.657   4.858  11.962 -0.5046  0.0435  0.7739
15113TIP3   OH266753   5.862   0.261   4.574  0.6213 -0.4195  0.3840
15113TIP3    H166754   5.889   0.257   4.666  1.3884 -1.2347  0.1446
15113TIP3    H266755   5.900   0.182   4.535 -2.9297 -2.2072  0.2002
15114TIP3   OH266756   1.980   1.344  14.639 -0.1955 -0.5670  0.5013
15114TIP3    H166757   2.064   1.312  14.604 -0.7407 -0.5611 -0.9041
15114TIP3    H266758   2.004   1.400  14.712  1.1361  0.6014 -0.7650
15115TIP3   OH266759   2.450   2.957   5.203 -0.1609 -0.0760 -0.1776
15115TIP3    H166760   2.509   2.980   5.132  1.3854 -0.9856  0.7715
15115TIP3    H266761   2.414   3.041   5.233  2.2654  0.7801  0.5680
15116TIP3   OH266762   6.419   4.612   5.326  0.5309  0.3233  0.1548
15116TIP3    H166763   6.440   4.582   5.237 -2.1537  0.6289 -0.6568
15116TIP3    H266764   6.462   4.547   5.383  3.0983  0.6347 -1.2454
15117TIP3   OH266765   2.659   6.381  14.809 -0.0594  0.2968 -0.2685
15117TIP3    H166766   2.725   6.345  14.750  0.7971  0.4699  0.5714
15117TIP3    H266767   2.629   6.461  14.766 -1.3634 -0.8967 -1.7359
15118TIP3   OH266768   5.799   0.240  15.490  0.1373  0.1085  0.3214
15118TIP3    H166769   5.793   0.253  15.396  0.5615 -0.3331  0.2286
15118TIP3    H266770   5.766   0.322  15.528 -0.3939  0.1432 -0.1993
15119TIP3   OH266771   4.629   3.268   4.737  0.1737  0.1483 -0.4071
15119TIP3    H166772   4.683   3.232   4.667  1.2730  0.0155  0.4895
15119TIP3    H266773   4.658   3.359   4.746  0.8548 -0.1530  0.6279
15120TIP3   OH266774   0.481   5.465   3.055  0.4302 -0.0257 -0.1852
15120TIP3    H166775   0.440   5.414   2.985  0.9369  0.3170 -0.7454
15120TIP3    H266776   0.453   5.422   3.136 -2.2128  1.0234 -0.4387
15121TIP3   OH266777   0.226   1.587  17.149 -0.0397 -0.2921 -0.0005
15121TIP3    H166778   0.145   1.543  17.123 -0.6112 -0.2052  1.5126
15121TIP3    H266779   0.265   1.617  17.067 -2.0968  0.6340 -0.6974
15122TIP3   OH266780   2.224   5.695   3.463  0.6872 -0.4607  0.1528
15122TIP3    H166781   2.243   5.777   3.417 -0.1467 -0.3370  0.0211
15122TIP3    H266782   2.223   5.628   3.394 -0.2335 -0.3272  0.0326
15123TIP3   OH266783   6.135   6.327   2.133 -0.0386 -0.3748 -0.2133
15123TIP3    H166784   6.074   6.391   2.097  0.5353 -0.8146 -2.0504
15123TIP3    H266785   6.173   6.283   2.057  3.0499  0.3019  0.7541
15124TIP3   OH266786   1.887   0.500   4.863 -0.3938  0.0152  0.7593
15124TIP3    H166787   1.792   0.500   4.877 -0.2856 -0.4476  1.5207
15124TIP3    H266788   1.910   0.409   4.847 -0.0746  0.1255  0.5721
15125TIP3   OH266789   6.169   5.851   5.095  0.5310  0.0497  0.8329
15125TIP3    H166790   6.136   5.935   5.061  1.2596 -0.4904 -1.3914
15125TIP3    H266791   6.246   5.875   5.146  0.5703  0.7726  0.4561
15126TIP3   OH266792   6.227   0.648  14.323 -0.0245 -0.2607 -0.1849
15126TIP3    H166793   6.229   0.660  14.228 -0.5458 -1.6013 -0.3884
15126TIP3    H266794   6.256   0.558  14.336 -0.0059 -0.1040  0.9328
15127TIP3   OH266795   5.785   5.465  12.760 -0.1306  0.3434  0.4716
15127TIP3    H166796   5.869   5.439  12.722 -0.7841  0.2836 -0.9932
15127TIP3    H266797   5.721   5.407  12.719 -1.2741  2.3715 -0.7818
15128TIP3   OH266798   6.150   0.809  13.284 -0.1848 -0.5472  0.9191
15128TIP3    H166799   6.161   0.869  13.211 -0.7593  1.0670  2.0880
15128TIP3    H266800   6.206   0.734  13.263  0.3267  0.2551 -0.7278
15129TIP3   OH266801   6.701   5.818   4.444  0.5211  0.1337 -0.0380
15129TIP3    H166802   6.738   5.759   4.378  2.0312  0.3714  0.5594
15129TIP3    H266803   6.757   5.896   4.441  0.3852  0.3053  1.2540
15130TIP3   OH266804   0.417   0.629  12.599 -0.2561 -0.1568 -0.5296
15130TIP3    H166805   0.359   0.571  12.549 -0.4774 -1.6010  1.2817
15130TIP3    H266806   0.371   0.713  12.601 -0.6243 -0.2936 -1.9925
15131TIP3   OH266807   6.178   0.124  14.333  0.2671 -0.1908 -0.0628
15131TIP3    H166808   6.126   0.108  14.254  3.0569 -1.8348 -1.7294
15131TIP3    H266809   6.208   0.037  14.360  1.5232  0.6108  1.2350
15132TIP3   OH266810   1.923   1.054   1.182 -0.1685 -0.3649  0.4077
15132TIP3    H166811   1.945   1.024   1.093  1.6230  2.0843 -0.0761
15132TIP3    H266812   1.831   1.079   1.175  0.3074  1.1518 -1.2376
15133TIP3   OH266813   5.077   2.302  16.000 -0.8115  0.9278 -0.2041
15133TIP3    H166814   5.069   2.273  16.090 -1.0707  1.3638 -0.0789
15133TIP3    H266815   5.118   2.229  15.954  0.8750  1.3088  0.5981
15134TIP3   OH266816   6.711   6.112   3.181  0.1660 -0.1639 -0.4239
15134TIP3    H166817   6.651   6.038   3.187 -0.6007  0.5198  4.1351
15134TIP3    H266818   6.669   6.173   3.120 -2.3772 -0.9160  0.4622
15135TIP3   OH266819   4.636   0.924   5.073 -1.0086 -0.2426 -0.3686
15135TIP3    H166820   4.541   0.922   5.062 -1.0808 -1.1794  0.3513
15135TIP3    H266821   4.670   0.920   4.983 -1.6429 -1.0401 -0.5856
15136TIP3   OH266822   2.199   4.684   3.331 -0.4281 -0.1530  0.3092
15136TIP3    H166823   2.230   4.637   3.254 -1.1724 -0.1560  0.0038
15136TIP3    H266824   2.279   4.704   3.380 -0.1336 -2.9507  1.1884
15137TIP3   OH266825   0.014   1.715   1.148 -0.3762  0.0817  0.1692
15137TIP3    H166826  -0.041   1.793   1.141 -1.1744 -0.5634 -1.0101
15137TIP3    H266827  -0.044   1.642   1.126  0.1651 -0.9519  1.9073
15138TIP3   OH266828   4.723   6.147   5.536 -0.4836  0.8644  0.2258
15138TIP3    H166829   4.705   6.237   5.508 -0.2934  0.5008 -1.1603
15138TIP3    H266830   4.643   6.120   5.582 -0.4711  1.7927  0.8021
15139TIP3   OH266831   2.698   0.984  11.715  0.5139  0.3315 -0.4712
15139TIP3    H166832   2.764   1.019  11.655  0.6248 -0.4972 -0.8554
15139TIP3    H266833   2.717   0.890  11.719  0.5943  0.3974  0.9974
15140TIP3   OH266834   4.354   4.111   6.801 -0.1929  0.2000  0.3396
15140TIP3    H166835   4.350   4.018   6.823  0.5805 -0.1717 -0.9581
15140TIP3    H266836   4.288   4.121   6.732  0.6671  0.3051 -0.4831
15141TIP3   OH266837   4.705   1.764  11.842  0.0163 -0.6345 -0.0979
15141TIP3    H166838   4.757   1.714  11.905  0.5306  2.6434  2.3054
15141TIP3    H266839   4.761   1.771  11.765  1.8933  0.1257  1.2611
15142TIP3   OH266840   5.922   3.822   1.491  0.2489 -0.4673 -0.3708
15142TIP3    H166841   5.855   3.889   1.508 -0.0630 -0.5567 -1.1475
15142TIP3    H266842   5.963   3.806   1.575 -1.6510 -1.4048  0.4433
15143TIP3   OH266843   3.102   3.470  11.828  0.1522 -0.1324  0.1279
15143TIP3    H166844   3.077   3.381  11.805  1.5603 -0.6142  0.3847
15143TIP3    H266845   3.076   3.479  11.920  0.1027 -0.3111  0.1320
15144TIP3   OH266846   0.666   2.125  12.751 -0.2121 -0.2664  0.3117
15144TIP3    H166847   0.653   2.033  12.727 -0.5965 -0.3965  0.9712
15144TIP3    H266848   0.577   2.160  12.758 -0.1992 -0.5171  2.5066
15145TIP3   OH266849   4.903   3.662   4.558 -0.0970 -0.8195  0.0909
15145TIP3    H166850   4.855   3.742   4.539 -0.2235 -1.0791 -0.7391
15145TIP3    H266851   4.853   3.620   4.628 -0.5062 -0.5896 -0.0579
15146TIP3   OH266852   4.561   2.874  14.315 -0.2786  0.4620 -0.2552
15146TIP3    H166853   4.561   2.955  14.265  0.6235  0.6799  0.0726
15146TIP3    H266854   4.649   2.838  14.303 -0.7588 -0.6198 -0.6331
15147TIP3   OH266855   6.625   5.806   6.432 -0.4122  0.1087 -0.0707
15147TIP3    H166856   6.607   5.834   6.342  0.3027 -0.4331 -0.3908
15147TIP3    H266857   6.549   5.837   6.482  0.0474  2.0847 -0.4930
15148TIP3   OH266858   5.453   2.328  14.940  0.5443  0.2726  0.6466
15148TIP3    H166859   5.469   2.242  14.901 -1.3682 -0.0947  0.5698
15148TIP3    H266860   5.483   2.390  14.873 -0.9413 -0.3611 -0.6707
15149TIP3   OH266861   0.396   5.160   3.853  0.3711 -0.3321  0.1947
15149TIP3    H166862   0.374   5.192   3.940 -1.8009  0.9997 -0.7598
15149TIP3    H266863   0.394   5.064   3.862 -0.2955 -0.2185  1.4991
15150TIP3   OH266864   5.906   0.033   5.108  0.3088 -0.0277 -0.4447
15150TIP3    H166865   6.001   0.033   5.113  0.2446 -0.4483  1.6171
15150TIP3    H266866   5.886   0.091   5.035  2.1252  0.3836 -0.6658
15151TIP3   OH266867   1.001   6.134  10.736 -0.1139  0.1718 -0.0073
15151TIP3    H166868   0.981   6.077  10.662 -0.2185 -0.1296  0.2463
15151TIP3    H266869   0.916   6.160  10.770 -0.0669  1.0466 -0.5422
15152TIP3   OH266870   6.659   1.264   5.651 -0.0563  0.0782  0.2605
15152TIP3    H166871   6.696   1.261   5.563 -0.4436 -0.8000  0.1153
15152TIP3    H266872   6.632   1.174   5.669  0.4073  0.1589  1.4481
15153TIP3   OH266873   2.572   0.854   1.032  0.5147  0.1494 -0.1738
15153TIP3    H166874   2.599   0.767   1.003  2.3544 -0.0873  1.9764
15153TIP3    H266875   2.481   0.842   1.059  0.3632 -0.7925 -1.0314
15154TIP3   OH266876   5.125   3.567  16.837  0.0103 -0.0943 -0.4981
15154TIP3    H166877   5.185   3.498  16.864 -0.1003 -0.4721 -1.1914
15154TIP3    H266878   5.120   3.559  16.741  1.0405  1.7423 -0.7438
15155TIP3   OH266879   1.349   0.618  16.087 -0.1967  0.1340 -0.1930
15155TIP3    H166880   1.352   0.541  16.144 -0.7463  0.0453 -0.2788
15155TIP3    H266881   1.375   0.690  16.144 -1.8271  0.2219  0.4877
15156TIP3   OH266882   2.385   0.614   6.650 -0.0566 -0.3458  0.1762
15156TIP3    H166883   2.371   0.532   6.602 -0.6025 -0.1889  0.0649
15156TIP3    H266884   2.442   0.666   6.594 -0.4304 -0.2954 -0.1582
15157TIP3   OH266885   0.459   1.864  15.440 -0.0760 -0.5407 -0.1396
15157TIP3    H166886   0.485   1.949  15.404 -1.8152 -0.7779 -2.1361
15157TIP3    H266887   0.540   1.813  15.442  1.1588  1.3626  1.8619
15158TIP3   OH266888   4.528   0.424  14.560  0.4211 -0.3301 -0.1416
15158TIP3    H166889   4.592   0.494  14.548  1.3371 -1.1517 -0.2357
15158TIP3    H266890   4.573   0.345  14.530 -1.0069 -0.7915 -1.1811
15159TIP3   OH266891   3.302   6.749   3.379  0.2728 -0.2823  0.6708
15159TIP3    H166892   3.389   6.711   3.364  0.6640 -0.1660  2.3843
15159TIP3    H266893   3.275   6.711   3.463 -0.9245  0.4125  0.6100
15160TIP3   OH266894   0.744   1.719   4.636  0.8358 -0.5897 -0.1795
15160TIP3    H166895   0.657   1.683   4.656  0.9930 -0.4715  0.7821
15160TIP3    H266896   0.728   1.786   4.570  0.0606  0.0525  0.6364
15161TIP3   OH266897   4.293   0.451  11.052  0.0808  0.6355 -0.7913
15161TIP3    H166898   4.332   0.391  11.115 -2.4059 -0.9669 -0.5994
15161TIP3    H266899   4.245   0.514  11.105 -1.0562 -0.0204 -0.9886
15162TIP3   OH266900   2.335   4.148  16.140  0.3269  0.1192 -0.6830
15162TIP3    H166901   2.283   4.225  16.117 -0.7232 -0.1389  0.7664
15162TIP3    H266902   2.423   4.182  16.155 -0.0715  0.9954 -0.3185
15163TIP3   OH266903   0.169   4.722   2.027 -0.5523  0.1241  0.3931
15163TIP3    H166904   0.108   4.740   2.098  0.1120  1.6809  0.6235
15163TIP3    H266905   0.121   4.665   1.967 -1.1691 -1.0887  2.0047
15164TIP3   OH266906   2.099   1.307  13.425 -0.4938  0.4498 -0.4216
15164TIP3    H166907   2.154   1.302  13.346 -2.0808 -0.1764 -1.5485
15164TIP3    H266908   2.119   1.227  13.473 -2.6197 -1.4623 -2.4377
15165TIP3   OH266909   5.052   6.055   3.956  0.3108  0.1441  0.3509
15165TIP3    H166910   5.054   5.963   3.984 -1.3280 -0.1597 -0.4195
15165TIP3    H266911   5.060   6.051   3.861  0.7937  0.8488  0.3568
15166TIP3   OH266912   2.813   5.818  11.004 -0.3312  0.1617 -0.1149
15166TIP3    H166913   2.849   5.788  10.921  1.7439 -1.1253  1.1477
15166TIP3    H266914   2.727   5.777  11.009 -0.6448  0.5622 -1.7724
15167TIP3   OH266915   3.168   0.016   4.882  0.1426 -0.7767  0.3328
15167TIP3    H166916   3.176   0.014   4.786 -1.1924  0.0121  0.1829
15167TIP3    H266917   3.101  -0.050   4.901 -2.4199  1.5976  0.3162
15168TIP3   OH266918   1.027   5.243  15.298 -0.1674  0.2935 -0.0242
15168TIP3    H166919   1.077   5.301  15.240  1.1388 -0.8635 -0.1271
15168TIP3    H266920   0.942   5.234  15.256  0.4671  0.1697 -1.3256
15169TIP3   OH266921   5.970   0.325  15.267  0.4333 -0.0574  0.2333
15169TIP3    H166922   6.002   0.287  15.349 -1.3121 -0.7702  0.6114
15169TIP3    H266923   6.040   0.306  15.204  0.7881 -1.5711  1.0273
15170TIP3   OH266924   3.564   5.033   2.210 -0.4415 -0.0519 -0.6099
15170TIP3    H166925   3.509   5.000   2.281  0.7471 -0.0619  0.3433
15170TIP3    H266926   3.634   4.968   2.202  1.2994  1.5449  0.5121
15171TIP3   OH266927   3.982   2.832  14.483 -0.5317 -0.1817  0.0463
15171TIP3    H166928   3.949   2.913  14.444  0.3460 -1.1314 -2.9162
15171TIP3    H266929   3.938   2.762  14.434 -0.2540 -1.5343  1.6326
15172TIP3   OH266930   2.760   0.706  12.557 -0.0358 -0.1536 -0.8527
15172TIP3    H166931   2.777   0.798  12.537 -0.1364 -0.2919 -1.6190
15172TIP3    H266932   2.743   0.704  12.651  1.6959  0.3571 -0.4969
15173TIP3   OH266933   4.050   3.271  16.887  0.2705  0.0759  0.2531
15173TIP3    H166934   4.092   3.288  16.802  0.7917  0.9353  0.6738
15173TIP3    H266935   4.003   3.188  16.874 -0.7942  0.8589 -1.3104
15174TIP3   OH266936   3.924   5.054   3.171 -0.3756 -0.0073 -0.4745
15174TIP3    H166937   3.975   5.062   3.090  1.9872 -0.3163  0.8918
15174TIP3    H266938   3.958   5.123   3.227 -1.0784 -0.5951  0.7065
15175TIP3   OH266939   2.065   3.047  13.504  0.1408  0.1851  0.0905
15175TIP3    H166940   2.149   3.088  13.525  0.3375 -0.8709  1.4979
15175TIP3    H266941   2.024   3.031  13.589 -1.6841  1.0099 -0.5689
15176TIP3   OH266942   3.511   1.276   3.874 -0.5736  0.4781 -0.7271
15176TIP3    H166943   3.570   1.307   3.805 -2.4246  2.3760 -1.5772
15176TIP3    H266944   3.495   1.184   3.851  0.9911  0.2940 -1.2117
15177TIP3   OH266945   4.311   4.069   1.972  0.1053 -0.4907 -0.4608
15177TIP3    H166946   4.398   4.059   1.934 -0.5470 -0.7032 -1.9804
15177TIP3    H266947   4.252   4.071   1.896 -1.0429  1.7420  0.4073
15178TIP3   OH266948   2.302   5.689  11.536  0.2887 -0.6579  0.2920
15178TIP3    H166949   2.217   5.718  11.568  0.3494 -0.4521  0.2668
15178TIP3    H266950   2.341   5.766  11.495  0.3093 -0.8601 -0.0773
15179TIP3   OH266951   0.675   2.007  15.638 -0.2388  0.1364  0.3411
15179TIP3    H166952   0.612   1.960  15.693 -0.8833  2.2315  1.4924
15179TIP3    H266953   0.643   2.097  15.637  0.7956  0.5516 -2.0030
15180TIP3   OH266954   1.795   3.190   1.023  0.2410  0.2743 -0.1207
15180TIP3    H166955   1.773   3.252   0.953  1.4718  1.7111  0.7267
15180TIP3    H266956   1.743   3.218   1.098  0.2492 -0.1890  0.0636
15181TIP3   OH266957   2.778   4.022  16.038 -0.1080  0.3290 -0.1031
15181TIP3    H166958   2.711   3.991  15.977 -0.0503 -1.1191  0.5203
15181TIP3    H266959   2.738   4.014  16.124  1.3270 -2.0726  0.4312
15182TIP3   OH266960   4.941   3.629  11.201 -0.0125 -0.5160 -0.1797
15182TIP3    H166961   4.895   3.556  11.243 -0.7396 -0.3688 -0.7117
15182TIP3    H266962   5.031   3.620  11.232 -0.5514 -0.2743  1.6194
15183TIP3   OH266963   0.341   4.475  10.887  0.2253 -0.1098  0.0142
15183TIP3    H166964   0.404   4.545  10.904 -0.5638  0.3108  1.4047
15183TIP3    H266965   0.292   4.506  10.811  1.2517 -0.1431 -0.6802
15184TIP3   OH266966   1.855   6.081  14.718  0.7898 -0.2743  0.2033
15184TIP3    H166967   1.804   6.153  14.754  0.7300 -0.1183 -0.1909
15184TIP3    H266968   1.898   6.117  14.641  0.4973 -0.7423 -0.1917
15185TIP3   OH266969   2.078   0.825  16.957  0.4747 -0.0920 -0.2124
15185TIP3    H166970   2.036   0.903  16.920  0.7324 -0.0721 -0.4653
15185TIP3    H266971   2.070   0.836  17.051 -0.9679 -0.5630 -0.2561
15186TIP3   OH266972   1.730   5.664  16.612  0.1681 -0.3902 -0.4256
15186TIP3    H166973   1.736   5.637  16.704 -2.3218 -0.1966 -0.1351
15186TIP3    H266974   1.805   5.722  16.599  2.0104 -2.3848  0.7356
15187TIP3   OH266975   0.399   5.516   2.501 -0.0193 -0.5706 -0.2238
15187TIP3    H166976   0.451   5.572   2.442  0.0632 -0.9163 -0.4842
15187TIP3    H266977   0.441   5.526   2.586 -0.3965  0.2662 -0.1269
15188TIP3   OH266978   4.393   5.912  11.880  0.2266  0.4757 -0.2413
15188TIP3    H166979   4.430   5.970  11.946 -0.5701 -0.0200  0.6721
15188TIP3    H266980   4.466   5.891  11.821  0.7609  1.5467  0.0233
15189TIP3   OH266981   3.569   2.655   0.872 -0.4534  0.3636 -0.3285
15189TIP3    H166982   3.494   2.612   0.913  1.4564 -4.6333 -1.3276
15189TIP3    H266983   3.544   2.663   0.780  0.0011 -0.9027 -0.5801
15190TIP3   OH266984   3.807   5.317   3.822  0.5366 -0.1878 -0.7035
15190TIP3    H166985   3.881   5.377   3.808 -0.0773  0.4582 -1.2473
15190TIP3    H266986   3.817   5.287   3.912  1.4944 -0.1534 -0.7878
15191TIP3   OH266987   2.428   4.309   0.133 -0.7400 -0.4827  0.1288
15191TIP3    H166988   2.363   4.349   0.191  0.5927  1.7219  0.2532
15191TIP3    H266989   2.497   4.280   0.191 -1.3257 -2.3296 -0.0464
15192TIP3   OH266990   6.591   6.773   3.282  0.7112  0.6326 -0.6881
15192TIP3    H166991   6.579   6.719   3.204  1.3438  0.3460 -0.5904
15192TIP3    H266992   6.600   6.862   3.249 -0.2885  0.6870 -0.8539
15193TIP3   OH266993   1.005   6.753   5.772  0.0288  0.1904 -0.0472
15193TIP3    H166994   1.083   6.751   5.717 -0.1544 -1.3395 -0.3017
15193TIP3    H266995   0.991   6.662   5.797 -1.4626  0.4854  0.2947
15194TIP3   OH266996   2.477   6.402   4.300  0.2526  0.0213 -0.8586
15194TIP3    H166997   2.397   6.418   4.352 -0.1512 -0.2154 -1.3960
15194TIP3    H266998   2.469   6.310   4.273  1.1027 -0.2362 -0.2504
15195TIP3   OH266999   3.990   5.164   4.060  0.1331 -0.0734 -0.1055
15195TIP3    H167000   4.028   5.138   4.145 -1.1172 -0.4781  0.3562
15195TIP3    H267001   3.967   5.081   4.018 -0.2368  0.1572 -0.3660
15196TIP3   OH267002   3.226   5.210  11.693 -0.8772  0.1726 -0.1278
15196TIP3    H167003   3.142   5.191  11.737 -0.7643  0.6226  0.2941
15196TIP3    H267004   3.204   5.276  11.627 -0.4908  2.0759  1.5359
15197TIP3   OH267005   1.113   4.462   4.705 -0.0508 -0.0822  0.0166
15197TIP3    H167006   1.198   4.453   4.747 -0.6893  1.6029  1.7744
15197TIP3    H267007   1.052   4.417   4.764 -0.4381 -1.2379 -1.2033
15198TIP3   OH267008   4.574   4.439  11.251 -0.5586 -0.0716  0.2433
15198TIP3    H167009   4.611   4.364  11.204  1.5805  0.7268  0.5784
15198TIP3    H267010   4.540   4.496  11.182  3.4539  1.5862 -0.6492
15199TIP3   OH267011   0.632   1.787  10.478 -0.3904 -0.8558  0.3504
15199TIP3    H167012   0.560   1.736  10.441 -1.7026 -0.5489  2.3249
15199TIP3    H267013   0.685   1.724  10.526  0.0623 -0.9081 -0.2066
15200TIP3   OH267014   0.698   0.444   1.806 -0.3825  0.1132  0.1821
15200TIP3    H167015   0.646   0.430   1.727  0.7842  0.0838 -0.6176
15200TIP3    H267016   0.769   0.380   1.799 -0.3618 -0.0073  1.3553
15201TIP3   OH267017   3.996   3.609  12.100 -0.3166 -0.4016 -0.3517
15201TIP3    H167018   4.075   3.617  12.153 -1.3617 -1.0304  1.4101
15201TIP3    H267019   3.935   3.671  12.141 -1.6557 -2.0030  0.2114
15202TIP3   OH267020   4.315   6.534   4.343 -0.4831  0.7084  0.1774
15202TIP3    H167021   4.260   6.598   4.299 -1.4346 -0.1654  0.0750
15202TIP3    H267022   4.298   6.547   4.436 -0.9111  0.4055  0.1437
15203TIP3   OH267023   3.721   1.739  16.617  0.3528  0.0045  0.3889
15203TIP3    H167024   3.738   1.677  16.546  0.5025  0.9391 -0.4092
15203TIP3    H267025   3.794   1.800  16.614  1.7419 -1.3599  2.9963
15204TIP3   OH267026   0.961   5.088   5.395  0.4636 -0.0885  0.7884
15204TIP3    H167027   0.942   5.035   5.473  0.6889 -0.5223  0.5574
15204TIP3    H267028   1.057   5.087   5.389  0.4375 -2.5303 -1.1188
15205TIP3   OH267029   5.956   1.225  11.409  0.0922 -0.2711 -0.8662
15205TIP3    H167030   5.971   1.294  11.344 -2.3210 -0.0062 -1.2270
15205TIP3    H267031   5.991   1.146  11.369  1.2224  0.3858 -1.2286
15206TIP3   OH267032   2.008   0.997  12.430 -0.2202  1.0898  0.0774
15206TIP3    H167033   1.972   1.051  12.359  1.9876 -0.1023 -2.1341
15206TIP3    H267034   2.086   1.045  12.458  0.0903  0.5206  0.2056
15207TIP3   OH267035   6.555   0.908  13.688 -0.3654 -0.4888 -0.6320
15207TIP3    H167036   6.623   0.895  13.622 -1.4311  1.4746 -2.2208
15207TIP3    H267037   6.516   0.992  13.666 -0.2261  0.7125  3.0368
15208TIP3   OH267038   4.360   4.873  13.702  0.3950  0.2993 -0.2625
15208TIP3    H167039   4.382   4.824  13.782 -0.4407  0.9297  0.3739
15208TIP3    H267040   4.444   4.908  13.672  0.4932  1.6625  1.4432
15209TIP3   OH267041   3.771   4.339  16.857 -0.0705  0.2053  0.1141
15209TIP3    H167042   3.679   4.314  16.864  0.2370 -1.1886 -0.5591
15209TIP3    H267043   3.811   4.305  16.938 -0.0522  0.3737  0.1759
15210TIP3   OH267044   0.623   0.913   4.172  0.0374 -0.0693  0.2888
15210TIP3    H167045   0.716   0.909   4.195 -0.3917  0.1128  2.2381
15210TIP3    H267046   0.578   0.919   4.257 -1.7433 -0.0063 -0.6252
15211TIP3   OH267047   6.022   6.319  13.575  0.2470  0.4851 -0.3347
15211TIP3    H167048   6.068   6.258  13.517 -0.3205  0.2033 -0.5003
15211TIP3    H267049   5.975   6.378  13.516 -1.3159 -0.5561 -0.1909
15212TIP3   OH267050   3.519   2.519  15.915  0.3607  0.2839  0.1732
15212TIP3    H167051   3.581   2.572  15.966  2.6647 -2.1132  0.0982
15212TIP3    H267052   3.491   2.451  15.975 -1.9642  1.0420  0.0423
15213TIP3   OH267053   4.415   4.561   1.704 -0.2318 -0.1864 -0.1002
15213TIP3    H167054   4.377   4.478   1.674 -0.7796 -0.4804  1.3201
15213TIP3    H267055   4.506   4.540   1.726  0.0037 -0.1010 -0.9623
15214TIP3   OH267056   6.485   6.719  14.485  0.1727 -0.2710  0.2390
15214TIP3    H167057   6.576   6.701  14.464  0.0017  0.1719 -0.9560
15214TIP3    H267058   6.484   6.808  14.518  0.0591  0.1125 -0.7428
15215TIP3   OH267059   0.677   0.489  11.106 -0.1394  0.0327  0.3198
15215TIP3    H167060   0.671   0.577  11.070 -2.9207  0.0524  0.6060
15215TIP3    H267061   0.704   0.434  11.032 -2.6117  0.5417 -1.0621
15216TIP3   OH267062   2.090   4.626   6.017 -0.3383 -0.3522  0.3195
15216TIP3    H167063   2.047   4.674   5.947 -0.1253 -0.7553 -0.0999
15216TIP3    H267064   2.175   4.669   6.027 -0.2997 -0.4021  0.2088
15217TIP3   OH267065   1.844   4.614   1.373  0.1357 -0.2860 -0.7096
15217TIP3    H167066   1.924   4.608   1.426  0.3136  1.5682 -0.7105
15217TIP3    H267067   1.780   4.560   1.420  0.5434  0.6016  0.9442
15218TIP3   OH267068   4.470   4.975  14.105  0.0965 -0.2054 -0.1727
15218TIP3    H167069   4.497   4.962  14.014 -1.0439 -1.8655 -0.3098
15218TIP3    H267070   4.480   4.889  14.145 -0.5619  0.2291  0.9535
15219TIP3   OH267071   5.478   4.748  16.886 -0.1713  0.2729 -0.5093
15219TIP3    H167072   5.466   4.788  16.972 -0.8348 -2.8121  0.9809
15219TIP3    H267073   5.411   4.789  16.831 -1.6271  0.3708  1.2286
15220TIP3   OH267074   5.106   1.740   2.282 -0.2570  0.1372 -0.0426
15220TIP3    H167075   5.146   1.815   2.238 -0.3203 -0.2703 -0.8266
15220TIP3    H267076   5.016   1.738   2.250 -0.0297 -0.7472 -0.6930
15221TIP3   OH267077   2.234   6.761   2.873 -1.0505  0.6486  0.4132
15221TIP3    H167078   2.315   6.805   2.898 -0.8366 -0.0580  1.0089
15221TIP3    H267079   2.244   6.672   2.907 -1.2922  0.0113 -1.1292
15222TIP3   OH267080   5.370   0.277  14.370 -0.2290  0.5675  0.0585
15222TIP3    H167081   5.323   0.238  14.443 -2.0733 -0.5734 -1.6606
15222TIP3    H267082   5.310   0.341  14.333 -0.1402 -0.2810 -1.6494
15223TIP3   OH267083   0.185   4.120   5.657 -0.1051 -0.0638 -0.5253
15223TIP3    H167084   0.275   4.129   5.687  0.2803  1.8145 -2.0440
15223TIP3    H267085   0.133   4.120   5.737  1.0903  1.4660  0.3101
15224TIP3   OH267086   1.821   6.382   0.664  0.1768 -0.1551  0.1989
15224TIP3    H167087   1.819   6.420   0.752 -1.5602  0.8363 -0.2158
15224TIP3    H267088   1.834   6.456   0.605  1.5640 -0.8406 -0.4082
15225TIP3   OH267089   2.580   2.641  12.344  0.1927 -0.3214 -0.4360
15225TIP3    H167090   2.555   2.549  12.341 -0.3713 -0.1487 -1.2085
15225TIP3    H267091   2.672   2.639  12.372  0.4960 -1.1735 -1.4202
15226TIP3   OH267092   1.345   1.933   1.260  0.3850 -0.1445  0.2438
15226TIP3    H167093   1.258   1.963   1.288  1.0862  1.0690  1.2261
15226TIP3    H267094   1.337   1.922   1.165 -0.9457 -0.4622  0.3744
15227TIP3   OH267095   6.174   5.611  16.842  0.4903  0.5164 -0.2731
15227TIP3    H167096   6.252   5.561  16.865  0.0425 -0.9337 -1.7244
15227TIP3    H267097   6.205   5.676  16.779  1.0560  2.1339  1.5511
15228TIP3   OH267098   1.158   2.409  13.167 -0.2908 -0.0404  0.0278
15228TIP3    H167099   1.136   2.481  13.109  0.7488  0.6438  0.4663
15228TIP3    H267100   1.192   2.450  13.247 -0.7815 -0.9808  0.7577
15229TIP3   OH267101   1.394   1.626   5.074 -0.6397  0.3115 -0.0811
15229TIP3    H167102   1.480   1.639   5.033 -0.0163 -0.0906  1.0631
15229TIP3    H267103   1.342   1.702   5.045  0.0683  0.5262 -0.8357
15230TIP3   OH267104   5.450   4.513   4.268  0.0585  0.4754 -0.2971
15230TIP3    H167105   5.530   4.503   4.216  0.0628  0.7133 -0.3362
15230TIP3    H267106   5.450   4.438   4.327  0.1522  0.3087 -0.5105
15231TIP3   OH267107   1.135   4.726  10.645 -0.0926 -0.0980 -0.3603
15231TIP3    H167108   1.213   4.713  10.591  0.0700 -0.3313 -0.0732
15231TIP3    H267109   1.144   4.815  10.679  0.0954 -0.1560 -0.2551
15232TIP3   OH267110   1.122   3.598   2.352 -0.1776  0.2378  0.7398
15232TIP3    H167111   1.033   3.611   2.318  0.5750 -0.5449 -1.7303
15232TIP3    H267112   1.113   3.608   2.447 -2.7582  0.9003  0.4990
15233TIP3   OH267113   3.020   2.715  12.080  0.0914 -0.1709 -0.7522
15233TIP3    H167114   3.113   2.735  12.068  0.0468 -0.7624 -2.3462
15233TIP3    H267115   2.974   2.791  12.045 -0.0172 -0.4453 -1.2227
15234TIP3   OH267116   3.895   0.284   3.060  0.4331 -0.2510 -0.1516
15234TIP3    H167117   3.832   0.212   3.051  1.7204 -1.2280 -2.0868
15234TIP3    H267118   3.972   0.243   3.099  0.8380  0.2875 -0.3755
15235TIP3   OH267119   0.739   6.345   4.709  0.5984 -0.1331 -0.2638
15235TIP3    H167120   0.805   6.395   4.759  1.4844  0.3118 -1.8188
15235TIP3    H267121   0.764   6.358   4.618 -1.1459 -0.7116 -0.8474
15236TIP3   OH267122   2.553   6.157  15.883 -0.4628 -0.1707  0.0960
15236TIP3    H167123   2.483   6.147  15.819  0.9851 -1.0549 -1.4353
15236TIP3    H267124   2.627   6.191  15.833  1.0804 -1.9504  1.0398
15237TIP3   OH267125   5.335   3.787   6.206  0.9354 -0.7086 -0.2417
15237TIP3    H167126   5.314   3.789   6.299 -0.7536  3.9185 -0.4480
15237TIP3    H267127   5.253   3.763   6.163  0.4838  1.2399 -0.5613
15238TIP3   OH267128   3.982   5.641   0.297 -0.5455  0.2016  0.1648
15238TIP3    H167129   3.921   5.567   0.289  0.5849 -0.7260 -0.2138
15238TIP3    H267130   4.008   5.640   0.389  2.4126 -2.3995 -0.5356
15239TIP3   OH267131   2.299   0.850   4.970  0.5095  0.5439  0.1215
15239TIP3    H167132   2.332   0.761   4.980  0.9130  0.7438  0.6558
15239TIP3    H267133   2.223   0.842   4.913  0.4898 -0.1521  0.2414
15240TIP3   OH267134   3.767   2.187   3.138 -0.4722 -0.4400  0.0352
15240TIP3    H167135   3.684   2.142   3.121 -0.6625 -0.6166  1.3381
15240TIP3    H267136   3.743   2.260   3.195  0.2418 -0.3452  0.2192
15241TIP3   OH267137   1.282   0.930  11.061 -0.6709 -0.0732 -0.1142
15241TIP3    H167138   1.221   0.976  11.003 -0.4751  0.1557 -0.1376
15241TIP3    H267139   1.362   0.982  11.059 -0.3473 -0.5761 -0.3660
15242TIP3   OH267140   0.663   0.873  15.162 -0.5211  0.2112 -0.1551
15242TIP3    H167141   0.657   0.777  15.159 -1.2084  0.2832 -1.9537
15242TIP3    H267142   0.605   0.903  15.093 -1.1185  1.9992  1.0580
15243TIP3   OH267143   1.257   0.683   0.370 -0.3360 -0.1426 -0.7066
15243TIP3    H167144   1.350   0.674   0.393 -0.4144 -0.1699 -0.3999
15243TIP3    H267145   1.248   0.775   0.346 -0.9144  0.7245  2.4141
15244TIP3   OH267146   5.234   1.344  16.160 -0.5323  0.1306 -0.4986
15244TIP3    H167147   5.306   1.331  16.098  0.5129  1.5019  0.3791
15244TIP3    H267148   5.229   1.438  16.172 -0.6088 -0.0904  1.6138
15245TIP3   OH267149   6.202   1.461  14.154  0.0087 -0.6400 -0.1893
15245TIP3    H167150   6.279   1.448  14.098 -0.2519 -1.9856 -0.2740
15245TIP3    H267151   6.189   1.376  14.196 -1.0903 -0.2541  0.2709
15246TIP3   OH267152   2.412   3.051   5.503 -0.1129 -0.5229  0.1635
15246TIP3    H167153   2.457   2.968   5.523  0.8827 -0.1484 -0.4234
15246TIP3    H267154   2.470   3.094   5.440 -0.4759  0.7585  0.6899
15247TIP3   OH267155   3.362   2.191  13.366 -0.0060 -0.0702  0.0845
15247TIP3    H167156   3.283   2.140  13.353  0.4535 -1.3563  1.9161
15247TIP3    H267157   3.406   2.190  13.281 -0.2010 -2.4577 -0.0604
15248TIP3   OH267158   0.647   1.988   4.740  0.2400 -0.0426 -0.5540
15248TIP3    H167159   0.561   1.997   4.698 -1.5189  1.2648  2.8812
15248TIP3    H267160   0.638   2.037   4.822  3.3143 -2.3461  1.3749
15249TIP3   OH267161   1.870   1.585   3.532  0.1487 -0.3139 -0.4659
15249TIP3    H167162   1.778   1.562   3.526 -0.1559  0.8598 -0.5059
15249TIP3    H267163   1.915   1.502   3.551 -0.7686 -1.0990 -1.6514
15250TIP3   OH267164   0.139   4.502   5.342 -0.0981  0.0478 -0.4628
15250TIP3    H167165   0.173   4.413   5.356 -1.0469 -0.2264  0.2076
15250TIP3    H267166   0.160   4.522   5.251 -1.6760 -1.6707 -1.2660
15251TIP3   OH267167   5.988   2.641  13.581  0.6323 -0.3745  0.1377
15251TIP3    H167168   6.067   2.680  13.619 -0.1345  1.8361 -0.4127
15251TIP3    H267169   5.933   2.619  13.656  1.5800 -1.6034  0.5082
15252TIP3   OH267170   1.613   5.560   2.167 -0.4880 -0.5676  0.2639
15252TIP3    H167171   1.519   5.570   2.155 -0.5007  0.3524  1.0566
15252TIP3    H267172   1.626   5.564   2.262  0.1574 -2.5744  0.3140
15253TIP3   OH267173   3.827   1.101  11.006  0.7121  0.1515 -0.2287
15253TIP3    H167174   3.756   1.158  11.037  0.2528  0.5311 -1.8828
15253TIP3    H267175   3.785   1.016  10.994  0.3013  0.5721 -1.9856
15254TIP3   OH267176   0.731   3.550  13.800  0.5620 -0.7440 -0.1593
15254TIP3    H167177   0.660   3.602  13.838  0.2861 -0.8172 -0.5633
15254TIP3    H267178   0.804   3.561  13.860  0.0943 -0.9687  0.4650
15255TIP3   OH267179   3.762   6.447   2.040  0.1092 -1.0001  0.5024
15255TIP3    H167180   3.751   6.385   2.111 -2.1188  0.1549  1.2582
15255TIP3    H267181   3.801   6.524   2.082  3.9839 -2.0981 -0.6292
15256TIP3   OH267182   2.218   0.858   5.232  0.4351  0.4627 -0.4994
15256TIP3    H167183   2.238   0.892   5.144 -1.0880  0.2508 -0.9590
15256TIP3    H267184   2.251   0.926   5.291  3.2114 -0.2251 -1.0911
15257TIP3   OH267185   1.647   2.043   3.603  0.0773 -0.7888 -0.2386
15257TIP3    H167186   1.633   2.138   3.612  2.4155 -0.3978 -0.1341
15257TIP3    H267187   1.565   2.004   3.632 -1.7102  1.2318 -2.2122
15258TIP3   OH267188   5.272   0.431  12.525 -0.2721  0.2655  0.3441
15258TIP3    H167189   5.330   0.366  12.566  0.3580  0.8054  0.3396
15258TIP3    H267190   5.260   0.399  12.436 -0.5217 -0.1971  0.5392
15259TIP3   OH267191   1.346   4.740  16.335 -0.0313  0.8035  0.0179
15259TIP3    H167192   1.297   4.772  16.410 -1.9990 -1.1595 -0.3486
15259TIP3    H267193   1.336   4.645  16.337 -1.0025  0.7164 -3.2313
15260TIP3   OH267194   2.741   4.537   0.386 -0.3936  0.3049  0.1534
15260TIP3    H167195   2.648   4.515   0.397 -1.3915  2.8709 -1.9663
15260TIP3    H267196   2.746   4.630   0.407  1.5680  0.3797 -0.4600
15261TIP3   OH267197   2.542   1.310   5.289  0.3032  0.4667  0.0164
15261TIP3    H167198   2.459   1.263   5.293  0.2950  0.4815  0.0181
15261TIP3    H267199   2.608   1.241   5.278  0.3097  0.4386  0.2288
15262TIP3   OH267200   6.645   6.032  12.526  0.8142 -0.1833  0.3935
15262TIP3    H167201   6.590   6.029  12.605  0.4591  0.4408  0.1840
15262TIP3    H267202   6.705   6.105  12.542  2.1073 -1.3290  0.9376
15263TIP3   OH267203   3.844   5.756   3.745  0.3457  0.1019  0.7405
15263TIP3    H167204   3.886   5.721   3.667 -1.8542  0.8861 -0.8920
15263TIP3    H267205   3.782   5.821   3.712  1.5191  2.7928  3.3584
15264TIP3   OH267206   5.696   3.118   5.640 -0.0492 -0.4136  0.3608
15264TIP3    H167207   5.688   3.206   5.678 -0.9213 -0.4006  0.1653
15264TIP3    H267208   5.779   3.085   5.673  0.7496  0.8446 -0.2921
15265TIP3   OH267209   0.667   5.936  10.544  0.5846  0.5543 -0.3041
15265TIP3    H167210   0.752   5.981  10.539 -0.1146  1.9927  0.0873
15265TIP3    H267211   0.612   5.995  10.595 -0.5232 -0.5870 -0.1272
15266TIP3   OH267212   0.746   2.941   3.127 -0.0860  0.1316  0.2881
15266TIP3    H167213   0.763   2.847   3.130  0.1013  0.1777  0.7517
15266TIP3    H267214   0.780   2.968   3.042 -0.2390 -0.2380  0.1060
15267TIP3   OH267215   4.201   4.057   4.946  0.3859  0.1467  0.3025
15267TIP3    H167216   4.231   3.986   5.004 -1.4968 -0.0656  1.1000
15267TIP3    H267217   4.156   4.012   4.874  1.1633  0.4797 -0.4078
15268TIP3   OH267218   2.677   5.405  10.911 -0.2941  0.1930  0.3790
15268TIP3    H167219   2.723   5.481  10.876  0.8958  0.1802  1.8572
15268TIP3    H267220   2.746   5.342  10.931 -1.2031 -0.9816 -0.0568
15269TIP3   OH267221   5.213   0.624  16.029 -0.1696 -0.5755 -0.6963
15269TIP3    H167222   5.161   0.545  16.043  1.4880 -1.3190  2.1094
15269TIP3    H267223   5.158   0.695  16.062 -1.3882 -0.5954 -2.5779
15270TIP3   OH267224   4.542   3.152  17.014  0.0798 -0.6144 -0.2040
15270TIP3    H167225   4.632   3.121  17.004  0.0574 -0.2798 -1.8883
15270TIP3    H267226   4.545   3.243  16.982 -1.0226 -0.9157 -1.2511
15271TIP3   OH267227   3.439   5.674  13.946  0.2087 -0.1843  0.8815
15271TIP3    H167228   3.360   5.727  13.931 -0.5418 -1.9183 -2.0606
15271TIP3    H267229   3.508   5.738  13.964 -0.7170  1.8679 -2.1187
15272TIP3   OH267230   1.459   5.191   1.955 -0.3701 -0.2429  0.1401
15272TIP3    H167231   1.382   5.183   2.011  1.1378 -1.6881  2.1063
15272TIP3    H267232   1.522   5.240   2.007 -0.1132  1.5729 -1.7232
15273TIP3   OH267233   5.401   3.039   5.295  0.7468 -0.6009 -0.7768
15273TIP3    H167234   5.425   3.092   5.219  1.2860  1.4500  0.7380
15273TIP3    H267235   5.395   2.950   5.260  0.6153  0.2854 -3.2761
15274TIP3   OH267236   3.365   0.918  16.557 -0.0984  0.3682  0.1330
15274TIP3    H167237   3.439   0.876  16.601  0.1429 -0.2247 -0.8030
15274TIP3    H267238   3.289   0.893  16.610  0.2025 -0.1982  0.3119
15275TIP3   OH267239   0.782   1.597   2.687  0.2309 -0.0872  0.1472
15275TIP3    H167240   0.731   1.643   2.754 -0.3719 -0.8676  0.2453
15275TIP3    H267241   0.759   1.641   2.605 -1.2598 -0.9169  0.0748
15276TIP3   OH267242   0.077   6.736  15.909 -0.2049 -0.3496 -0.2789
15276TIP3    H167243   0.121   6.804  15.960  0.8816  1.1070 -2.9350
15276TIP3    H267244  -0.014   6.764  15.905 -0.6523 -1.2533  1.9125
15277TIP3   OH267245   4.136   6.424   1.174 -0.0377 -0.3178  0.0574
15277TIP3    H167246   4.157   6.498   1.230 -0.8052 -0.5504  0.6757
15277TIP3    H267247   4.194   6.354   1.203 -0.0697 -0.2819  0.2073
15278TIP3   OH267248   3.680   4.976  11.466  0.2803 -0.9793  0.3853
15278TIP3    H167249   3.703   5.009  11.553 -0.4136  3.8567 -1.0011
15278TIP3    H267250   3.749   5.009  11.409 -0.5884 -1.9423 -1.2980
15279TIP3   OH267251   1.602   0.605   4.093  0.4441 -0.8425 -0.1123
15279TIP3    H167252   1.606   0.513   4.070  1.2874 -1.0448  0.7691
15279TIP3    H267253   1.694   0.633   4.094  0.1730  0.1386 -0.8729
15280TIP3   OH267254   1.575   3.957   6.240 -0.0681  0.2961  0.1548
15280TIP3    H167255   1.580   3.877   6.188  0.4124  0.4461 -0.0352
15280TIP3    H267256   1.574   4.027   6.175  1.6068  0.5387  0.3415
15281TIP3   OH267257   0.408   3.942   1.023 -0.0917  1.0593  0.0847
15281TIP3    H167258   0.444   3.926   1.111 -0.8753  0.8930  0.3838
15281TIP3    H267259   0.331   3.885   1.019  1.5550 -1.2317 -1.8058
15282TIP3   OH267260   3.235   4.862  15.163 -0.0880  0.4401  0.0916
15282TIP3    H167261   3.156   4.833  15.118 -0.5423  1.7574  0.0145
15282TIP3    H267262   3.216   4.951  15.192  0.9050  0.3220  1.2033
15283TIP3   OH267263   5.730   4.916  14.091 -0.1572  0.2907 -0.2416
15283TIP3    H167264   5.714   5.003  14.128 -1.0889 -0.1792  0.5151
15283TIP3    H267265   5.708   4.925  13.999 -2.4073  0.3404  0.2428
15284TIP3   OH267266   3.191   4.862  11.653  0.8540  0.1437  0.1601
15284TIP3    H167267   3.149   4.877  11.737 -0.0761 -1.0298 -0.0673
15284TIP3    H267268   3.155   4.929  11.595  1.1546  0.6683  0.5710
15285TIP3   OH267269   3.237   4.336  11.185 -0.0349 -0.7702 -0.3567
15285TIP3    H167270   3.308   4.274  11.198  0.2577 -0.4195 -0.2764
15285TIP3    H267271   3.280   4.421  11.176 -0.5463 -0.1802  2.0774
15286TIP3   OH267272   1.596   4.707  13.043  0.4285  1.0656  0.0109
15286TIP3    H167273   1.586   4.720  13.137  1.0699  1.1210  0.0718
15286TIP3    H267274   1.658   4.775  13.016  0.7055  0.6733 -0.3491
15287TIP3   OH267275   5.492   1.980   4.570 -0.5627  0.4682 -0.0505
15287TIP3    H167276   5.424   1.925   4.533 -0.2680  1.4712 -2.2065
15287TIP3    H267277   5.455   2.068   4.571  0.0185  0.7206  0.6062
15288TIP3   OH267278   0.624   0.257  16.729 -0.9273 -0.1180 -0.1455
15288TIP3    H167279   0.587   0.344  16.744 -1.4910 -0.0917 -1.5784
15288TIP3    H267280   0.620   0.245  16.634 -2.0173 -2.2002  0.1084
15289TIP3   OH267281   0.778   3.408  12.309 -0.2202  0.9822  0.2219
15289TIP3    H167282   0.757   3.345  12.240 -1.4959  1.4227  0.1801
15289TIP3    H267283   0.854   3.455  12.276  1.1155 -0.8735  0.4939
15290TIP3   OH267284   1.313   1.347   0.085 -0.5227  0.2060 -0.0504
15290TIP3    H167285   1.297   1.257   0.056  0.1046  0.5100 -1.4160
15290TIP3    H267286   1.226   1.387   0.089 -0.8432 -0.5266  0.8969
15291TIP3   OH267287   3.385   6.001   3.963  0.2078 -0.0664  0.1077
15291TIP3    H167288   3.314   5.944   3.992  0.8243  0.0013  1.8180
15291TIP3    H267289   3.426   5.952   3.891  0.1844 -1.4023  0.9763
15292TIP3   OH267290   0.579   6.460  12.940  0.8029  0.6065 -0.1518
15292TIP3    H167291   0.613   6.489  13.025 -0.1072 -1.0448  0.8284
15292TIP3    H267292   0.506   6.519  12.922  0.5310  0.4999  0.5843
15293TIP3   OH267293   6.300   3.697  10.867 -0.4872  0.1187  0.1298
15293TIP3    H167294   6.381   3.724  10.825 -0.0730 -0.7020  0.3730
15293TIP3    H267295   6.232   3.714  10.802  0.2083 -1.6990 -1.1344
15294TIP3   OH267296   0.813   5.087  13.011 -0.1877  0.0992 -0.0319
15294TIP3    H167297   0.768   5.161  13.052 -0.1764  0.1778 -0.1630
15294TIP3    H267298   0.746   5.044  12.959  0.0170  0.5389 -0.6710
15295TIP3   OH267299   1.892   6.075  12.825 -0.2836 -0.7205  0.3218
15295TIP3    H167300   1.981   6.052  12.851  0.3588  0.8297 -0.3170
15295TIP3    H267301   1.844   6.085  12.907  0.3086 -0.9708  0.7012
15296TIP3   OH267302   0.350   4.280   4.796 -0.0227  0.6118  0.1258
15296TIP3    H167303   0.419   4.334   4.835  1.0609 -1.2803  1.0014
15296TIP3    H267304   0.279   4.282   4.860  1.7123 -2.4008  2.3947
15297TIP3   OH267305   6.362   1.782  17.083 -0.2332  0.2956 -0.1144
15297TIP3    H167306   6.358   1.691  17.109  1.5410 -0.1937 -1.3564
15297TIP3    H267307   6.443   1.815  17.122  0.8891  0.3671 -2.3189
15298TIP3   OH267308   2.716   3.414   1.692 -0.5950 -0.3679  0.1639
15298TIP3    H167309   2.781   3.388   1.626  0.1276  1.5476  0.0617
15298TIP3    H267310   2.716   3.342   1.755 -0.3441 -1.6319 -1.2295
15299TIP3   OH267311   6.662   5.912   3.571  0.1115 -0.1251 -0.6311
15299TIP3    H167312   6.747   5.868   3.568  0.0719 -0.2895  0.4898
15299TIP3    H267313   6.674   5.982   3.635 -0.1759  0.7809 -1.5404
15300TIP3   OH267314   0.820   4.126  11.415 -0.2717 -0.0260 -0.1295
15300TIP3    H167315   0.744   4.071  11.396  1.6397 -2.4065 -1.3955
15300TIP3    H267316   0.843   4.166  11.331  0.8869 -0.7537 -0.1862
15301TIP3   OH267317   3.261   5.222   3.287 -0.5457 -0.5159 -0.1529
15301TIP3    H167318   3.232   5.270   3.365  1.6279 -2.0870  1.7965
15301TIP3    H267319   3.332   5.275   3.251 -0.5175 -0.5244 -0.1113
15302TIP3   OH267320   1.922   0.524  14.206  0.6409  1.0483 -0.3166
15302TIP3    H167321   1.830   0.546  14.194 -0.2106 -0.9942  1.7095
15302TIP3    H267322   1.940   0.542  14.298  0.5386 -3.7103  0.9091
15303TIP3   OH267323   3.612   4.554   4.332 -0.0631  0.2759  0.6380
15303TIP3    H167324   3.644   4.515   4.251  0.5130  1.2596  0.3731
15303TIP3    H267325   3.653   4.502   4.401  0.0115 -0.1261  0.2906
15304TIP3   OH267326   1.172   1.252  16.495 -0.4826  0.0294  0.0143
15304TIP3    H167327   1.185   1.176  16.438  0.8485 -1.3962  2.0929
15304TIP3    H267328   1.239   1.243  16.563 -0.8418  2.6231  0.8280
15305TIP3   OH267329   0.499   0.608  16.557  0.2762 -0.9746  0.5571
15305TIP3    H167330   0.463   0.637  16.472 -0.7456 -1.3496  0.8460
15305TIP3    H267331   0.583   0.568  16.535  0.9116  0.5990 -0.0585
15306TIP3   OH267332   6.016   1.416   1.697 -0.0576  0.1697  0.0193
15306TIP3    H167333   5.949   1.456   1.753  1.6849  0.6134  1.9093
15306TIP3    H267334   6.063   1.490   1.659  0.5674 -0.1110  0.2332
15307TIP3   OH267335   4.163   4.681   1.700 -0.3901  0.6146  0.0536
15307TIP3    H167336   4.097   4.672   1.632  0.9095  0.7070 -1.2683
15307TIP3    H267337   4.231   4.618   1.676  0.6788  1.5413  0.5466
15308TIP3   OH267338   4.847   5.901  14.917  0.1892  0.0090  0.0946
15308TIP3    H167339   4.766   5.927  14.872  1.0696  1.0717 -0.9566
15308TIP3    H267340   4.895   5.851  14.852  0.1982 -1.0126  0.8722
15309TIP3   OH267341   3.022   0.850  15.535 -0.3181 -0.1054  0.2001
15309TIP3    H167342   2.981   0.896  15.462 -0.7511 -0.5755  0.1424
15309TIP3    H267343   3.090   0.797  15.495  0.8803  1.2272  0.3678
15310TIP3   OH267344   5.040   5.648  11.979  0.1927 -0.0461  0.2675
15310TIP3    H167345   4.975   5.718  11.988 -0.7160 -0.7189 -0.7826
15310TIP3    H267346   5.095   5.675  11.906  1.8107  1.0181  1.7834
15311TIP3   OH267347   4.978   6.784  14.953 -0.1995  1.1358  0.1699
15311TIP3    H167348   5.057   6.809  14.906  1.3714 -0.5723  1.7256
15311TIP3    H267349   4.982   6.689  14.959 -2.7176  0.9223 -0.1976
15312TIP3   OH267350   5.565   4.633  14.055  0.0563  0.6851 -0.4329
15312TIP3    H167351   5.599   4.552  14.095 -0.4258 -0.9135 -3.0095
15312TIP3    H267352   5.638   4.695  14.060  1.6500 -1.0039 -1.2628
15313TIP3   OH267353   0.924   0.649   5.125  0.2558 -0.1169 -0.0962
15313TIP3    H167354   1.009   0.672   5.089 -0.1990  0.6821 -0.6876
15313TIP3    H267355   0.939   0.567   5.172  1.2164 -0.3068 -0.7126
15314TIP3   OH267356   5.368   4.577   0.652 -0.4520 -0.4528 -0.2093
15314TIP3    H167357   5.411   4.608   0.731 -0.1313 -0.0615 -0.5382
15314TIP3    H267358   5.274   4.586   0.671 -0.3910  1.5868 -0.6198
15315TIP3   OH267359   0.279   3.216   4.698  0.0506  0.4273 -0.3875
15315TIP3    H167360   0.333   3.208   4.777 -2.5780  0.8669  1.6231
15315TIP3    H267361   0.298   3.303   4.665  0.9953  0.3500 -0.0816
15316TIP3   OH267362   0.562   5.157  15.649 -0.1355  0.2870  0.2221
15316TIP3    H167363   0.569   5.249  15.674 -1.5101  0.5087 -0.1214
15316TIP3    H267364   0.586   5.109  15.728  0.8322  0.9247  0.3378
15317TIP3   OH267365   2.160   2.843   3.166  0.4212  0.4290  0.3972
15317TIP3    H167366   2.111   2.925   3.170 -1.7798 -0.7870 -0.2574
15317TIP3    H267367   2.176   2.829   3.073 -0.5862 -0.6403  0.3705
15318TIP3   OH267368   5.235   4.505  12.235 -0.2883 -0.1277  0.0569
15318TIP3    H167369   5.154   4.520  12.187  1.0846  0.3403 -2.2372
15318TIP3    H267370   5.247   4.410  12.232 -0.7395 -0.1985  0.4117
15319TIP3   OH267371   5.773   2.447   0.650 -0.1569 -0.2277 -0.5002
15319TIP3    H167372   5.712   2.400   0.594 -0.2840  0.5607 -1.0471
15319TIP3    H267373   5.824   2.501   0.589 -0.8738  1.3086  0.2046
15320TIP3   OH267374   6.596   1.119   3.000  0.4335 -0.2546  0.4564
15320TIP3    H167375   6.596   1.170   3.082  1.8024  1.1135 -0.3353
15320TIP3    H267376   6.631   1.180   2.935  0.1936 -1.6051 -0.9686
15321TIP3   OH267377   2.357   1.786   4.983  0.3141  0.4559  0.4679
15321TIP3    H167378   2.303   1.712   4.955  0.2044  0.5140  0.5265
15321TIP3    H267379   2.422   1.747   5.042  1.3893  0.1066 -0.8820
15322TIP3   OH267380   1.245   2.313  11.773 -0.3323  0.7565 -0.0496
15322TIP3    H167381   1.306   2.387  11.779 -0.3869  0.7201  1.4438
15322TIP3    H267382   1.273   2.265  11.695  1.6556  0.6852  0.6373
15323TIP3   OH267383   2.178   3.851  15.792 -0.5155  0.0823  0.4002
15323TIP3    H167384   2.111   3.788  15.819 -1.2545  0.6308 -0.0697
15323TIP3    H267385   2.181   3.915  15.863  1.8540 -1.6018  1.9700
15324TIP3   OH267386   1.538   0.390   0.150 -0.2063  0.1700  0.4860
15324TIP3    H167387   1.499   0.343   0.223  0.8128  0.5371  1.2891
15324TIP3    H267388   1.626   0.413   0.180 -0.0279  0.9716 -0.5841
15325TIP3   OH267389   2.833   2.535   0.260 -0.2526  0.1772 -0.4563
15325TIP3    H167390   2.741   2.559   0.250  0.0461  1.2812 -0.6523
15325TIP3    H267391   2.864   2.524   0.170  0.1308  1.0971 -0.4423
15326TIP3   OH267392   2.226   1.968   3.129 -0.3009 -0.0010 -0.4199
15326TIP3    H167393   2.267   2.041   3.083 -3.7958  3.8044  1.7906
15326TIP3    H267394   2.153   1.942   3.073  0.5057 -1.4163 -0.8586
15327TIP3   OH267395   4.963   0.052   1.076  0.0059 -0.0311  0.0911
15327TIP3    H167396   4.903   0.037   1.149 -0.2252  1.9252  0.3452
15327TIP3    H267397   5.037  -0.006   1.093 -0.8617 -0.9382  0.8883
15328TIP3   OH267398   0.428   4.833  10.744  0.0495  0.0854  0.0289
15328TIP3    H167399   0.464   4.917  10.771  0.0884 -0.3821  1.5877
15328TIP3    H267400   0.348   4.855  10.697  0.5143  1.0159 -0.3528
15329TIP3   OH267401   5.066   0.512   0.131 -0.5628 -0.1568  0.7441
15329TIP3    H167402   5.161   0.501   0.137  0.0942  3.2759 -0.9244
15329TIP3    H267403   5.041   0.553   0.213 -0.3566  0.2429  0.6073
15330TIP3   OH267404   0.884   3.795   2.431 -0.0241 -0.3879  0.2717
15330TIP3    H167405   0.847   3.732   2.492 -1.2544 -0.0879 -0.1446
15330TIP3    H267406   0.814   3.859   2.416  0.7248  0.3078 -0.3790
15331TIP3   OH267407   5.025   4.777   3.452 -0.5210 -0.2633 -0.0179
15331TIP3    H167408   5.046   4.859   3.497 -2.0245 -0.1612  0.5396
15331TIP3    H267409   5.109   4.733   3.443  0.6166  2.0045 -1.7425
15332TIP3   OH267410   6.079   3.775  14.092 -0.2443 -0.0383 -0.0788
15332TIP3    H167411   6.173   3.797  14.096  0.0128 -0.9766 -0.6863
15332TIP3    H267412   6.069   3.699  14.148 -0.2658 -1.1199 -1.4943
15333TIP3   OH267413   4.063   2.216  14.590  0.3367  0.2375 -0.1508
15333TIP3    H167414   4.026   2.146  14.536  0.1881  0.9530 -0.9945
15333TIP3    H267415   4.001   2.227  14.662 -0.5928  0.7354 -1.0054
15334TIP3   OH267416   5.366   4.961  14.494 -0.5446  0.3392  0.4187
15334TIP3    H167417   5.389   4.924  14.580  1.6148 -1.2023 -0.7218
15334TIP3    H267418   5.293   4.908  14.463  1.5560 -2.1740 -0.5413
15335TIP3   OH267419   0.647   5.955   0.558  0.1932 -0.5319 -0.6158
15335TIP3    H167420   0.559   5.925   0.580  0.5781 -1.7592 -0.6689
15335TIP3    H267421   0.672   6.011   0.632 -0.2618 -0.9499 -0.1362
15336TIP3   OH267422   4.025   3.260  12.399 -0.3703  0.1810  0.4247
15336TIP3    H167423   4.102   3.297  12.357 -0.5300  0.0917  0.0499
15336TIP3    H267424   3.999   3.326  12.463  0.5903 -0.2209  1.2474
15337TIP3   OH267425   0.910   6.558  15.667  0.1223  0.0104  0.7403
15337TIP3    H167426   0.981   6.496  15.685 -0.7994 -0.9023  1.3307
15337TIP3    H267427   0.835   6.523  15.715 -0.3289  1.7932  1.3810
15338TIP3   OH267428   5.335   3.964   5.875 -0.1746  0.0355 -0.3375
15338TIP3    H167429   5.336   4.056   5.848  1.6463  0.2302  0.2486
15338TIP3    H267430   5.418   3.952   5.920 -0.9775 -1.5539  0.8153
15339TIP3   OH267431   1.891   4.783   0.794  0.0832  0.0814  0.7666
15339TIP3    H167432   1.911   4.695   0.826 -1.0020  0.0414  1.3913
15339TIP3    H267433   1.969   4.834   0.814  0.9321 -0.8336 -0.0629
15340TIP3   OH267434   5.908   1.461  14.681  0.3996  0.1577 -0.7647
15340TIP3    H167435   5.827   1.434  14.638  0.4068 -1.1467  0.0074
15340TIP3    H267436   5.879   1.497  14.765  0.5175  1.1168 -1.1250
15341TIP3   OH267437   2.492   4.568   4.563 -0.2025 -0.5313  0.0532
15341TIP3    H167438   2.520   4.575   4.472 -0.8168 -0.7220 -0.1575
15341TIP3    H267439   2.405   4.528   4.558  0.3798 -1.9642  0.8016
15342TIP3   OH267440   1.600   1.058   5.210 -0.3561 -0.3711 -0.0035
15342TIP3    H167441   1.528   1.055   5.273  0.4160 -1.9185  0.8692
15342TIP3    H267442   1.558   1.072   5.125 -1.6811 -1.2354  0.4774
15343TIP3   OH267443   3.637   1.658   2.655 -0.2712  0.1324  0.5210
15343TIP3    H167444   3.658   1.652   2.748 -0.5524 -0.4338  0.5532
15343TIP3    H267445   3.544   1.683   2.652 -0.6188 -1.0941  0.4134
15344TIP3   OH267446   5.123   1.067   0.445 -0.0792  0.1745  0.0218
15344TIP3    H167447   5.127   1.154   0.406 -0.3620 -0.1632 -0.7783
15344TIP3    H267448   5.086   1.011   0.377  0.2521 -0.6104  0.4649
15345TIP3   OH267449   2.795   5.409  15.078  0.2701  0.7734  0.4411
15345TIP3    H167450   2.878   5.369  15.052 -0.6019 -0.9434  0.1979
15345TIP3    H267451   2.764   5.454  14.999  0.9063  1.3531  0.5121
15346TIP3   OH267452   5.722   4.011   1.536  0.2701 -0.0918  0.2553
15346TIP3    H167453   5.746   4.098   1.505 -0.9763  0.1851  0.0194
15346TIP3    H267454   5.631   4.001   1.511  0.8414 -2.1667 -1.2943
15347TIP3   OH267455   3.724   1.876   2.918  0.0534  0.3036 -0.5760
15347TIP3    H167456   3.708   1.781   2.921 -0.8199  0.4698  1.0022
15347TIP3    H267457   3.725   1.903   3.009  1.0438  1.7263 -0.9778
15348TIP3   OH267458   2.949   3.931  14.208 -0.2691 -0.1336  0.2134
15348TIP3    H167459   2.943   3.856  14.267  0.1684 -1.3610 -1.2411
15348TIP3    H267460   3.040   3.960  14.214  0.1739 -1.2328 -0.9860
15349TIP3   OH267461   1.092   6.351  12.778 -0.1632  0.3836  0.0575
15349TIP3    H167462   1.120   6.432  12.735 -0.1775  0.3405 -0.0339
15349TIP3    H267463   1.001   6.367  12.802  0.0264  0.6409  0.6371
15350TIP3   OH267464   6.573   0.995   5.642  1.1641 -0.8929 -0.4937
15350TIP3    H167465   6.622   0.917   5.669  0.2018 -1.5676 -0.6592
15350TIP3    H267466   6.563   0.985   5.547 -0.3986 -1.4442 -0.3062
15351TIP3   OH267467   1.710   3.481   1.255  0.2223  0.6212  0.3763
15351TIP3    H167468   1.661   3.411   1.211  0.9642  1.0743 -1.2489
15351TIP3    H267469   1.652   3.511   1.324 -0.1814 -1.4795  1.0248
15352TIP3   OH267470   0.369   1.816   3.431  0.0869 -0.0832  0.6986
15352TIP3    H167471   0.325   1.754   3.373 -0.2996 -1.4646  2.3760
15352TIP3    H267472   0.439   1.853   3.378 -2.6370  1.7618 -1.8997
15353TIP3   OH267473   5.796   1.088   0.241  0.3066 -0.5521 -0.0347
15353TIP3    H167474   5.867   1.116   0.299  0.3353 -0.3298 -0.1753
15353TIP3    H267475   5.802   0.993   0.239  1.5468 -0.4904 -1.2132
15354TIP3   OH267476   3.203   5.531  11.247  0.1338  0.0103  0.4340
15354TIP3    H167477   3.236   5.470  11.180 -1.2962 -0.9196  0.5299
15354TIP3    H267478   3.127   5.572  11.206  0.0123  0.3906  1.0321
15355TIP3   OH267479   1.549   1.763  15.691  0.0353 -0.5030  0.3611
15355TIP3    H167480   1.630   1.754  15.741 -0.5464 -1.6877  1.1235
15355TIP3    H267481   1.526   1.856  15.700  1.0298 -0.2598  0.5482
15356TIP3   OH267482   1.763   1.829  15.280  0.0209  0.4946 -0.1346
15356TIP3    H167483   1.780   1.818  15.373 -0.9511 -1.5203 -0.1439
15356TIP3    H267484   1.844   1.866  15.245  1.3679 -1.1528  1.1102
15357TIP3   OH267485   3.995   1.159  10.804 -0.0482 -0.3354 -0.0293
15357TIP3    H167486   3.945   1.182  10.726 -0.0835 -1.7475 -0.4500
15357TIP3    H267487   3.929   1.147  10.872 -0.0073  1.0241  0.2684
15358TIP3   OH267488   1.260   0.062   4.972 -0.1599 -0.4829  0.7110
15358TIP3    H167489   1.294   0.093   5.056  2.1699  1.0048 -0.6506
15358TIP3    H267490   1.188   0.122   4.951  1.7915  1.7496 -0.0717
15359TIP3   OH267491   1.188   0.800  13.952 -0.0016  0.2432 -0.4298
15359TIP3    H167492   1.156   0.878  13.908  1.6993  1.0020 -0.4012
15359TIP3    H267493   1.225   0.746  13.882  0.1721  0.1526 -0.2702
15360TIP3   OH267494   2.529   4.061  13.664 -0.6138  0.3138 -0.7168
15360TIP3    H167495   2.456   4.032  13.719  0.5255 -1.2783  0.0086
15360TIP3    H267496   2.576   4.125  13.719  0.6338 -1.4115  0.3484
15361TIP3   OH267497   3.138   0.433  11.680 -0.0612 -0.9348  0.0662
15361TIP3    H167498   3.115   0.516  11.637 -2.0941 -0.3152  2.1621
15361TIP3    H267499   3.074   0.370  11.647 -0.6788 -0.8202  1.0264
15362TIP3   OH267500   4.291   3.747  15.188  0.2706  0.4328  0.2651
15362TIP3    H167501   4.202   3.712  15.181 -0.2353  1.3505  1.7718
15362TIP3    H267502   4.305   3.794  15.105  0.6300 -2.4052 -1.4256
15363TIP3   OH267503   5.334   6.139  15.626 -0.4454 -0.1791  0.1884
15363TIP3    H167504   5.346   6.199  15.699  3.4507 -0.5054  0.0083
15363TIP3    H267505   5.387   6.062  15.648  0.4144 -0.5323 -2.6692
15364TIP3   OH267506   1.747   0.897   3.981  0.0007 -0.2251  0.1364
15364TIP3    H167507   1.706   0.906   3.895 -0.7398  0.4118  0.5384
15364TIP3    H267508   1.819   0.835   3.967  0.6046  0.7235 -1.1754
15365TIP3   OH267509   5.083   5.504  15.632  0.0027 -0.2204  0.2939
15365TIP3    H167510   5.176   5.510  15.612  0.0493 -2.6955 -0.5514
15365TIP3    H267511   5.073   5.552  15.715  1.8383  0.8095 -0.0338
15366TIP3   OH267512   2.792   1.682   3.236  0.3485  0.5815 -0.0744
15366TIP3    H167513   2.863   1.664   3.175 -0.6686 -0.8515 -0.9142
15366TIP3    H267514   2.728   1.731   3.184  0.2088  0.8183  0.3198
15367TIP3   OH267515   4.612   2.342   0.404 -0.2209 -0.4569  0.3360
15367TIP3    H167516   4.603   2.266   0.462  2.1177 -3.4552 -2.8346
15367TIP3    H267517   4.706   2.359   0.401 -0.5752  1.7732 -0.1161
15368TIP3   OH267518   5.296   5.600   3.380  0.2579 -0.0448  0.8009
15368TIP3    H167519   5.349   5.673   3.412 -0.8919  0.4412  1.6381
15368TIP3    H267520   5.359   5.545   3.333  1.4062  0.7773  1.3077
15369TIP3   OH267521   5.875   1.984  12.903 -0.1768 -0.7857 -0.2268
15369TIP3    H167522   5.956   1.936  12.921  0.1758 -0.4174 -0.8225
15369TIP3    H267523   5.818   1.920  12.861 -0.0173 -0.9081 -0.2577
15370TIP3   OH267524   2.559   5.560   4.535 -0.3376 -0.2061  0.4459
15370TIP3    H167525   2.649   5.538   4.511 -0.8694 -1.8271 -0.2073
15370TIP3    H267526   2.515   5.574   4.452 -0.6161  1.0118  0.7779
15371TIP3   OH267527   2.482   4.910   2.482  0.3323 -0.4157  0.1579
15371TIP3    H167528   2.428   4.976   2.439  1.0393  1.9769  2.6126
15371TIP3    H267529   2.571   4.925   2.449  0.9717  1.7732  2.5506
15372TIP3   OH267530   2.644   4.145   2.839  0.5766  0.5595  0.5610
15372TIP3    H167531   2.562   4.099   2.819  0.8315  0.5417 -0.4689
15372TIP3    H267532   2.658   4.203   2.765  0.8949  1.4268  1.2854
15373TIP3   OH267533   4.499   4.561  17.129 -0.5823  0.0024 -0.3757
15373TIP3    H167534   4.544   4.549  17.213 -1.7106  0.1524  0.2752
15373TIP3    H267535   4.563   4.534  17.063  0.1852 -0.5099  0.5535
15374TIP3   OH267536   5.069   2.902  16.861  0.2094 -0.7224  0.0292
15374TIP3    H167537   5.080   2.989  16.900 -2.5994  0.6658 -1.9249
15374TIP3    H267538   5.084   2.841  16.933  0.2888  1.4563  1.9706
15375TIP3   OH267539   3.287   2.948   4.771 -0.0086 -0.2306 -0.0580
15375TIP3    H167540   3.347   2.889   4.726 -0.6172  0.6496 -2.1351
15375TIP3    H267541   3.211   2.894   4.793 -0.3273 -0.3588 -1.4358
15376TIP3   OH267542   2.228   4.000  13.281  0.0303 -0.5546  0.5204
15376TIP3    H167543   2.267   3.927  13.234  1.3097  1.6386 -2.0849
15376TIP3    H267544   2.301   4.043  13.325 -0.1029  1.0014 -0.6994
15377TIP3   OH267545   1.629   1.326  12.655  0.4696  0.5559  0.3761
15377TIP3    H167546   1.667   1.253  12.704  1.6046  0.3537 -0.7415
15377TIP3    H267547   1.642   1.302  12.563 -0.8484  1.2997 -0.0283
15378TIP3   OH267548   6.302   1.866   5.141 -0.0513 -0.0114 -0.4762
15378TIP3    H167549   6.224   1.833   5.186 -0.0252 -1.2730 -1.2931
15378TIP3    H267550   6.368   1.798   5.156  0.1478 -0.1350 -1.8530
15379TIP3   OH267551   4.678   5.864   3.806 -0.0571  0.1633  0.7901
15379TIP3    H167552   4.719   5.777   3.809  0.5875  0.4773  1.4301
15379TIP3    H267553   4.673   5.885   3.713 -0.1074 -0.5107  0.6352
15380TIP3   OH267554   3.750   2.365  14.360 -0.5440  0.4015 -0.4571
15380TIP3    H167555   3.768   2.364  14.454  0.3709 -0.7659 -0.6233
15380TIP3    H267556   3.655   2.352  14.354 -0.7696  1.5069  0.3087
15381TIP3   OH267557   2.032   1.613   1.855 -0.3453  0.6263 -0.5982
15381TIP3    H167558   1.991   1.687   1.900  0.0315 -1.0905  2.9656
15381TIP3    H267559   2.122   1.611   1.888 -0.4990 -1.6597 -0.1470
15382TIP3   OH267560   0.296   0.749   2.934 -0.0995 -0.2704  0.1945
15382TIP3    H167561   0.215   0.791   2.904  0.7501  2.2074  1.1390
15382TIP3    H267562   0.267   0.683   2.997 -1.4772 -0.9625 -1.0954
15383TIP3   OH267563   0.192   4.424  14.289 -0.0923 -0.5982  0.2577
15383TIP3    H167564   0.243   4.441  14.209  2.4580  1.4436  2.1470
15383TIP3    H267565   0.241   4.354  14.333 -1.4523 -1.6759  0.1067
15384TIP3   OH267566   0.158   0.543   2.662  0.5169  0.4200 -0.0025
15384TIP3    H167567   0.147   0.613   2.597 -1.5464  0.7980  0.6670
15384TIP3    H267568   0.151   0.588   2.746 -0.9793 -0.5455  0.4393
15385TIP3   OH267569   2.975   6.258   0.026  0.1859 -0.0488 -0.4170
15385TIP3    H167570   3.016   6.276  -0.058  2.3481  1.7783  0.9057
15385TIP3    H267571   2.917   6.332   0.041  1.5651  0.8824  0.6409
15386TIP3   OH267572   1.505   5.601   4.262 -0.4272  0.1166  0.8380
15386TIP3    H167573   1.542   5.574   4.178  0.8125 -1.1349  1.7512
15386TIP3    H267574   1.446   5.673   4.240 -1.9222 -1.6453 -1.3939
15387TIP3   OH267575   4.000   6.032  14.481  0.3083  0.3404  0.2183
15387TIP3    H167576   4.015   5.938  14.484  1.5383  0.5403  0.7909
15387TIP3    H267577   4.070   6.070  14.535 -0.7380  1.5205  0.8075
15388TIP3   OH267578   2.228   2.919  16.525 -0.1410 -0.2080 -0.0839
15388TIP3    H167579   2.319   2.898  16.543 -0.1124  0.1763  0.2288
15388TIP3    H267580   2.231   3.002  16.476 -0.3757  0.5303  1.1079
15389TIP3   OH267581   6.293   5.849  16.765 -0.5935 -0.2009 -0.6842
15389TIP3    H167582   6.373   5.832  16.714  1.0329  2.6314  0.6767
15389TIP3    H267583   6.324   5.860  16.855 -2.9263 -1.4946  0.3707
15390TIP3   OH267584   6.094   5.112   1.029  0.2756 -0.6897 -0.0294
15390TIP3    H167585   6.064   5.202   1.036  0.6204 -0.4151 -1.6699
15390TIP3    H267586   6.085   5.090   0.936  2.4348 -1.5089 -0.1231
15391TIP3   OH267587   5.310   6.062   1.269  1.0049 -0.3163 -0.0092
15391TIP3    H167588   5.299   6.001   1.342  2.1286 -0.5663 -0.0310
15391TIP3    H267589   5.225   6.105   1.261  0.6199 -0.8692  0.9159
15392TIP3   OH267590   5.330   0.336  10.846  0.3076  0.4759 -0.7488
15392TIP3    H167591   5.417   0.324  10.885  0.5927  0.9204 -1.2265
15392TIP3    H267592   5.309   0.428  10.862  0.0708  0.4525 -0.9188
15393TIP3   OH267593   2.904   4.967  13.201 -0.2300  0.4224 -0.1000
15393TIP3    H167594   2.897   4.982  13.295  1.8176 -1.5390  0.4759
15393TIP3    H267595   2.909   5.054  13.163  0.2517  1.2645  1.7623
15394TIP3   OH267596   0.599   6.068  15.049  0.1942  0.5661 -0.2659
15394TIP3    H167597   0.684   6.112  15.056  0.5705 -0.2060  0.2023
15394TIP3    H267598   0.535   6.139  15.045  0.8715  1.1632 -0.8178
15395TIP3   OH267599   3.412   0.531   5.573  0.1490 -0.0130 -0.0709
15395TIP3    H167600   3.322   0.500   5.571 -0.0247  0.4521  0.2824
15395TIP3    H267601   3.447   0.500   5.656  0.5117 -0.7192 -0.4809
15396TIP3   OH267602   1.243   6.597  15.418  0.1980 -0.0545 -0.3137
15396TIP3    H167603   1.335   6.572  15.424  0.5642  1.4608  1.5773
15396TIP3    H267604   1.233   6.634  15.331  0.8610 -1.9928 -1.2675
15397TIP3   OH267605   6.311   3.989   2.800 -0.1807  0.0903 -0.5105
15397TIP3    H167606   6.238   4.029   2.752 -1.9715  0.5206  2.3124
15397TIP3    H267607   6.300   3.895   2.784 -0.1206  0.2611 -1.6821
15398TIP3   OH267608   5.776   2.029   0.691  0.5316  0.3220  0.3619
15398TIP3    H167609   5.847   2.072   0.643 -0.1591 -0.3814 -1.3591
15398TIP3    H267610   5.753   2.092   0.761  2.1423  0.9898  0.3216
15399TIP3   OH267611   4.764   6.676   5.456 -0.4898 -1.0916  0.0120
15399TIP3    H167612   4.705   6.677   5.532 -1.4728 -0.8075 -0.7333
15399TIP3    H267613   4.723   6.735   5.393  1.2461  0.1089 -0.0709
15400TIP3   OH267614   1.251   4.379  10.956 -0.6689 -0.3066  0.0522
15400TIP3    H167615   1.339   4.343  10.953 -0.3316  0.5791 -2.1120
15400TIP3    H267616   1.194   4.303  10.951  0.0212 -0.7480 -1.9994
15401TIP3   OH267617   2.071   5.076   2.914 -0.4210 -0.4662 -0.0546
15401TIP3    H167618   2.076   4.996   2.862  0.0997 -0.9248  0.6775
15401TIP3    H267619   2.123   5.057   2.992 -1.4974  0.0595  0.8239
15402TIP3   OH267620   4.938   2.065   0.881  0.0193 -0.0441 -0.2053
15402TIP3    H167621   4.873   2.039   0.947  0.9960  0.8195  1.1391
15402TIP3    H267622   4.994   1.988   0.872  0.5237  0.1838  0.8074
15403TIP3   OH267623   3.167   2.737   1.384 -0.2570 -0.3824  0.0566
15403TIP3    H167624   3.145   2.799   1.454  1.3992  2.7535 -2.0076
15403TIP3    H267625   3.095   2.744   1.322  0.1232 -0.2134 -0.3702
15404TIP3   OH267626   5.557   1.868   0.064  0.3555 -0.6240 -0.1534
15404TIP3    H167627   5.625   1.936   0.064  0.6768 -0.9138  1.2494
15404TIP3    H267628   5.602   1.790   0.096  0.0789 -1.6291 -2.0732
15405TIP3   OH267629   4.144   6.032   3.151 -0.0170 -0.1076  0.3329
15405TIP3    H167630   4.176   6.069   3.069 -2.6748  0.2012 -0.6749
15405TIP3    H267631   4.113   5.944   3.127  2.1699 -1.3861  1.7858
15406TIP3   OH267632   6.145   2.522   3.375  0.2911 -0.2289  0.0444
15406TIP3    H167633   6.214   2.532   3.309  1.2046  2.0306  1.2386
15406TIP3    H267634   6.064   2.536   3.326  0.8586  0.0276 -0.8672
15407TIP3   OH267635   1.674   0.024  10.465  0.3744  0.5485  0.2065
15407TIP3    H167636   1.627  -0.010  10.540 -0.9150  4.3906  1.3537
15407TIP3    H267637   1.607   0.038  10.398  1.0729 -0.2657 -0.6971
15408TIP3   OH267638   2.109   6.079  12.390 -0.5612  0.7383 -0.0242
15408TIP3    H167639   2.052   6.066  12.466  1.1669  0.9406  1.3814
15408TIP3    H267640   2.053   6.120  12.325 -2.5724 -1.0452  0.4699
15409TIP3   OH267641   1.181   2.670   3.758  0.1733 -0.6384 -0.3354
15409TIP3    H167642   1.160   2.635   3.672 -1.1660  1.2104 -0.8286
15409TIP3    H267643   1.204   2.762   3.742  0.0403 -0.2938  1.2380
15410TIP3   OH267644   5.638   3.451  13.758 -0.1543  0.4852  0.2058
15410TIP3    H167645   5.625   3.374  13.814  0.3411 -0.0759 -0.4255
15410TIP3    H267646   5.617   3.419  13.670  0.0863  1.0641 -0.0621
15411TIP3   OH267647   6.583   4.567   0.142  0.3999 -0.4257  0.4914
15411TIP3    H167648   6.574   4.549   0.048  1.3391  0.5423  0.1918
15411TIP3    H267649   6.548   4.656   0.153 -2.5653 -1.6259  1.6305
15412TIP3   OH267650   2.118   2.877  12.481  0.3936 -0.0685  0.1872
15412TIP3    H167651   2.193   2.830  12.447 -2.0952 -3.2530 -1.4559
15412TIP3    H267652   2.057   2.883  12.407 -1.2122  1.8997  1.5396
15413TIP3   OH267653   5.710   3.998  15.103  0.6394  0.0740  0.6624
15413TIP3    H167654   5.720   3.998  15.008 -1.4104 -0.4298  0.3905
15413TIP3    H267655   5.723   3.906  15.129 -3.6110 -0.9077  0.1250
15414TIP3   OH267656   2.050   6.548  12.060  0.3729  0.1981 -0.1518
15414TIP3    H167657   2.137   6.573  12.093 -0.1677  1.0393  0.7000
15414TIP3    H267658   2.010   6.631  12.034  1.1275 -0.4760 -4.0519
15415TIP3   OH267659   1.918   4.351  14.422 -0.3222  0.3867 -0.1681
15415TIP3    H167660   2.004   4.374  14.457 -1.2250  0.3704  2.2185
15415TIP3    H267661   1.879   4.435  14.399  0.5126  0.3572 -1.8820
15416TIP3   OH267662   3.773   6.123   6.053 -0.3786 -0.5390 -0.2835
15416TIP3    H167663   3.755   6.216   6.045  1.1070 -0.3177 -1.4431
15416TIP3    H267664   3.811   6.114   6.141  0.2503  0.0912 -0.4836
15417TIP3   OH267665   5.837   4.065   3.650 -0.2397  0.3124 -0.8144
15417TIP3    H167666   5.835   4.024   3.563 -1.3453 -0.7420 -0.3232
15417TIP3    H267667   5.780   4.010   3.704  1.4535  0.1480  0.9486
15418TIP3   OH267668   6.124   4.950   0.502 -0.4540 -0.5010 -0.6620
15418TIP3    H167669   6.082   4.905   0.428 -0.7661 -2.4769  0.6148
15418TIP3    H267670   6.183   5.014   0.462  1.8312 -3.6226 -2.7808
15419TIP3   OH267671   5.844   5.080  11.371 -0.5387 -0.4024 -0.4842
15419TIP3    H167672   5.896   5.031  11.435 -0.0929 -0.4251 -0.8584
15419TIP3    H267673   5.909   5.131  11.322 -0.9264 -0.0194 -0.5982
15420TIP3   OH267674   0.308   6.295  11.204  0.5975 -0.2087 -0.2772
15420TIP3    H167675   0.346   6.381  11.221  0.6334 -0.6084  1.9079
15420TIP3    H267676   0.359   6.234  11.257 -0.2726 -1.4032 -0.7449
15421TIP3   OH267677   3.165   0.979   2.476 -0.1990  0.5469  0.3065
15421TIP3    H167678   3.215   0.897   2.474  1.1109  1.3149 -0.0209
15421TIP3    H267679   3.075   0.952   2.491  0.2833 -0.9169  0.7646
15422TIP3   OH267680   4.883   3.595   5.312 -0.2666  0.0351 -0.1643
15422TIP3    H167681   4.847   3.562   5.394 -0.1324 -0.4952 -0.3159
15422TIP3    H267682   4.957   3.650   5.340  0.5843 -1.1677  0.0284
15423TIP3   OH267683   5.947   0.068  11.562  0.1782  0.2680  0.1222
15423TIP3    H167684   6.029   0.060  11.513  0.5801 -2.2816  1.0556
15423TIP3    H267685   5.880   0.083  11.496  1.2517  1.6291 -0.7254
15424TIP3   OH267686   5.948   6.737  12.679 -0.1955  0.7010 -0.1488
15424TIP3    H167687   5.889   6.809  12.703 -1.2855  0.0396 -0.7542
15424TIP3    H267688   5.944   6.677  12.753 -1.0140  0.2237 -0.5640
15425TIP3   OH267689   5.336   5.970  16.633 -0.1654  0.0363  0.2673
15425TIP3    H167690   5.330   6.055  16.590  0.8492 -0.0331 -0.0359
15425TIP3    H267691   5.263   5.920  16.598  0.6080 -0.0105 -1.4015
15426TIP3   OH267692   5.861   1.018   4.587  0.9644 -0.2382 -0.2360
15426TIP3    H167693   5.856   1.006   4.493  0.2351  0.4329 -0.2923
15426TIP3    H267694   5.800   0.954   4.624 -1.8740  2.1349 -0.4643
15427TIP3   OH267695   3.090   5.153  17.084  0.3624  0.1764  0.6947
15427TIP3    H167696   3.081   5.179  16.992  0.7170  0.3443  0.7070
15427TIP3    H267697   3.051   5.066  17.088  0.4262  0.1313  0.3648
15428TIP3   OH267698   2.553   4.228  10.363  0.6142  0.2248 -0.2244
15428TIP3    H167699   2.566   4.147  10.315  0.3717 -1.3640  2.2404
15428TIP3    H267700   2.588   4.211  10.450 -3.8520  0.9588  1.9850
15429TIP3   OH267701   2.894   6.564  11.047  0.7587  0.0340 -0.0547
15429TIP3    H167702   2.831   6.623  11.007  1.4411  0.4402 -0.5602
15429TIP3    H267703   2.872   6.478  11.011  0.7049  0.2318 -0.5110
15430TIP3   OH267704   4.759   2.404  13.506  0.8410 -0.2582 -0.0597
15430TIP3    H167705   4.830   2.357  13.463 -0.1567 -1.8473 -0.0281
15430TIP3    H267706   4.731   2.347  13.577  0.3693  0.9275  0.7502
15431TIP3   OH267707   5.060   2.813   4.923  0.0445 -0.2356 -0.2696
15431TIP3    H167708   5.090   2.841   5.009  1.0580 -0.0975 -0.6617
15431TIP3    H267709   4.965   2.810   4.931  0.1963 -2.4398  1.5436
15432TIP3   OH267710   3.533   1.489  14.013 -0.4291 -0.3333 -0.5940
15432TIP3    H167711   3.455   1.489  14.068  0.3578 -0.6449  0.5683
15432TIP3    H267712   3.506   1.534  13.933 -1.8738 -0.7050 -0.3526
15433TIP3   OH267713   3.419   4.200   3.537  0.2629  0.5906 -0.3301
15433TIP3    H167714   3.343   4.241   3.578 -0.1035 -0.0592 -0.3423
15433TIP3    H267715   3.427   4.114   3.580 -0.3286 -0.2463 -1.8159
15434TIP3   OH267716   0.783   1.792   3.458 -0.1771 -0.6468  0.1169
15434TIP3    H167717   0.800   1.866   3.517  1.3737 -1.7004  1.0677
15434TIP3    H267718   0.866   1.777   3.414  0.4102 -3.4723  1.9168
15435TIP3   OH267719   3.490   5.960   2.343  0.1657 -0.6690  0.0464
15435TIP3    H167720   3.507   6.025   2.411 -1.3725 -0.0402 -0.1220
15435TIP3    H267721   3.552   5.982   2.273 -0.7356  1.0599 -0.2700
15436TIP3   OH267722   0.316   1.421   6.114 -0.0069  0.0483 -0.4404
15436TIP3    H167723   0.289   1.512   6.107  0.2527  0.1351 -0.3589
15436TIP3    H267724   0.301   1.383   6.028 -2.3954 -0.4830  0.1488
15437TIP3   OH267725   2.090   2.213   3.744  0.0300 -0.0275  0.2732
15437TIP3    H167726   2.154   2.279   3.720 -0.7881  0.5572 -0.3428
15437TIP3    H267727   2.037   2.200   3.666 -1.3940  0.4296  1.1204
15438TIP3   OH267728   1.117   0.722  12.257 -0.5375 -0.0186 -0.0725
15438TIP3    H167729   1.138   0.682  12.341  1.8550  0.9647 -0.1214
15438TIP3    H267730   1.173   0.800  12.252 -0.7125  0.0517 -2.4934
15439TIP3   OH267731   5.389   6.559   3.201 -0.2227 -0.0005  0.1485
15439TIP3    H167732   5.320   6.524   3.145 -0.7358  0.3693  0.5279
15439TIP3    H267733   5.343   6.622   3.258  0.3655 -0.0081  0.6425
15440TIP3   OH267734   3.842   3.086   5.637 -0.2767 -0.2524  0.7938
15440TIP3    H167735   3.841   2.990   5.642 -0.4145 -0.2457  0.8882
15440TIP3    H267736   3.935   3.108   5.628 -0.2286 -0.3841  0.9683
15441TIP3   OH267737   1.378   4.510  13.737 -0.1981  0.3497 -0.2025
15441TIP3    H167738   1.387   4.575  13.806 -1.1864  0.4300 -0.1254
15441TIP3    H267739   1.298   4.536  13.690 -0.4405 -0.6259 -0.3606
15442TIP3   OH267740   1.995   4.792  15.951  0.5153  0.1746 -0.7489
15442TIP3    H167741   1.973   4.867  15.897 -0.1063 -0.2979 -1.1690
15442TIP3    H267742   2.037   4.829  16.028 -0.6937  1.0308 -0.4772
15443TIP3   OH267743   4.653   1.860  15.129  0.5343 -0.3628 -0.4057
15443TIP3    H167744   4.610   1.908  15.200  1.1895 -2.1420  1.2781
15443TIP3    H267745   4.699   1.927  15.079 -1.3066  1.1548 -0.1835
15444TIP3   OH267746   3.443   1.924  14.649 -0.2050  0.4429 -0.0689
15444TIP3    H167747   3.382   1.997  14.660 -1.1523 -0.3657  0.2498
15444TIP3    H267748   3.403   1.870  14.580 -0.1677 -0.4152  0.5674
15445TIP3   OH267749   6.610   3.636   4.763 -0.4970  0.5617 -0.7193
15445TIP3    H167750   6.515   3.650   4.767 -0.3562  1.2355  1.0437
15445TIP3    H267751   6.646   3.719   4.732 -0.3680  0.8568  0.2141
15446TIP3   OH267752   3.889   2.456  12.784  0.7535  0.1623 -0.5616
15446TIP3    H167753   3.840   2.536  12.768 -2.1255 -1.4392 -0.3242
15446TIP3    H267754   3.899   2.415  12.698 -0.8797 -0.8560 -0.3049
15447TIP3   OH267755   4.003   2.313  17.124  0.2987  0.7041  0.5488
15447TIP3    H167756   3.924   2.363  17.146 -0.0342  0.2491  0.3850
15447TIP3    H267757   3.977   2.257  17.052  0.7669  0.5276  0.5152
15448TIP3   OH267758   1.721   0.466  11.055  0.0949 -0.0807  0.2098
15448TIP3    H167759   1.632   0.445  11.029 -0.5638  0.5608  1.8160
15448TIP3    H267760   1.725   0.562  11.055  1.3863 -0.0740 -1.6672
15449TIP3   OH267761   6.194   1.084  14.807 -0.0096  0.6978  0.1356
15449TIP3    H167762   6.271   1.067  14.754 -1.2144 -1.2290 -1.1409
15449TIP3    H267763   6.198   1.019  14.877 -0.4136  0.6378  0.1079
15450TIP3   OH267764   2.607   1.621  16.689  0.1477 -0.2090 -0.4303
15450TIP3    H167765   2.593   1.694  16.629  0.2463 -1.4447 -2.0224
15450TIP3    H267766   2.529   1.621  16.745 -0.1638  0.7047 -0.8420
15451TIP3   OH267767   2.113   1.527   4.129 -0.1640 -0.2140  0.7877
15451TIP3    H167768   2.202   1.491   4.136  0.1026  0.4612  0.9531
15451TIP3    H267769   2.064   1.461   4.079  0.8565  0.1786 -0.8073
15452TIP3   OH267770   4.652   2.339   2.740  0.2564  0.1363 -0.2017
15452TIP3    H167771   4.571   2.295   2.764 -0.0249  1.2477  1.0379
15452TIP3    H267772   4.695   2.280   2.678 -0.9951 -0.9504 -0.0640
15453TIP3   OH267773   2.466   4.199   3.526 -0.3132  0.0697  0.0770
15453TIP3    H167774   2.555   4.169   3.546 -1.2639 -2.5951  0.6555
15453TIP3    H267775   2.435   4.139   3.458 -1.6980  0.9356 -0.0885
15454TIP3   OH267776   0.603   5.723  12.885 -0.5420 -0.1938  0.2480
15454TIP3    H167777   0.638   5.647  12.838  0.3557 -0.4264  1.2632
15454TIP3    H267778   0.594   5.790  12.818 -1.7232 -1.2877 -0.7534
15455TIP3   OH267779   5.207   4.706  13.704  0.5744 -0.0811  0.5979
15455TIP3    H167780   5.300   4.694  13.724  0.7861 -0.0350 -0.3108
15455TIP3    H267781   5.201   4.793  13.663  0.2375 -0.3334  0.0888
15456TIP3   OH267782   2.673   5.383   6.074 -0.0776 -0.1616 -0.0121
15456TIP3    H167783   2.760   5.402   6.038 -0.5368 -3.5676 -3.5026
15456TIP3    H267784   2.691   5.339   6.158  1.7389 -2.0991 -1.3159
15457TIP3   OH267785   2.698   1.739   6.098 -0.0586 -0.0374 -0.2361
15457TIP3    H167786   2.640   1.795   6.148  0.0318 -1.0921  1.1025
15457TIP3    H267787   2.782   1.786   6.096  1.0857 -1.4577  3.8404
15458TIP3   OH267788   1.288   5.001  15.565  0.0181  0.8412 -0.2675
15458TIP3    H167789   1.248   4.993  15.478  1.4216 -1.6092 -0.7724
15458TIP3    H267790   1.377   5.031  15.548  0.2976  0.3675  0.3171
15459TIP3   OH267791   4.081   6.431  12.805  0.5536 -0.3249  0.2122
15459TIP3    H167792   4.134   6.388  12.872  1.1305  0.3036  0.1757
15459TIP3    H267793   4.069   6.520  12.838  0.7898 -0.0252 -0.4862
15460TIP3   OH267794   0.223   6.295   1.106 -0.2931 -0.6227 -0.2258
15460TIP3    H167795   0.134   6.278   1.138 -0.5320  1.0661  0.0640
15460TIP3    H267796   0.214   6.292   1.010 -0.9518  0.7997 -0.2303
15461TIP3   OH267797   5.724   2.606   4.873  0.0643  0.5590 -0.0178
15461TIP3    H167798   5.790   2.638   4.934  0.5768 -1.4455  0.5580
15461TIP3    H267799   5.642   2.610   4.921  0.3497 -0.2923  0.5692
15462TIP3   OH267800   2.752   0.424   1.125  0.4680 -1.2740 -0.6746
15462TIP3    H167801   2.789   0.427   1.213 -0.4233 -2.2298 -0.2497
15462TIP3    H267802   2.781   0.341   1.090 -2.2883 -2.7215  0.1760
15463TIP3   OH267803   0.644   0.346   3.840  0.7831  0.1331 -0.6754
15463TIP3    H167804   0.654   0.253   3.819  0.3335  0.2217 -1.3265
15463TIP3    H267805   0.566   0.350   3.895 -0.0047  0.2497 -1.7467
15464TIP3   OH267806   1.934   3.964   2.056 -0.4376  0.7788  0.1949
15464TIP3    H167807   1.846   4.002   2.056 -0.1513  1.4930 -0.9474
15464TIP3    H267808   1.934   3.903   1.983 -0.0490  0.6292  0.3179
15465TIP3   OH267809   6.496   5.849  13.139  0.4677  0.0081 -0.3765
15465TIP3    H167810   6.454   5.929  13.108  1.1028  0.9207  1.0625
15465TIP3    H267811   6.451   5.779  13.090  0.6926  1.2654 -2.5283
15466TIP3   OH267812   6.080   1.181   0.315 -0.4612  0.1685  0.9931
15466TIP3    H167813   6.096   1.129   0.237 -3.2712  0.7883 -0.1068
15466TIP3    H267814   6.144   1.252   0.310 -0.0665 -0.2586 -0.2904
15467TIP3   OH267815   5.273   4.669  16.587  0.1157  0.2227  0.3523
15467TIP3    H167816   5.339   4.719  16.540 -1.3670  2.6202  0.6580
15467TIP3    H267817   5.214   4.636  16.519  0.7592 -0.6640  0.2007
15468TIP3   OH267818   1.931   1.192  14.174 -0.3471  0.3185 -0.7711
15468TIP3    H167819   1.989   1.164  14.244  0.1856  1.9481 -0.5365
15468TIP3    H267820   1.922   1.286  14.186 -2.7754  0.1791 -1.0108
15469TIP3   OH267821   1.733   4.666   2.958 -0.2006 -0.2497 -0.6836
15469TIP3    H167822   1.670   4.720   3.006 -0.2775 -0.6665 -0.3134
15469TIP3    H267823   1.812   4.670   3.012 -0.3876 -0.9871 -0.3495
15470TIP3   OH267824   5.713   2.160   4.420 -0.2189  0.2993 -0.1199
15470TIP3    H167825   5.617   2.160   4.425 -0.1634  0.3893  1.6018
15470TIP3    H267826   5.740   2.219   4.490  1.0897  1.4862 -1.5679
15471TIP3   OH267827   6.129   5.104  16.526  0.6115  0.3098  0.3250
15471TIP3    H167828   6.090   5.064  16.604  1.8631 -0.4152  0.6038
15471TIP3    H267829   6.200   5.158  16.559  0.8141  0.4192 -0.2726
15472TIP3   OH267830   0.380   1.587   5.504 -0.3759 -0.2231  0.2022
15472TIP3    H167831   0.474   1.603   5.514 -0.6564  1.4252  0.4495
15472TIP3    H267832   0.349   1.573   5.594 -0.4732 -0.0770  0.1920
15473TIP3   OH267833   0.856   5.770  13.771  0.7356 -0.0541  0.0396
15473TIP3    H167834   0.910   5.729  13.838  1.3829 -0.4393 -0.7098
15473TIP3    H267835   0.802   5.833  13.819 -0.9352 -2.3443  1.3845
15474TIP3   OH267836   2.681   1.619  12.987  0.1490  0.3757 -0.1078
15474TIP3    H167837   2.726   1.627  13.071  0.4859  1.0292 -0.3468
15474TIP3    H267838   2.637   1.534  12.992 -1.1679  1.0964  1.3703
15475TIP3   OH267839   3.344   5.649   4.454  0.0732 -0.0953  0.2690
15475TIP3    H167840   3.384   5.723   4.409  1.7811 -1.5411 -0.7352
15475TIP3    H267841   3.282   5.688   4.516 -0.6977  2.0642 -1.7316
15476TIP3   OH267842   4.515   2.139  11.441 -0.4670 -0.0919  0.5135
15476TIP3    H167843   4.513   2.125  11.535  1.2969  1.9599  0.9378
15476TIP3    H267844   4.500   2.234  11.431 -0.5441 -0.2600 -1.2588
15477TIP3   OH267845   2.313   5.961  15.026  0.2324  0.0577  0.2863
15477TIP3    H167846   2.295   5.870  15.002 -2.8088  0.3976  0.9161
15477TIP3    H267847   2.404   5.960  15.058  0.5536 -2.5620 -0.4735
15478TIP3   OH267848   5.553   4.978   5.231  0.0032  0.6690 -0.1248
15478TIP3    H167849   5.500   5.035   5.286  0.9150 -0.1484  1.7218
15478TIP3    H267850   5.642   5.014   5.237  0.2696  0.0735 -0.3644
15479TIP3   OH267851   2.403   0.726   0.653  0.1164 -0.2343  0.2610
15479TIP3    H167852   2.365   0.677   0.580 -1.6390  1.3944  0.0122
15479TIP3    H267853   2.409   0.661   0.724 -1.2912 -1.0460 -0.3151
15480TIP3   OH267854   0.143   0.124   2.172 -0.3611 -0.6430 -0.1333
15480TIP3    H167855   0.075   0.093   2.231 -1.6694 -0.0457 -1.2566
15480TIP3    H267856   0.173   0.206   2.211 -2.0129  0.3349 -0.8049
15481TIP3   OH267857   6.260   4.408  12.929  0.0807 -0.0324  0.0447
15481TIP3    H167858   6.288   4.494  12.961  0.2908  0.7012 -1.9499
15481TIP3    H267859   6.218   4.426  12.845  1.6521 -2.0059 -1.2674
15482TIP3   OH267860   6.692   6.255   3.439  0.2646 -0.5607 -0.4678
15482TIP3    H167861   6.697   6.210   3.355 -1.2590 -0.7320 -0.4920
15482TIP3    H267862   6.600   6.281   3.447  0.0967 -1.6199  1.6938
15483TIP3   OH267863   5.992   3.000   1.151  0.1675  0.2527 -0.5853
15483TIP3    H167864   5.936   3.077   1.163 -2.8640 -1.7359 -0.7288
15483TIP3    H267865   5.948   2.949   1.083  0.9165 -2.5169  0.8367
15484TIP3   OH267866   5.227   6.227   5.075  0.0202  0.2978  0.2070
15484TIP3    H167867   5.153   6.261   5.126  0.8805 -1.2506  2.6619
15484TIP3    H267868   5.293   6.296   5.080 -0.4400  0.7707 -0.1214
15485TIP3   OH267869   0.554   1.173   4.017  0.5075  0.2753  0.3670
15485TIP3    H167870   0.635   1.135   4.051  0.7637  0.3561 -0.1366
15485TIP3    H267871   0.505   1.098   3.982  1.0148  0.3859 -0.6304
15486TIP3   OH267872   6.753   3.136   5.524  0.4943  0.0561  0.3105
15486TIP3    H167873   6.769   3.155   5.431 -0.7882 -2.2286 -0.4339
15486TIP3    H267874   6.836   3.100   5.555  1.7215  2.9760  0.7720
15487TIP3   OH267875   3.985   2.942  14.105  0.0427  0.2618 -0.2221
15487TIP3    H167876   3.921   2.889  14.154  0.0895  0.7267  0.3578
15487TIP3    H267877   3.963   3.032  14.127  0.5293  0.4486 -0.4927
15488TIP3   OH267878   3.789   4.587  11.319  0.3456 -0.2500 -0.2383
15488TIP3    H167879   3.791   4.574  11.225 -0.0742  2.4665 -0.6991
15488TIP3    H267880   3.730   4.661  11.332  1.1819  0.1065  2.0674
15489TIP3   OH267881   0.805   1.679  13.624 -0.3689 -0.4595 -0.3121
15489TIP3    H167882   0.760   1.644  13.701  1.6143 -0.3269  0.9982
15489TIP3    H267883   0.886   1.716  13.659  0.2881  0.2276 -2.4066
15490TIP3   OH267884   0.616   5.627  15.872 -0.3971 -0.1626 -0.1273
15490TIP3    H167885   0.521   5.629  15.860 -0.1574  1.6245 -2.7814
15490TIP3    H267886   0.642   5.538  15.849 -1.4152 -0.7196  0.8015
15491TIP3   OH267887   3.332   4.759   6.026  0.3601  0.0014  0.0070
15491TIP3    H167888   3.257   4.726   6.076 -0.8445  1.1143 -0.9833
15491TIP3    H267889   3.386   4.803   6.091  0.2583 -0.9458  0.7682
15492TIP3   OH267890   6.466   4.243   4.446 -0.2943  0.2742 -0.4649
15492TIP3    H167891   6.446   4.171   4.506 -0.0773 -1.3697 -2.2710
15492TIP3    H267892   6.418   4.318   4.482 -1.1229 -0.9287  1.0666
15493TIP3   OH267893   6.006   3.089  11.014 -0.0539 -0.3626 -0.0419
15493TIP3    H167894   6.052   3.079  11.098  0.2577  0.7032 -0.0784
15493TIP3    H267895   6.076   3.090  10.949 -0.2242 -0.1180 -0.2211
15494TIP3   OH267896   2.685   4.161   3.956  0.4428 -0.0545 -0.7133
15494TIP3    H167897   2.686   4.112   4.037  0.1269  0.1190 -0.6011
15494TIP3    H267898   2.606   4.131   3.910  0.3070  0.2630 -0.6934
15495TIP3   OH267899   0.133   1.337   1.531  0.6414 -0.1681 -0.4655
15495TIP3    H167900   0.179   1.257   1.556  0.6772  0.2503  0.8639
15495TIP3    H267901   0.069   1.352   1.601 -1.2346 -0.4695 -2.0192
15496TIP3   OH267902   1.649   6.250  12.433  0.0642 -0.3192 -0.0845
15496TIP3    H167903   1.601   6.266  12.514 -0.0732 -0.7029 -0.0895
15496TIP3    H267904   1.582   6.242  12.366  0.0617 -1.8164  0.0676
15497TIP3   OH267905   0.143   0.649  13.827  0.4763  0.0408 -0.3473
15497TIP3    H167906   0.157   0.595  13.748  2.0385  0.2139 -0.2255
15497TIP3    H267907   0.220   0.706  13.831  0.9650 -0.6595  1.8479
15498TIP3   OH267908   3.861   6.325  13.274  0.2139  0.0033 -0.4406
15498TIP3    H167909   3.847   6.359  13.186 -2.5497  1.6657  0.4972
15498TIP3    H267910   3.861   6.404  13.330  0.0453 -1.1144  1.2132
15499TIP3   OH267911   1.868   5.772   3.771 -0.2237 -0.5624 -0.3698
15499TIP3    H167912   1.778   5.806   3.775 -1.0760 -2.7589  0.5085
15499TIP3    H267913   1.922   5.851   3.768 -2.1374  0.8445 -0.4971
15500TIP3   OH267914   5.129   4.880  14.363 -0.1246  0.3534  0.2040
15500TIP3    H167915   5.111   4.957  14.308  0.1027  0.7096  0.6237
15500TIP3    H267916   5.134   4.807  14.301  0.1707  0.7590 -0.2563
15501TIP3   OH267917   0.111   1.782   5.648 -0.4220  0.3502 -0.2400
15501TIP3    H167918   0.097   1.688   5.633 -1.4088  0.5561 -0.7039
15501TIP3    H267919   0.044   1.806   5.712 -0.8518  0.9416 -0.9016
15502TIP3   OH267920   2.647   1.354   3.309  0.6851  0.0712  0.4382
15502TIP3    H167921   2.738   1.366   3.283  0.7733 -1.8863 -0.3268
15502TIP3    H267922   2.597   1.410   3.250  1.4276  2.0634  1.6314
15503TIP3   OH267923   1.227   2.213   0.415  0.1467  0.2437  0.5033
15503TIP3    H167924   1.281   2.138   0.438  0.6910 -0.4669 -2.6860
15503TIP3    H267925   1.287   2.288   0.416  0.8466 -0.2522 -1.2572
15504TIP3   OH267926   6.683   0.168   4.675  0.4399 -0.8181 -0.7107
15504TIP3    H167927   6.673   0.169   4.580 -0.6227  3.7249 -0.7870
15504TIP3    H267928   6.595   0.145   4.707  0.1823 -0.1184 -0.8933
15505TIP3   OH267929   6.292   3.238  14.330 -0.0779 -0.0565 -0.3631
15505TIP3    H167930   6.208   3.247  14.374  0.5354  1.1281  0.6204
15505TIP3    H267931   6.298   3.315  14.274 -0.1641 -0.7614 -1.3748
15506TIP3   OH267932   3.281   5.080  14.150  0.6733  0.0700  0.0803
15506TIP3    H167933   3.352   5.108  14.208 -0.3442  1.5825  0.6609
15506TIP3    H267934   3.303   5.119  14.065  0.4221  0.7818  0.3293
15507TIP3   OH267935   1.259   0.868  15.513  0.0401  0.6047  0.2268
15507TIP3    H167936   1.220   0.857  15.427  1.5703  0.9591 -0.5403
15507TIP3    H267937   1.184   0.872  15.573 -1.0312  0.1121 -1.0396
15508TIP3   OH267938   5.607   6.438  12.476  0.9306 -0.3762 -0.5164
15508TIP3    H167939   5.700   6.447  12.457  0.6148 -0.5673 -2.3600
15508TIP3    H267940   5.588   6.346  12.460  0.5580 -0.5088  0.6098
15509TIP3   OH267941   1.060   5.394   1.948 -0.0980  0.1899 -0.2006
15509TIP3    H167942   1.108   5.351   2.019 -2.3436  0.1140  1.3651
15509TIP3    H267943   1.025   5.322   1.896 -1.1535  0.1512  0.5371
15510TIP3   OH267944   4.465   4.551   2.709 -0.3528  0.1540 -0.0411
15510TIP3    H167945   4.468   4.621   2.774 -0.2254  1.3734 -1.3165
15510TIP3    H267946   4.543   4.565   2.655 -0.6608 -0.6064 -0.7048
15511TIP3   OH267947   6.154   0.749  16.317 -0.0832  0.3476 -0.1435
15511TIP3    H167948   6.149   0.699  16.236 -1.5113  0.4828 -0.1571
15511TIP3    H267949   6.151   0.841  16.289  2.8089  0.5537 -0.1422
15512TIP3   OH267950   4.417   5.739   0.622  0.1509  0.5288 -0.0053
15512TIP3    H167951   4.328   5.776   0.625  0.2790  0.8097  1.0472
15512TIP3    H267952   4.416   5.670   0.689  0.1463 -0.8832 -1.4132
15513TIP3   OH267953   6.654   6.628  13.481 -0.0762 -0.1436 -0.1499
15513TIP3    H167954   6.693   6.558  13.428  0.3555  0.8173 -1.1456
15513TIP3    H267955   6.622   6.584  13.560  1.0645 -1.2981 -0.3074
15514TIP3   OH267956   6.242   4.097   5.818 -0.1897 -0.7705 -0.5049
15514TIP3    H167957   6.244   4.003   5.798 -0.7964 -0.9708  0.3072
15514TIP3    H267958   6.200   4.102   5.904  0.0197  0.2356 -0.4518
15515TIP3   OH267959   3.083   3.932   3.817  0.1712 -0.1330 -0.4273
15515TIP3    H167960   3.118   3.842   3.817 -0.3154 -0.3270 -0.3809
15515TIP3    H267961   3.037   3.939   3.901  1.2975  0.5969  0.1499
15516TIP3   OH267962   0.831   5.064  16.138 -0.5212  0.8611  0.2742
15516TIP3    H167963   0.873   4.979  16.153 -2.1018 -0.1254 -0.5821
15516TIP3    H267964   0.816   5.099  16.226  1.1970  0.8269  0.6149
15517TIP3   OH267965   3.943   0.784  12.639 -0.0315 -0.1847  0.1146
15517TIP3    H167966   3.923   0.731  12.717  0.4479 -0.0019  0.3686
15517TIP3    H267967   3.878   0.853  12.639  0.5202  0.3521  0.8786
15518TIP3   OH267968   4.166   2.768   1.589 -0.6521 -0.1457 -0.2932
15518TIP3    H167969   4.105   2.839   1.609 -0.5722  0.0796 -0.8290
15518TIP3    H267970   4.111   2.691   1.575 -0.9119  0.2785 -1.7940
15519TIP3   OH267971   6.116   1.177  11.994 -0.4265 -0.4105  0.6354
15519TIP3    H167972   6.183   1.113  11.969 -1.3639 -1.2709  0.2459
15519TIP3    H267973   6.034   1.129  11.988 -0.8994 -0.2346  3.9107
15520TIP3   OH267974   2.997   1.726   1.469 -0.3550  0.4344  0.3286
15520TIP3    H167975   2.995   1.772   1.385  0.1804 -0.3893 -0.1461
15520TIP3    H267976   2.917   1.673   1.468  0.2547 -0.5104 -0.2195
15521TIP3   OH267977   6.327   5.006  12.319 -0.0731  0.0163 -0.2253
15521TIP3    H167978   6.265   5.014  12.246  0.1366  1.0673 -0.3101
15521TIP3    H267979   6.300   5.074  12.380 -0.5482 -1.1702  0.9296
15522TIP3   OH267980   0.534   4.816  16.003  0.1483  1.0949  0.0847
15522TIP3    H167981   0.481   4.875  16.056 -1.0234 -0.3340  0.5654
15522TIP3    H267982   0.536   4.734  16.052  2.0688  0.8150 -0.3706
15523TIP3   OH267983   2.030   5.299  12.364  0.1710  0.4752 -0.0704
15523TIP3    H167984   2.118   5.274  12.393 -0.4094 -0.5455  0.9106
15523TIP3    H267985   2.020   5.258  12.279  0.1039 -0.7218  0.4881
15524TIP3   OH267986   2.241   3.721   3.204  0.3742  0.2600  0.3418
15524TIP3    H167987   2.180   3.648   3.198 -0.3858  0.9936 -1.4454
15524TIP3    H267988   2.193   3.797   3.171  2.2850  0.8030 -1.4374
15525TIP3   OH267989   6.242   0.019   3.187 -0.1464  0.4460 -0.2976
15525TIP3    H167990   6.203   0.049   3.105 -0.0821  0.7756 -0.2085
15525TIP3    H267991   6.291   0.094   3.220  1.6607 -0.3454 -1.0666
15526TIP3   OH267992   1.996   0.849  14.369 -0.3961  0.1256  0.0435
15526TIP3    H167993   2.048   0.928  14.359 -0.4187 -0.0689 -2.1941
15526TIP3    H267994   2.057   0.777  14.350 -0.8796 -0.2486 -0.1329
15527TIP3   OH267995   6.594   5.208   3.622  0.1094  0.7995 -0.2846
15527TIP3    H167996   6.531   5.229   3.553 -0.3995  1.9063  0.4957
15527TIP3    H267997   6.642   5.289   3.637 -1.1599  1.2180  2.0405
15528TIP3   OH267998   6.382   2.175  12.581  0.3007 -0.0006 -0.3304
15528TIP3    H167999   6.451   2.220  12.630 -0.5978 -0.5129  1.5079
15528TIP3    H268000   6.408   2.083  12.581  0.1260 -0.0522 -0.5354
15529TIP3   OH268001   0.232   1.836   3.748  0.3845 -0.8693 -0.2737
15529TIP3    H168002   0.196   1.786   3.675  1.1802  0.1209 -1.3894
15529TIP3    H268003   0.276   1.911   3.707 -1.5958  1.3397  1.3353
15530TIP3   OH268004   5.781   6.498  13.837 -0.0304  0.1830 -0.5039
15530TIP3    H168005   5.742   6.571  13.789  0.2822 -0.2194 -1.3821
15530TIP3    H268006   5.875   6.518  13.839 -0.1724  0.8431  1.0763
15531TIP3   OH268007   0.115   1.689   3.548  0.3352 -0.3641  0.1876
15531TIP3    H168008   0.023   1.717   3.546  1.2172  2.7828 -0.5611
15531TIP3    H268009   0.135   1.666   3.458 -0.3614 -3.8581  0.7705
15532TIP3   OH268010   3.542   4.232  16.052  0.2978  0.0437  0.2590
15532TIP3    H168011   3.556   4.167  15.983  1.9198  1.0679 -0.4383
15532TIP3    H268012   3.553   4.183  16.134  1.0945 -0.6685 -0.2541
15533TIP3   OH268013   1.743   4.997  14.584  0.1109 -0.1775  0.9982
15533TIP3    H168014   1.702   4.950  14.657  0.7214  1.8357  2.7287
15533TIP3    H268015   1.816   5.044  14.624 -0.0298  1.6745 -0.7607
15534TIP3   OH268016   0.276   1.236   4.124 -0.3595  0.1216 -0.1678
15534TIP3    H168017   0.187   1.225   4.090 -0.9809  1.1128  1.0229
15534TIP3    H268018   0.286   1.165   4.188 -0.5825  0.4219  0.2104
15535TIP3   OH268019   2.049   0.594   1.365  0.4297  0.5082  0.0661
15535TIP3    H168020   2.037   0.614   1.458 -0.2025  0.2686  0.0467
15535TIP3    H268021   2.038   0.499   1.361  1.2763  0.4143 -0.1386
15536TIP3   OH268022   4.208   2.694   3.434 -0.0913 -0.0819 -0.3992
15536TIP3    H168023   4.278   2.637   3.400 -0.3928  0.5346 -2.1257
15536TIP3    H268024   4.127   2.656   3.400 -0.5565 -0.2518  0.8288
15537TIP3   OH268025   4.295   3.479   2.909 -0.5282  0.3551  0.8169
15537TIP3    H168026   4.343   3.528   2.843 -1.4313 -2.0619 -1.8442
15537TIP3    H268027   4.211   3.524   2.917 -0.2245  0.9449  0.6820
15538TIP3   OH268028   4.777   5.973  16.518  0.6826  0.1511 -0.5078
15538TIP3    H168029   4.817   5.946  16.601 -2.4886  0.3819  1.2514
15538TIP3    H268030   4.748   5.892  16.478  0.0000  0.1930 -0.1190
15539TIP3   OH268031   1.049   1.749  11.003 -0.6044  0.2366  0.0520
15539TIP3    H168032   0.962   1.782  11.023 -0.6819 -0.2456  0.5351
15539TIP3    H268033   1.056   1.667  11.053 -1.1299 -1.5019 -2.5667
15540TIP3   OH268034   4.187   5.979   1.628  0.0324  0.3901  0.2435
15540TIP3    H168035   4.127   5.955   1.699 -0.0655  0.5404  0.2110
15540TIP3    H268036   4.226   6.062   1.657  0.4536  0.1403  0.4086
15541TIP3   OH268037   3.942   1.230   3.067 -0.3157 -0.4082  0.2088
15541TIP3    H168038   3.993   1.305   3.037 -0.4707 -0.1155  0.6596
15541TIP3    H268039   3.942   1.238   3.162 -1.8780  0.0745  0.2021
15542TIP3   OH268040   3.490   1.192   1.909  0.1973 -0.4446  0.3917
15542TIP3    H168041   3.395   1.204   1.908  0.1732 -0.6340 -0.3469
15542TIP3    H268042   3.521   1.248   1.837  0.7917  0.7147  1.5109
15543TIP3   OH268043   6.113   6.626   3.379 -0.1694  0.1789 -0.1585
15543TIP3    H168044   6.134   6.708   3.334  0.1347  0.3766  0.3289
15543TIP3    H268045   6.051   6.582   3.321  0.3437  0.3408 -0.8579
15544TIP3   OH268046   1.938   6.360  12.431  0.0515 -0.1886  0.7185
15544TIP3    H168047   1.847   6.331  12.426 -0.4587  0.9955  2.3739
15544TIP3    H268048   1.950   6.388  12.522  2.6555 -2.1129  1.1020
15545TIP3   OH268049   6.397   0.582  14.614 -0.1875 -0.0433  0.2631
15545TIP3    H168050   6.385   0.566  14.707 -0.2185 -1.1268  0.0815
15545TIP3    H268051   6.324   0.537  14.571 -1.3294  2.1143 -0.1846
15546TIP3   OH268052   1.371   1.370   6.501 -0.0746 -0.1663 -0.0295
15546TIP3    H168053   1.427   1.445   6.480  1.1198 -0.7618  0.9502
15546TIP3    H268054   1.412   1.329   6.576 -1.7508 -0.7404  0.6165
15547TIP3   OH268055   6.442   2.388  12.969  0.0037  0.4818 -0.2942
15547TIP3    H168056   6.425   2.450  12.898  0.6580  0.2639 -0.6467
15547TIP3    H268057   6.355   2.356  12.994 -0.5432  2.8018  1.0646
15548TIP3   OH268058   5.667   0.775   0.410 -0.3741 -0.2359 -0.1595
15548TIP3    H168059   5.664   0.689   0.452 -1.0741 -0.7002 -1.1149
15548TIP3    H268060   5.680   0.837   0.482 -0.1072 -1.1220  0.5634
15549TIP3   OH268061   6.367   0.334  12.738 -0.1373 -0.1027  0.1495
15549TIP3    H168062   6.378   0.240  12.753  0.1191  0.0449  0.9534
15549TIP3    H268063   6.413   0.352  12.656 -3.8328 -1.4401 -2.4940
15550TIP3   OH268064   3.514   1.764   4.266  0.0692  0.4938 -0.0869
15550TIP3    H168065   3.422   1.792   4.259 -0.0124  0.9905  2.2052
15550TIP3    H268066   3.556   1.801   4.188 -2.3984 -3.3822 -3.6811
15551TIP3   OH268067   4.361   6.196   4.558  0.7009  0.1156  0.7266
15551TIP3    H168068   4.350   6.111   4.517  1.0606  1.0975 -1.5835
15551TIP3    H268069   4.285   6.247   4.530  1.7482  1.2969 -0.1401
15552TIP3   OH268070   1.884   6.301   0.226 -0.5130 -0.6560  0.0784
15552TIP3    H168071   1.961   6.353   0.203 -0.3792 -0.6256  0.5830
15552TIP3    H268072   1.854   6.264   0.143 -0.6645  0.3008 -0.3119
15553TIP3   OH268073   0.364   3.051  12.541  0.1229  0.4431 -0.3380
15553TIP3    H168074   0.354   2.956  12.549  3.2460  0.1088  0.7211
15553TIP3    H268075   0.341   3.085  12.627  1.0200  0.4204 -0.0875
15554TIP3   OH268076   2.609   1.669   1.719  0.1680 -0.0847  0.3336
15554TIP3    H168077   2.515   1.654   1.713  0.1341  0.3266 -0.2328
15554TIP3    H268078   2.617   1.755   1.761  0.3217 -0.6669  1.5360
15555TIP3   OH268079   0.964   0.305  12.362 -0.2085 -0.6072 -0.4483
15555TIP3    H168080   0.969   0.240  12.432 -1.2653 -0.0462  0.1939
15555TIP3    H268081   0.875   0.340  12.370  0.7991  2.0390  0.2837
15556TIP3   OH268082   0.300   5.093  15.727  0.1562 -0.2602  0.1460
15556TIP3    H168083   0.376   5.137  15.689 -0.7185  0.8292 -0.4324
15556TIP3    H268084   0.322   5.000  15.724  0.6984 -0.1240 -1.8199
15557TIP3   OH268085   6.222   3.650   2.696 -0.6001  0.1001  0.3807
15557TIP3    H168086   6.290   3.633   2.631 -0.2315  2.0763  0.1799
15557TIP3    H268087   6.140   3.628   2.652 -0.4092  2.0271 -1.0659
15558TIP3   OH268088   4.642   1.067  15.697  0.3234 -0.0280 -0.4872
15558TIP3    H168089   4.660   1.041  15.787  1.0796  1.3466 -0.2103
15558TIP3    H268090   4.588   0.997  15.661 -1.3199  0.1558  1.4987
15559TIP3   OH268091   1.883   1.164  13.663 -0.2745  0.0132  0.1734
15559TIP3    H168092   1.820   1.123  13.723 -1.1573  1.4006  0.2461
15559TIP3    H268093   1.881   1.110  13.584 -1.1898 -0.2522  0.3738
15560TIP3   OH268094   1.626   5.410   4.855 -0.1596  0.3412 -0.1634
15560TIP3    H168095   1.575   5.418   4.774  1.2073  0.1690 -1.0780
15560TIP3    H268096   1.567   5.366   4.916 -1.1574  0.2858 -1.1275
15561TIP3   OH268097   1.558   3.576   2.985 -0.1037 -0.2998  0.2215
15561TIP3    H168098   1.603   3.645   3.033  0.1177  1.1347 -1.9008
15561TIP3    H268099   1.527   3.618   2.905 -2.5226 -1.9869  0.1485
15562TIP3   OH268100   5.317   2.646   0.462  0.3410 -0.3236  0.1944
15562TIP3    H168101   5.305   2.612   0.374  2.4540  0.8635 -0.6239
15562TIP3    H268102   5.391   2.706   0.455  0.2695  0.1756  2.6899
15563TIP3   OH268103   2.241   1.658   3.650 -0.0032  0.4077 -0.1045
15563TIP3    H168104   2.160   1.634   3.694 -0.4357 -1.1069 -1.6059
15563TIP3    H268105   2.272   1.577   3.610  1.6852  1.1849 -0.4860
15564TIP3   OH268106   1.033   5.022   4.205  0.3057 -0.2040 -0.3727
15564TIP3    H168107   0.968   4.972   4.156 -0.3957  2.1501 -2.0430
15564TIP3    H268108   1.015   5.114   4.182  1.4054  0.8780  2.6146
15565TIP3   OH268109   2.196   4.930  15.209  0.4768 -0.0755 -0.7295
15565TIP3    H168110   2.196   4.920  15.304  0.6638 -1.1235 -0.8325
15565TIP3    H268111   2.168   5.021  15.195 -2.2616 -0.6640  0.2416
15566TIP3   OH268112   1.480   3.221  15.913 -0.1122  0.1827  0.7783
15566TIP3    H168113   1.422   3.162  15.961 -1.0162 -0.2729 -0.7966
15566TIP3    H268114   1.568   3.199  15.944 -0.4473 -1.8548  0.3991
15567TIP3   OH268115   3.592   5.829   5.528 -0.2828  0.4581 -0.1928
15567TIP3    H168116   3.636   5.746   5.541 -0.2041  0.2778 -1.5471
15567TIP3    H268117   3.636   5.889   5.589  0.0101 -0.3422  0.4056
15568TIP3   OH268118   0.147   3.869  12.419 -0.4033  0.1311 -0.2484
15568TIP3    H168119   0.212   3.806  12.449 -1.3146 -0.2628  1.0099
15568TIP3    H268120   0.161   3.877  12.325 -1.0034 -2.8485 -0.6668
15569TIP3   OH268121   2.502   1.064  14.151  0.2423 -0.6715 -0.0301
15569TIP3    H168122   2.480   1.021  14.068  1.2397  1.6308 -1.5865
15569TIP3    H268123   2.536   1.150  14.125  1.1007 -0.0800  2.7672
15570TIP3   OH268124   6.457   5.550  16.809 -0.3808  0.5857  0.0848
15570TIP3    H168125   6.549   5.567  16.789 -0.3839 -0.8377 -1.3025
15570TIP3    H268126   6.458   5.479  16.873 -0.5243  1.4060  1.0379
15571TIP3   OH268127   4.978   0.730   4.955 -0.0215 -0.1344 -0.0181
15571TIP3    H168128   4.940   0.650   4.919 -2.2727  0.8880 -0.0420
15571TIP3    H268129   4.932   0.801   4.910  0.2367  1.1750  1.7014
15572TIP3   OH268130   6.435   2.057   5.020 -0.3604 -0.6715 -0.0446
15572TIP3    H168131   6.386   1.981   5.052 -0.9358 -0.9918 -1.6266
15572TIP3    H268132   6.411   2.065   4.928  1.2831  0.1944 -0.4358
15573TIP3   OH268133   0.337   2.618  12.930 -0.2093 -0.2241 -0.4027
15573TIP3    H168134   0.242   2.620  12.934 -0.2258  1.7843 -0.5155
15573TIP3    H268135   0.358   2.619  12.837 -0.0874 -0.4792 -0.3783
15574TIP3   OH268136   6.628   6.178   2.715  0.1499  0.2219 -0.1684
15574TIP3    H168137   6.613   6.170   2.621  0.3718  1.3726 -0.3148
15574TIP3    H268138   6.699   6.242   2.723  0.1797  0.0927  0.7798
15575TIP3   OH268139   0.276   3.440  14.185 -0.0371  0.3657 -0.7914
15575TIP3    H168140   0.195   3.405  14.221  1.1342  0.0860  1.7882
15575TIP3    H268141   0.345   3.390  14.229  1.5613  0.5116 -2.9896
15576TIP3   OH268142   4.995   5.856  11.392  0.5464  0.5169  0.1053
15576TIP3    H168143   5.053   5.784  11.417  0.5573 -0.2123 -1.8519
15576TIP3    H268144   4.910   5.833  11.428  1.0531  0.6958  1.4542
15577TIP3   OH268145   4.294   1.122  14.663 -0.1907 -0.2643  0.0661
15577TIP3    H168146   4.203   1.152  14.672 -0.8222 -1.8566 -0.5637
15577TIP3    H268147   4.288   1.027  14.671  1.0073 -0.6634 -2.7222
15578TIP3   OH268148   3.972   2.439  15.349 -0.1589  0.1172 -0.7360
15578TIP3    H168149   3.903   2.372  15.342  0.2584 -0.3470 -0.5132
15578TIP3    H268150   3.953   2.484  15.432 -0.0159 -0.2221 -0.5153
15579TIP3   OH268151   3.546   4.381  11.150  0.2557 -0.6435 -0.0506
15579TIP3    H168152   3.618   4.326  11.179  0.2891 -0.7066 -0.2479
15579TIP3    H268153   3.505   4.331  11.079  0.2695 -0.4270 -0.2117
15580TIP3   OH268154   3.143   1.208  12.290  0.0369  0.1948  0.2665
15580TIP3    H168155   3.083   1.134  12.297  0.1943 -0.2021 -1.9046
15580TIP3    H268156   3.226   1.169  12.262  0.5185  1.0374  0.4835
15581TIP3   OH268157   2.176   4.833  10.701 -0.1254  0.0246  0.1961
15581TIP3    H168158   2.195   4.845  10.608  0.9887  0.4531  0.4626
15581TIP3    H268159   2.255   4.792  10.736 -0.4259  0.1230  1.0019
15582TIP3   OH268160   2.687   5.151  14.542 -0.0175 -0.2138 -0.1614
15582TIP3    H168161   2.595   5.169  14.561  0.5012  0.6123  1.7627
15582TIP3    H268162   2.711   5.219  14.479 -0.7424 -0.5265 -0.7951
15583TIP3   OH268163   4.073   1.936   5.599 -0.5245  0.0371 -0.0037
15583TIP3    H168164   4.077   1.931   5.695  0.2970 -0.1662 -0.0379
15583TIP3    H268165   4.133   1.868   5.569  0.5459  1.2128 -0.6346
15584TIP3   OH268166   4.839   6.381   1.346 -0.0438  0.9188  0.5804
15584TIP3    H168167   4.753   6.352   1.374  0.1117  0.4013  0.5394
15584TIP3    H268168   4.828   6.405   1.254  0.5091 -2.1595 -0.3983
15585TIP3   OH268169   6.659   1.494  14.396 -0.4038 -0.0679  0.3091
15585TIP3    H168170   6.633   1.586  14.406  0.7879  0.5020 -1.3123
15585TIP3    H268171   6.741   1.487  14.446 -2.4181 -1.3564  3.7820
15586TIP3   OH268172   2.487   3.773   4.088 -0.5555 -0.6556 -0.7698
15586TIP3    H168173   2.542   3.715   4.035  1.3783  0.9194 -0.5903
15586TIP3    H268174   2.460   3.718   4.162 -0.4007 -1.8562 -1.5627
15587TIP3   OH268175   1.754   5.841   2.336 -0.1030  0.8309  0.0498
15587TIP3    H168176   1.744   5.770   2.399  3.0906  0.6338  0.4557
15587TIP3    H268177   1.732   5.801   2.251 -1.7616  0.3751  0.6577
15588TIP3   OH268178   6.621   1.342  10.705 -0.1812 -0.2960  0.0997
15588TIP3    H168179   6.565   1.356  10.781 -0.3402 -2.6286  0.4848
15588TIP3    H268180   6.599   1.254  10.675  0.3850  0.2927 -2.2453
15589TIP3   OH268181   0.929   5.752  11.510 -0.6962  0.0213  0.0509
15589TIP3    H168182   0.850   5.746  11.456 -1.3959 -0.4655  1.0943
15589TIP3    H268183   1.001   5.736  11.449 -1.4949 -1.2604 -0.6094
15590TIP3   OH268184   5.118   4.208   0.903  0.0436  0.5090 -0.2392
15590TIP3    H168185   5.053   4.163   0.849  1.5792 -1.4765 -0.5278
15590TIP3    H268186   5.078   4.212   0.990 -0.5076 -0.6041 -0.4250
15591TIP3   OH268187   1.833   0.267   5.231 -0.4354  0.1670 -0.5926
15591TIP3    H168188   1.876   0.184   5.253 -2.6382 -0.2905  2.6803
15591TIP3    H268189   1.758   0.241   5.177 -1.9572 -0.2961  1.6012
15592TIP3   OH268190   3.257   5.438  15.858  0.2368  0.3978 -0.5494
15592TIP3    H168191   3.179   5.387  15.877  0.3856  0.3983  0.0809
15592TIP3    H268192   3.227   5.529  15.854 -0.1085  0.2557 -2.1055
15593TIP3   OH268193   4.360   6.586   0.941 -0.1491 -0.2419 -0.4354
15593TIP3    H168194   4.292   6.603   1.007  0.6841 -0.3284  0.4702
15593TIP3    H268195   4.320   6.611   0.858 -0.4403  2.1338  0.3537
15594TIP3   OH268196   6.781   2.589  10.568 -0.2407 -0.4944 -0.6675
15594TIP3    H168197   6.768   2.499  10.599  0.0142 -0.0845  0.6774
15594TIP3    H268198   6.700   2.609  10.521 -1.0807 -0.8023  0.5959
15595TIP3   OH268199   1.796   4.760   1.150 -0.0857  0.5245 -0.2877
15595TIP3    H168200   1.795   4.699   1.224  0.6377 -1.2402 -1.6309
15595TIP3    H268201   1.711   4.748   1.108  0.3856 -0.3150 -1.0670
15596TIP3   OH268202   2.085   2.698  14.397 -0.1993 -0.5241 -0.0167
15596TIP3    H168203   2.075   2.741  14.482 -1.1980  0.6710 -0.7020
15596TIP3    H268204   1.996   2.672  14.373 -0.0349 -0.1984 -1.0181
15597TIP3   OH268205   2.163   1.727   6.685 -0.5036 -0.0515 -0.2408
15597TIP3    H168206   2.236   1.681   6.644 -1.0751 -1.7126  0.4928
15597TIP3    H268207   2.199   1.762   6.766 -0.2170  0.2091 -0.4803
15598TIP3   OH268208   5.510   6.040   5.269  0.3285 -0.0310 -0.6739
15598TIP3    H168209   5.592   6.009   5.231 -0.4593 -0.5251 -2.0577
15598TIP3    H268210   5.443   6.013   5.206 -0.8802  0.5121  0.3360
15599TIP3   OH268211   3.260   3.565  15.107 -0.2972 -0.2579 -1.0516
15599TIP3    H168212   3.333   3.505  15.124 -0.3362  0.0772  0.4202
15599TIP3    H268213   3.182   3.511  15.120 -0.3227 -0.1223 -0.6254
15600TIP3   OH268214   5.567   1.404   2.386  0.0365  0.2211  0.7747
15600TIP3    H168215   5.515   1.325   2.371 -1.2852  1.0828  0.6093
15600TIP3    H268216   5.516   1.455   2.450 -0.1935  1.8468 -0.6256
15601TIP3   OH268217   6.765   2.764   5.582 -0.6790  0.1899  0.0408
15601TIP3    H168218   6.856   2.792   5.594  0.3692 -2.3458 -1.1853
15601TIP3    H268219   6.750   2.701   5.652 -1.7975  1.1231  0.6771
15602TIP3   OH268220   3.545   5.294   1.629 -0.3033  0.1944  0.8919
15602TIP3    H168221   3.505   5.228   1.573  1.6995  0.1264 -0.5657
15602TIP3    H268222   3.492   5.294   1.708 -1.9817 -1.2018 -0.1638
15603TIP3   OH268223   3.833   4.844   5.607  0.1687  0.1292 -0.0788
15603TIP3    H168224   3.873   4.784   5.670 -4.0394 -1.8973  1.0481
15603TIP3    H268225   3.846   4.801   5.522  1.8276  0.4710 -0.0276
15604TIP3   OH268226   0.617   2.117  11.312  0.6263  0.7020 -0.0382
15604TIP3    H168227   0.615   2.201  11.358  2.2797  0.3929  0.6788
15604TIP3    H268228   0.691   2.125  11.251 -0.0298  0.2317 -0.9090
15605TIP3   OH268229   6.322   2.084  13.311  0.0548 -0.0097  0.0897
15605TIP3    H168230   6.312   2.007  13.366  0.1992  0.7883  1.2776
15605TIP3    H268231   6.233   2.120  13.303  0.1801  0.4324  0.6497
15606TIP3   OH268232   1.744   4.168   2.116  0.2668 -0.0719  0.3234
15606TIP3    H168233   1.766   4.132   2.202 -2.1841 -0.7642  0.7506
15606TIP3    H268234   1.824   4.210   2.086  1.2563  0.0166  2.8526
15607TIP3   OH268235   4.722   3.363  10.270 -0.3278 -0.0541 -0.5899
15607TIP3    H168236   4.642   3.360  10.217 -0.4147  2.4960 -0.7029
15607TIP3    H268237   4.787   3.316  10.217 -1.6028 -1.8645 -0.6552
15608TIP3   OH268238   5.107   6.553   3.968  0.0136 -0.0756 -0.6815
15608TIP3    H168239   5.065   6.598   4.041 -0.1763 -0.4586 -0.5552
15608TIP3    H268240   5.109   6.461   3.994  1.3537 -0.0150 -0.4658
15609TIP3   OH268241   5.092   1.754  12.044  0.6357 -0.2819  0.0221
15609TIP3    H168242   5.116   1.720  11.958 -0.0568  0.7119 -0.5834
15609TIP3    H268243   5.170   1.799  12.075  0.6153  0.0974 -0.4716
15610TIP3   OH268244   4.072   3.953  12.180  0.3493 -0.4348  0.2556
15610TIP3    H168245   4.013   3.878  12.195  0.1880 -0.2252  0.6883
15610TIP3    H268246   4.078   3.960  12.085 -0.4798 -0.3421  0.2003
15611TIP3   OH268247   3.808   1.761   2.437 -0.0568 -0.5974  0.4583
15611TIP3    H168248   3.742   1.753   2.368 -0.7059  1.0979  0.8468
15611TIP3    H268249   3.762   1.739   2.518 -0.1972  0.7354  0.7494
15612TIP3   OH268250   5.259   2.075   2.616  0.2339 -0.1458 -0.1072
15612TIP3    H168251   5.259   2.107   2.527  1.4645  1.2702  0.3624
15612TIP3    H268252   5.317   1.999   2.614  0.8463  0.3218 -0.3828
15613TIP3   OH268253   0.600   1.609   2.070  0.1314  0.2201 -0.0188
15613TIP3    H168254   0.589   1.535   2.130  0.3909 -1.5915 -2.0474
15613TIP3    H268255   0.694   1.617   2.059  0.0780 -0.4491 -1.2199
15614TIP3   OH268256   5.235   0.408  11.627  0.5753  0.0366 -0.4068
15614TIP3    H168257   5.243   0.326  11.579 -3.5231 -0.4505 -0.6051
15614TIP3    H268258   5.269   0.389  11.714  0.6418 -1.5525 -0.7506
15615TIP3   OH268259   3.735   3.561   4.790  0.2260  0.3072 -0.2483
15615TIP3    H168260   3.657   3.568   4.734  1.7568  1.3925 -2.3986
15615TIP3    H268261   3.791   3.497   4.745 -0.3224 -2.3697  2.5397
15616TIP3   OH268262   1.710   6.751  12.229  0.0821 -0.0830  0.3142
15616TIP3    H168263   1.740   6.748  12.320 -0.2977  1.5405  0.5270
15616TIP3    H268264   1.663   6.668  12.217  2.2579 -1.4611  0.7843
15617TIP3   OH268265   5.666   2.214   5.567  0.2442  0.2017  0.9065
15617TIP3    H168266   5.758   2.219   5.590  0.6255 -0.0761 -0.4724
15617TIP3    H268267   5.631   2.145   5.623  0.8230  0.4348  1.5674
15618TIP3   OH268268   5.805   6.109  11.535  0.1615  0.0392 -0.0623
15618TIP3    H168269   5.734   6.054  11.570 -0.6414  1.3346  0.4313
15618TIP3    H268270   5.874   6.104  11.601 -0.7397  1.2473  1.0201
15619TIP3   OH268271   1.623   2.649   5.691 -0.4619  0.1445  0.4929
15619TIP3    H168272   1.669   2.711   5.635  0.3306  0.0949  1.0756
15619TIP3    H268273   1.601   2.576   5.633 -0.4656  0.5034  0.0412
15620TIP3   OH268274   5.833   2.245   0.222  0.4658  0.3418  0.1662
15620TIP3    H168275   5.840   2.168   0.279  2.4848 -0.3100 -0.8907
15620TIP3    H268276   5.886   2.312   0.264  1.8384 -0.0928 -0.7899
15621TIP3   OH268277   2.846   6.583   2.909 -0.3843  0.0403 -0.0459
15621TIP3    H168278   2.812   6.547   2.991  1.8290 -0.8144  0.5612
15621TIP3    H268279   2.906   6.653   2.935  2.3297 -1.8954 -0.6991
15622TIP3   OH268280   0.221   0.276  14.019  0.4057  0.2963 -0.1906
15622TIP3    H168281   0.294   0.224  13.984  0.4733  1.1550 -1.3865
15622TIP3    H268282   0.154   0.212  14.042  1.5751 -0.5240  1.0546
15623TIP3   OH268283   5.195   3.317   1.564  0.1007 -0.1911 -0.0295
15623TIP3    H168284   5.288   3.293   1.568  0.4990  1.3119  1.6783
15623TIP3    H268285   5.151   3.242   1.524  1.8654 -1.5079  0.4055
15624TIP3   OH268286   1.519   3.947   0.607 -0.2250 -0.7208 -0.0922
15624TIP3    H168287   1.552   4.007   0.541  0.6286 -1.1212 -0.0384
15624TIP3    H268288   1.508   4.001   0.685 -0.3642 -0.4384 -0.3062
15625TIP3   OH268289   0.503   0.458  14.934  0.0982  0.1053 -0.0741
15625TIP3    H168290   0.489   0.521  14.863 -0.1362 -0.0313 -0.1513
15625TIP3    H268291   0.429   0.398  14.927 -0.2720  0.4644  0.6800
15626TIP3   OH268292   3.328   6.458   4.238  0.2802  0.3653 -0.0566
15626TIP3    H168293   3.380   6.394   4.190 -0.8952 -0.6577 -0.0196
15626TIP3    H268294   3.310   6.417   4.322 -0.1507  0.9022  0.1240
15627TIP3   OH268295   6.607   3.766  12.691 -0.3459  0.1764 -0.2912
15627TIP3    H168296   6.579   3.771  12.599 -0.5558  1.1840 -0.1814
15627TIP3    H268297   6.694   3.807  12.691  0.0716 -0.6902 -0.1967
15628TIP3   OH268298   1.034   1.871   4.780 -0.2067  0.1008 -0.1933
15628TIP3    H168299   0.976   1.900   4.710  2.8929  2.6359 -1.9852
15628TIP3    H268300   1.089   1.804   4.739 -0.0137 -0.2472  0.6105
15629TIP3   OH268301   5.764   4.588   0.017  0.5146 -0.0821 -0.0645
15629TIP3    H168302   5.792   4.568   0.106 -0.2211 -0.4510  0.0935
15629TIP3    H268303   5.682   4.539   0.006  0.6065 -0.0629 -0.9485
15630TIP3   OH268304   3.481   4.628   1.723  0.3676 -0.7849  0.3627
15630TIP3    H168305   3.551   4.678   1.764 -0.2783 -0.3897  1.0175
15630TIP3    H268306   3.461   4.675   1.642 -0.6135  0.3752  1.2454
15631TIP3   OH268307   1.020   4.113  15.157 -0.0268  0.6421 -0.0317
15631TIP3    H168308   1.100   4.160  15.134  0.1078 -0.1361 -1.2647
15631TIP3    H268309   0.971   4.174  15.212  1.7824  0.8153  1.4816
15632TIP3   OH268310   1.885   0.992   5.985 -0.0778  0.0550 -0.1199
15632TIP3    H168311   1.915   1.071   6.031  0.0128 -0.1904  0.2474
15632TIP3    H268312   1.862   1.023   5.897  1.7320  0.1691 -0.5881
15633TIP3   OH268313   3.667   5.552   1.918  0.5089 -0.0129 -0.3144
15633TIP3    H168314   3.670   5.499   1.839  0.8477 -0.3419 -0.0822
15633TIP3    H268315   3.752   5.539   1.959  0.0852 -0.3937  0.4638
15634TIP3   OH268316   4.932   4.748  13.670 -0.1113 -0.3071 -0.0154
15634TIP3    H168317   5.010   4.693  13.678 -0.5118 -0.6213  2.6276
15634TIP3    H268318   4.859   4.689  13.686 -0.8097  0.3015 -0.8453
15635TIP3   OH268319   3.211   2.505   4.740 -0.1058 -0.6914 -0.1152
15635TIP3    H168320   3.240   2.595   4.755  2.3522 -1.6304  1.2887
15635TIP3    H268321   3.258   2.453   4.805 -1.0818 -3.0819 -1.1888
15636TIP3   OH268322   4.710   3.415  11.052  0.4703  0.5544 -0.1548
15636TIP3    H168323   4.754   3.345  11.004  1.4201  1.1351 -0.1638
15636TIP3    H268324   4.618   3.406  11.029  0.5273 -0.8795  0.0872
15637TIP3   OH268325   1.967   3.808   5.128  0.3835  0.2765  0.0197
15637TIP3    H168326   1.961   3.862   5.049  0.0205 -0.2629 -0.3264
15637TIP3    H268327   1.879   3.809   5.165  0.4557  0.1924  0.1956
15638TIP3   OH268328   2.154   6.700   3.785 -0.2594  0.5104 -0.2439
15638TIP3    H168329   2.164   6.617   3.740  0.1221  1.1411 -1.3434
15638TIP3    H268330   2.088   6.747   3.735 -0.9955  0.6171  0.7768
15639TIP3   OH268331   3.072   0.158   2.243  0.1193  0.5408 -0.2370
15639TIP3    H168332   3.116   0.243   2.236 -0.9115  1.5903  3.5468
15639TIP3    H268333   2.979   0.178   2.227 -0.0925  0.0798  0.3749
15640TIP3   OH268334   6.165   3.653   3.505  0.1833 -1.1482 -0.1993
15640TIP3    H168335   6.102   3.719   3.535  1.7174 -0.0718  0.8166
15640TIP3    H268336   6.136   3.629   3.418 -0.9161  0.2565 -0.2504
15641TIP3   OH268337   6.076   2.527  12.861 -0.0192 -0.0537  0.2702
15641TIP3    H168338   6.098   2.608  12.815 -0.7843  0.1918  0.3211
15641TIP3    H268339   6.066   2.462  12.791 -2.2039  0.5490 -0.0611
15642TIP3   OH268340   5.176   1.859  10.674 -0.6630  0.3251 -0.2173
15642TIP3    H168341   5.158   1.788  10.613 -1.5905  1.2978 -1.1294
15642TIP3    H268342   5.199   1.815  10.756 -0.6364 -1.0103 -0.9112
15643TIP3   OH268343   6.295   3.942  11.761  0.0634  0.1856 -0.2045
15643TIP3    H168344   6.337   3.857  11.747  2.1860  1.0463  0.5176
15643TIP3    H268345   6.228   3.925  11.827 -0.5487 -1.1853 -1.1423
15644TIP3   OH268346   0.464   1.866   3.078 -0.4383 -0.0733  0.3673
15644TIP3    H168347   0.502   1.805   3.014 -0.7031  0.9207 -0.7787
15644TIP3    H268348   0.372   1.873   3.053 -0.5249  0.3987  0.8056
15645TIP3   OH268349   4.583   2.399  16.930  0.3718 -0.1480 -0.0992
15645TIP3    H168350   4.652   2.360  16.984  0.0042 -0.0221  0.4687
15645TIP3    H268351   4.533   2.453  16.991  0.6207  0.8875 -0.7897
15646TIP3   OH268352   4.926   1.082   2.151 -0.2927  0.1705 -0.3217
15646TIP3    H168353   4.866   1.076   2.225 -0.1956  0.2233 -0.2375
15646TIP3    H268354   5.013   1.091   2.191 -0.1072 -0.9984 -0.4321
15647TIP3   OH268355   5.462   2.144   2.948 -0.1943  0.0776 -0.1754
15647TIP3    H168356   5.481   2.223   2.999  0.8939 -0.2857  0.0168
15647TIP3    H268357   5.535   2.137   2.886  0.4743 -1.5085  0.7254
15648TIP3   OH268358   3.929   4.792   6.623  0.3046  0.1181 -0.4857
15648TIP3    H168359   3.885   4.875   6.641 -2.9691 -1.5498  0.0832
15648TIP3    H268360   3.858   4.727   6.625  2.3894 -2.4637 -2.7858
15649TIP3   OH268361   2.710   0.925   2.330 -0.4189  0.1903  0.1189
15649TIP3    H168362   2.684   0.833   2.331  1.4537 -0.3923  0.0593
15649TIP3    H268363   2.755   0.936   2.246 -0.0433  0.9812  0.4105
15650TIP3   OH268364   6.591   4.786   3.551 -0.4345  0.0550 -0.5441
15650TIP3    H168365   6.652   4.725   3.592  0.5189 -0.7459 -3.0127
15650TIP3    H268366   6.578   4.854   3.617  2.2432 -0.3354  0.5014
15651TIP3   OH268367   1.374   5.355  15.361  0.2659  0.1261  0.2382
15651TIP3    H168368   1.411   5.436  15.398  0.1821 -0.8968  2.7180
15651TIP3    H268369   1.298   5.336  15.417  0.7714 -2.0982  0.2252
15652TIP3   OH268370   6.088   4.429   4.762 -0.7679 -0.0214  0.1771
15652TIP3    H168371   6.001   4.452   4.796 -1.1164  0.1625 -0.7970
15652TIP3    H268372   6.116   4.354   4.816 -1.3958  0.1021  0.6927
15653TIP3   OH268373   1.140   2.837  13.125  0.5707  0.2111  0.4510
15653TIP3    H168374   1.137   2.929  13.150  0.9053  0.4029 -0.1876
15653TIP3    H268375   1.055   2.802  13.150  0.0311  0.9656 -0.2896
15654TIP3   OH268376   0.486   5.410   4.911 -0.2787  0.4638  0.6907
15654TIP3    H168377   0.512   5.340   4.970 -0.8675  0.5128  1.0135
15654TIP3    H268378   0.390   5.406   4.909 -0.3141  1.2089  0.6542
15655TIP3   OH268379   3.833   2.951  16.590  0.6126 -0.1384 -0.8750
15655TIP3    H168380   3.918   2.993  16.603  0.5423  0.1880 -1.4479
15655TIP3    H268381   3.770   3.011  16.629  0.4803  0.4622 -1.9682
15656TIP3   OH268382   2.002   4.189  10.641 -0.5732  0.4334  0.1150
15656TIP3    H168383   2.079   4.224  10.596  0.2802  1.3434  2.1393
15656TIP3    H268384   1.977   4.112  10.590  0.7231  1.0239 -1.4829
15657TIP3   OH268385   0.655   6.338  16.297 -0.0395  0.3183  0.2602
15657TIP3    H168386   0.599   6.352  16.221  0.6803  0.1926 -0.3149
15657TIP3    H268387   0.683   6.246  16.289 -0.9097 -0.0520  1.3406
15658TIP3   OH268388   6.320   5.994   0.962 -0.1134  0.2501  0.2787
15658TIP3    H168389   6.372   5.919   0.935  2.2312  1.2604  1.6200
15658TIP3    H268390   6.257   6.007   0.891  3.2237  0.5377 -2.9100
15659TIP3   OH268391   3.365   3.853   2.912 -0.3845  0.2698 -0.2133
15659TIP3    H168392   3.454   3.817   2.906  0.1292  1.1785  1.2561
15659TIP3    H268393   3.348   3.889   2.825  1.4512  1.7014 -0.0548
15660TIP3   OH268394   2.790   3.334   3.408  0.2889 -0.0964 -0.5898
15660TIP3    H168395   2.810   3.378   3.325 -1.5169  0.8310 -0.5740
15660TIP3    H268396   2.697   3.350   3.422  0.6146  0.1187  1.8073
15661TIP3   OH268397   4.211   6.682  10.476 -0.2660 -0.4112 -0.8012
15661TIP3    H168398   4.162   6.760  10.449  0.3289  1.0579  1.9361
15661TIP3    H268399   4.155   6.640  10.541  1.5576  0.8584  1.7886
15662TIP3   OH268400   6.430   6.255   0.661 -0.4836 -0.1996  0.0416
15662TIP3    H168401   6.436   6.277   0.568 -0.5043 -2.3240 -0.5308
15662TIP3    H268402   6.497   6.309   0.703  0.3724 -0.0842 -1.3927
15663TIP3   OH268403   6.137   5.691  15.302 -0.1184  0.0500 -0.3947
15663TIP3    H168404   6.076   5.755  15.265  1.3615  1.4850 -0.4687
15663TIP3    H268405   6.197   5.671  15.231  0.4361 -0.1231  0.1137
15664TIP3   OH268406   1.528   5.278   0.229 -0.1217  0.0754 -0.0596
15664TIP3    H168407   1.516   5.280   0.324 -2.1738 -1.6442 -0.2110
15664TIP3    H268408   1.536   5.185   0.208 -2.0752  0.2174 -1.7719
15665TIP3   OH268409   2.276   1.375   3.664  0.4173  0.7340 -0.1531
15665TIP3    H168410   2.322   1.306   3.617 -1.5085 -1.6894  1.2593
15665TIP3    H268411   2.274   1.344   3.755 -2.2069  1.6776  0.1819
15666TIP3   OH268412   2.185   3.536  13.410 -0.0124 -0.0682  0.0418
15666TIP3    H168413   2.219   3.486  13.337 -1.2753  1.2443 -1.5346
15666TIP3    H268414   2.105   3.490  13.436  0.3455 -0.4381  0.5162
15667TIP3   OH268415   5.434   5.900  15.734 -0.2952 -0.0985 -0.4363
15667TIP3    H168416   5.386   5.843  15.794 -0.3084  1.6531  1.3148
15667TIP3    H268417   5.501   5.941  15.788 -0.7998  2.1589 -1.4115
15668TIP3   OH268418   1.367   2.091  15.505 -0.5580 -0.1044 -0.2197
15668TIP3    H168419   1.305   2.162  15.491 -1.1768 -0.6364 -0.2288
15668TIP3    H268420   1.368   2.043  15.422 -0.5058 -0.3890 -0.0543
15669TIP3   OH268421   6.405   6.575  14.941 -0.1259 -0.0823  0.1982
15669TIP3    H168422   6.485   6.557  14.890 -1.8901 -1.5075 -2.3125
15669TIP3    H268423   6.386   6.492  14.985 -1.3152 -0.4425 -0.9384
15670TIP3   OH268424   1.524   5.359  13.013  0.2987  0.0910 -0.3337
15670TIP3    H168425   1.560   5.448  13.018  0.3494  0.1428 -1.4612
15670TIP3    H268426   1.580   5.314  12.950  2.7123 -1.9578  2.9166
15671TIP3   OH268427   3.655   6.759   0.816  0.8379  0.4675 -0.1891
15671TIP3    H168428   3.582   6.770   0.878  0.2111  0.4822 -0.9071
15671TIP3    H268429   3.703   6.684   0.849 -0.8879 -1.0650 -0.9840
15672TIP3   OH268430   2.547   5.658   5.534  0.1906  0.1586 -0.1300
15672TIP3    H168431   2.522   5.590   5.597  1.2347 -0.6770 -0.5756
15672TIP3    H268432   2.473   5.718   5.533 -0.0388 -0.0389  1.5738
15673TIP3   OH268433   4.033   4.142  16.823  0.1264 -0.1695  0.2498
15673TIP3    H168434   4.041   4.176  16.913  0.4479 -0.2819  0.2642
15673TIP3    H268435   4.106   4.182  16.777 -0.7224  0.8364 -0.2623
15674TIP3   OH268436   3.600   2.624   1.919  0.5307  0.5717 -0.0613
15674TIP3    H168437   3.626   2.685   1.988 -2.0609 -0.7809  2.3386
15674TIP3    H268438   3.628   2.538   1.952 -0.4033 -0.0724 -0.9061
15675TIP3   OH268439   1.984   1.542  15.367 -0.6052 -0.4754  0.6830
15675TIP3    H168440   2.056   1.591  15.327 -1.0499 -1.6257 -1.6828
15675TIP3    H268441   1.942   1.498  15.294 -2.1573 -1.8709  2.3419
15676TIP3   OH268442   4.810   2.523   2.105  0.2776  0.1243 -0.0323
15676TIP3    H168443   4.720   2.506   2.133 -0.3995 -0.8069 -2.5806
15676TIP3    H268444   4.811   2.616   2.083 -0.0389  0.1486  0.0521
15677TIP3   OH268445   6.275   2.185   0.099  0.2080 -0.1039  0.2739
15677TIP3    H168446   6.242   2.238   0.026 -1.5421 -2.4854 -0.8008
15677TIP3    H268447   6.352   2.141   0.065 -0.5813 -1.1793 -0.1612
15678TIP3   OH268448   6.529   6.404   4.287  0.2174  0.0910 -0.1538
15678TIP3    H168449   6.581   6.479   4.257 -1.7858  1.7906  0.3488
15678TIP3    H268450   6.451   6.444   4.326 -0.8543 -2.2859  0.2848
15679TIP3   OH268451   0.332   5.572  15.847 -0.0163  0.1580  0.2309
15679TIP3    H168452   0.356   5.514  15.919  1.3058 -0.2544 -0.5048
15679TIP3    H268453   0.322   5.513  15.771 -0.0382  0.7251 -0.2123
15680TIP3   OH268454   0.698   0.347  12.457 -0.7154 -0.3140 -0.2287
15680TIP3    H168455   0.619   0.398  12.438 -0.5814 -0.2949 -0.7392
15680TIP3    H268456   0.680   0.260  12.422 -0.9584 -0.6354  0.6793
15681TIP3   OH268457   0.907   5.986  13.589  0.1010  0.0904  0.1827
15681TIP3    H168458   0.958   6.030  13.657 -0.9037  1.2596  0.2121
15681TIP3    H268459   0.859   5.917  13.635  0.9847 -0.4719  0.2918
15682TIP3   OH268460   5.594   2.823  11.866  0.1742  0.0594 -0.1671
15682TIP3    H168461   5.551   2.740  11.843 -0.4693  0.3536 -0.0365
15682TIP3    H268462   5.603   2.820  11.961  1.0014 -0.2618 -0.2406
15683TIP3   OH268463   6.615   5.447  14.499 -0.5857  0.7371  0.2930
15683TIP3    H168464   6.526   5.460  14.532 -0.6434  1.3478 -0.0870
15683TIP3    H268465   6.661   5.402  14.570 -1.1358  0.6114  0.5755
15684TIP3   OH268466   4.721   1.449  11.112 -0.7682 -0.0526 -0.3226
15684TIP3    H168467   4.746   1.536  11.142 -1.1490  0.0118 -0.1874
15684TIP3    H268468   4.644   1.464  11.057 -0.6366 -0.2699 -0.5670
15685TIP3   OH268469   6.181   0.422   0.536 -0.8289  0.5594 -0.0729
15685TIP3    H168470   6.101   0.390   0.496 -0.6362  2.7791 -2.4675
15685TIP3    H268471   6.161   0.512   0.562  0.3500  0.5322  1.0271
15686TIP3   OH268472   3.664   3.308  14.270 -0.2464 -0.4809  0.5826
15686TIP3    H168473   3.715   3.389  14.284 -0.0809 -0.7052  1.3240
15686TIP3    H268474   3.620   3.322  14.187  0.3115  0.1030  0.3727
15687TIP3   OH268475   2.478   0.651  16.576  0.6000 -0.0733 -0.4059
15687TIP3    H168476   2.516   0.583  16.632  2.5828  0.8705 -0.5271
15687TIP3    H268477   2.415   0.696  16.632  1.7872  0.1820  0.7813
15688TIP3   OH268478   4.276   2.146  16.565  0.1284 -0.4076  0.4916
15688TIP3    H168479   4.357   2.197  16.572 -1.3035  2.3260 -1.0330
15688TIP3    H268480   4.285   2.097  16.483  0.1999  0.0216  0.2384
15689TIP3   OH268481   0.172   2.381  11.141  0.9432  0.9658  0.4047
15689TIP3    H168482   0.088   2.368  11.096  0.8338  0.3629  0.7655
15689TIP3    H268483   0.153   2.358  11.232  0.6436  4.0326  1.2206
15690TIP3   OH268484   1.154   2.765  14.109 -0.6550 -0.0861 -0.3070
15690TIP3    H168485   1.101   2.767  14.188  0.9144  1.8355  0.7977
15690TIP3    H268486   1.092   2.748  14.038 -2.7313  1.8420  0.9217
15691TIP3   OH268487   2.259   1.644  13.862  0.1694 -0.3530 -0.0311
15691TIP3    H168488   2.325   1.705  13.828  0.2331 -0.1846  0.3941
15691TIP3    H268489   2.245   1.582  13.790 -0.5292  0.6560 -0.7916
15692TIP3   OH268490   4.751   3.893   4.619 -0.0759 -0.2186  0.1876
15692TIP3    H168491   4.771   3.858   4.706 -0.1663  3.0576  1.6953
15692TIP3    H268492   4.656   3.904   4.618  0.0087  0.6459  0.1100
15693TIP3   OH268493   6.656   5.408  10.691  0.2686  0.3533  0.0436
15693TIP3    H168494   6.612   5.325  10.674  1.9789 -0.3688 -1.0890
15693TIP3    H268495   6.609   5.444  10.767  1.5286 -3.2371  2.8279
15694TIP3   OH268496   6.465   3.011   0.093 -0.4698  0.1360 -0.7417
15694TIP3    H168497   6.514   2.929   0.091  1.9445  1.4649 -1.2791
15694TIP3    H268498   6.395   2.999   0.029 -1.6164 -2.2360  0.8168
15695TIP3   OH268499   5.180   0.266  13.982 -0.1216 -0.8289 -0.4549
15695TIP3    H168500   5.158   0.294  13.893  0.4808 -0.3880 -0.4683
15695TIP3    H268501   5.107   0.208  14.007 -0.5817 -0.5106 -1.0194
15696TIP3   OH268502   4.284   0.105   5.844 -0.4263  0.4877 -0.2872
15696TIP3    H168503   4.234   0.024   5.838  0.1844  0.2126 -2.3528
15696TIP3    H268504   4.249   0.149   5.922 -0.3348 -1.9966  1.2388
15697TIP3   OH268505   0.151   3.626   3.820 -0.2621  0.1206 -0.5082
15697TIP3    H168506   0.225   3.655   3.874  0.2102 -1.2019 -0.4142
15697TIP3    H268507   0.130   3.703   3.767  2.4631  0.0016 -1.9436
15698TIP3   OH268508   3.543   5.057   5.937  0.3706  0.1792  0.0660
15698TIP3    H168509   3.519   4.982   5.993  1.0646  0.1888  0.3911
15698TIP3    H268510   3.554   5.130   5.998  0.2399  0.4108 -0.1874
15699TIP3   OH268511   6.542   3.254  11.825  0.4421  0.1924 -0.2587
15699TIP3    H168512   6.503   3.216  11.747  1.3096 -1.6075  0.1147
15699TIP3    H268513   6.563   3.178  11.880  0.6704  1.3506  1.3284
15700TIP3   OH268514   4.309   1.531   3.948 -0.6973  0.2619 -0.3365
15700TIP3    H168515   4.356   1.452   3.921 -2.4408 -0.5288 -1.1472
15700TIP3    H268516   4.217   1.513   3.928 -1.0743  2.7230 -1.1064
15701TIP3   OH268517   4.328   2.263   4.768 -0.1771  1.0555  1.0399
15701TIP3    H168518   4.263   2.209   4.723 -0.4205  1.9037  0.3329
15701TIP3    H268519   4.277   2.320   4.825  0.1004  0.3277  2.0403
15702TIP3   OH268520   6.359   0.030  12.720 -0.2067 -0.9021  0.1633
15702TIP3    H168521   6.297   0.052  12.790 -1.3720  0.8774 -1.3453
15702TIP3    H268522   6.445   0.031  12.762 -0.5186  3.1637  1.0467
15703TIP3   OH268523   0.255   6.400   5.217 -0.3424  0.1594  0.8965
15703TIP3    H168524   0.287   6.464   5.280  0.0336 -1.3640  2.3168
15703TIP3    H268525   0.214   6.332   5.271  0.9671 -1.7408 -0.4052
15704TIP3   OH268526   0.536   4.853   4.827  0.7954  0.3528 -0.2166
15704TIP3    H168527   0.585   4.935   4.824 -0.3829  1.0759 -0.4840
15704TIP3    H268528   0.465   4.865   4.765 -0.9171  0.1487  1.5932
15705TIP3   OH268529   4.938   0.157  16.135 -0.3826  0.5920 -0.2306
15705TIP3    H168530   4.969   0.067  16.126  0.4528  0.5666  2.2198
15705TIP3    H268531   4.845   0.153  16.113 -1.0268 -1.4703  2.4460
15706TIP3   OH268532   0.787   6.217   2.037 -0.7550  0.5096  0.0048
15706TIP3    H168533   0.692   6.212   2.028 -0.7295 -0.5667  0.2248
15706TIP3    H268534   0.802   6.224   2.131 -0.5687 -1.6870  0.2037
15707TIP3   OH268535   1.492   4.890   4.963  0.1758  0.0846  0.1741
15707TIP3    H168536   1.510   4.905   5.055  0.8705  3.3336 -0.3715
15707TIP3    H268537   1.558   4.941   4.916 -2.3510  1.6711 -2.0147
15708TIP3   OH268538   1.786   5.160  13.927 -0.0851 -0.4656 -0.3394
15708TIP3    H168539   1.751   5.094  13.987  0.7761  0.4183  1.1941
15708TIP3    H268540   1.868   5.121  13.895  0.7431  0.0519  1.0438
15709TIP3   OH268541   4.258   4.489   0.061 -0.1448  0.1386  0.2813
15709TIP3    H168542   4.321   4.517  -0.005 -0.3327 -0.3326 -0.1018
15709TIP3    H268543   4.284   4.535   0.140 -0.1454  1.0109 -0.2107
15710TIP3   OH268544   3.211   6.172   6.291  0.2337  0.3154 -0.3637
15710TIP3    H168545   3.260   6.117   6.352 -0.8436  1.1026  1.2423
15710TIP3    H268546   3.174   6.109   6.228  1.1314 -0.5270 -0.0846
15711TIP3   OH268547   6.357   1.167   2.698  0.0710 -0.1508 -0.6813
15711TIP3    H168548   6.382   1.114   2.622  1.5224  0.9050 -0.9823
15711TIP3    H268549   6.440   1.189   2.740 -0.7158 -2.0780  2.2356
15712TIP3   OH268550   5.242   2.756   4.490 -0.1939 -0.6621 -0.2311
15712TIP3    H168551   5.240   2.663   4.509  0.0654 -0.6706 -0.2464
15712TIP3    H268552   5.295   2.794   4.560  0.4617 -0.6451 -0.7315
15713TIP3   OH268553   6.392   3.499  14.635 -0.3564 -0.1188 -0.3584
15713TIP3    H168554   6.471   3.446  14.626 -1.0520 -1.1346 -0.7336
15713TIP3    H268555   6.366   3.518  14.545 -1.6613 -1.5628 -0.3316
15714TIP3   OH268556   6.697   1.995  15.480  0.4524  0.7796  0.2695
15714TIP3    H168557   6.722   1.915  15.434  0.1415  1.7627 -1.7315
15714TIP3    H268558   6.735   2.065  15.428 -1.1153  2.0246  0.7120
15715TIP3   OH268559   0.655   3.102   1.595  0.4472 -0.6254 -0.1873
15715TIP3    H168560   0.676   3.156   1.519 -1.4376  1.9378  0.9678
15715TIP3    H268561   0.739   3.065   1.622  1.4587 -0.0394 -2.3510
15716TIP3   OH268562   1.945   2.069   4.258 -0.3394 -0.2008  0.1112
15716TIP3    H168563   1.895   2.002   4.305 -1.7552  0.7412 -0.0104
15716TIP3    H268564   2.012   2.097   4.320 -1.1598 -0.1260  0.9799
15717TIP3   OH268565   2.290   2.544  11.752  0.0129  0.3497  0.4487
15717TIP3    H168566   2.218   2.548  11.689 -0.2080 -1.2537  0.5606
15717TIP3    H268567   2.300   2.451  11.772  3.1553  0.3016 -0.7533
15718TIP3   OH268568   5.997   3.279   4.449 -0.3023 -0.1879  0.1131
15718TIP3    H168569   5.969   3.356   4.400 -1.0834 -0.8972 -0.5931
15718TIP3    H268570   5.919   3.224   4.454  0.2512 -0.9546  0.5501
15719TIP3   OH268571   5.585   3.103  15.420 -0.0811 -0.9248 -0.2224
15719TIP3    H168572   5.498   3.141  15.413  0.9778  1.4274 -2.1987
15719TIP3    H268573   5.604   3.104  15.513 -1.1312  1.1709  0.0312
15720TIP3   OH268574   4.051   2.218   1.051 -0.0914 -0.6032  0.1516
15720TIP3    H168575   4.112   2.292   1.049  0.5657 -1.0561  1.7299
15720TIP3    H268576   3.976   2.250   1.101  0.0226 -0.8738  0.4998
15721TIP3   OH268577   3.011   5.973  17.090 -0.1916 -0.6416  0.4797
15721TIP3    H168578   3.097   6.015  17.087 -0.3673 -0.2394  0.8255
15721TIP3    H268579   2.949   6.045  17.078 -0.4709 -1.0364 -0.5812
15722TIP3   OH268580   4.024   6.214   5.144 -0.0609 -0.3661  0.2577
15722TIP3    H168581   3.991   6.136   5.098  0.8521 -0.6487  0.0627
15722TIP3    H268582   3.951   6.276   5.141  0.4098  0.2206 -2.9108
15723TIP3   OH268583   5.823   1.290  16.608 -0.3656 -0.9562 -0.0528
15723TIP3    H168584   5.794   1.235  16.681 -0.0369 -1.1646 -0.0782
15723TIP3    H268585   5.788   1.247  16.530 -0.6866 -0.7526 -0.0247
15724TIP3   OH268586   4.131   5.011  16.832  0.1255 -0.1261 -0.6439
15724TIP3    H168587   4.120   4.916  16.831 -0.8273 -0.0617  0.8235
15724TIP3    H268588   4.042   5.045  16.844  0.3813  0.9861 -1.7090
15725TIP3   OH268589   1.788   0.251  11.286  0.1670  0.5803  0.0210
15725TIP3    H168590   1.848   0.183  11.258 -2.0405 -1.4898 -0.0349
15725TIP3    H268591   1.789   0.316  11.215  0.5313 -0.6046 -1.0867
15726TIP3   OH268592   6.607   0.112  13.450 -0.6099 -0.5491 -0.6102
15726TIP3    H168593   6.623   0.018  13.454  0.8039 -0.3298 -0.6364
15726TIP3    H268594   6.677   0.146  13.394 -0.2901  0.6973  0.5120
15727TIP3   OH268595   1.961   2.344   4.517  0.0733  0.4260  0.1997
15727TIP3    H168596   2.028   2.368   4.581  0.2212  0.2733  0.1018
15727TIP3    H268597   1.922   2.427   4.491 -0.0129  0.4865  0.5162
15728TIP3   OH268598   2.533   1.882  12.361  0.1458  0.4594 -0.3599
15728TIP3    H168599   2.523   1.966  12.406  1.9304  0.8946 -0.7303
15728TIP3    H268600   2.584   1.901  12.283 -1.4067 -0.5996 -1.7230
15729TIP3   OH268601   0.373   4.068   1.765  0.4845 -0.1939 -0.0900
15729TIP3    H168602   0.377   4.126   1.842  1.2516 -0.8231  0.3558
15729TIP3    H268603   0.465   4.058   1.738  0.1304  1.2633 -2.0484
15730TIP3   OH268604   4.641   5.666   1.265  0.1978  0.1400 -0.3047
15730TIP3    H168605   4.633   5.571   1.270  2.5531 -0.0885  0.1288
15730TIP3    H268606   4.686   5.682   1.182  0.1763  0.8651 -0.1879
15731TIP3   OH268607   2.327   4.097  10.950 -0.0488 -0.0952 -0.1909
15731TIP3    H168608   2.312   4.138  11.035  0.5333 -1.1652  0.4558
15731TIP3    H268609   2.288   4.010  10.959  3.0278 -1.5572  0.2615
15732TIP3   OH268610   0.972   0.505   5.603  0.1018 -1.0456  0.0454
15732TIP3    H168611   0.971   0.455   5.521 -0.9212 -0.7207 -0.1473
15732TIP3    H268612   0.931   0.448   5.667 -4.0751  0.6102 -0.8628
15733TIP3   OH268613   3.356   5.730  11.152 -0.1732  0.7822  0.2109
15733TIP3    H168614   3.442   5.750  11.190  0.0687 -0.4671  0.3752
15733TIP3    H268615   3.315   5.672  11.216 -0.1856 -0.5060 -0.9341
15734TIP3   OH268616   6.474   0.510   3.657 -0.1362 -0.2053 -0.0144
15734TIP3    H168617   6.488   0.527   3.564  1.1367  2.3888  0.5534
15734TIP3    H268618   6.553   0.464   3.685 -0.2766 -0.5019 -0.1030
15735TIP3   OH268619   0.301   5.534   5.335 -0.4741  0.0635  0.5325
15735TIP3    H168620   0.286   5.487   5.418  1.1804  2.7522  2.5108
15735TIP3    H268621   0.349   5.470   5.281 -0.6459 -1.4367  2.0389
15736TIP3   OH268622   2.303   6.430  11.969 -0.5149 -0.4001 -0.0975
15736TIP3    H168623   2.210   6.451  11.983 -1.6358 -2.3561 -3.5132
15736TIP3    H268624   2.341   6.511  11.934 -1.4466 -0.1275 -0.5085
15737TIP3   OH268625   0.473   0.283   1.159  0.4980  0.2994  0.4215
15737TIP3    H168626   0.465   0.320   1.071 -2.3714  0.5630  0.6957
15737TIP3    H268627   0.523   0.203   1.146  2.4319  1.6514 -0.9837
15738TIP3   OH268628   5.809   3.419  12.954  0.4145 -0.2222 -0.4593
15738TIP3    H168629   5.739   3.368  12.912 -1.0328  0.8483  0.5534
15738TIP3    H268630   5.872   3.353  12.983 -0.8389 -1.3629 -0.2183
15739TIP3   OH268631   2.501   4.765  12.735  0.4020 -0.6468  0.3018
15739TIP3    H168632   2.513   4.713  12.656 -0.2934 -0.6681  0.1967
15739TIP3    H268633   2.550   4.846  12.719 -1.5794  0.3617 -1.1487
15740TIP3   OH268634   4.162   3.598  11.805 -0.4461 -0.1841  0.1167
15740TIP3    H168635   4.098   3.527  11.801 -0.7378  0.0734  0.2165
15740TIP3    H268636   4.236   3.560  11.853 -0.7527 -0.3095  0.5049
15741TIP3   OH268637   1.046   0.152   6.103  0.1551  0.3973 -0.1272
15741TIP3    H168638   1.056   0.074   6.158 -0.1552  0.5765  0.1887
15741TIP3    H268639   1.020   0.221   6.164  0.1099  0.6738 -0.4555
15742TIP3   OH268640   2.694   6.436   3.498  0.1076  0.0348 -0.3283
15742TIP3    H168641   2.642   6.445   3.578 -0.5264 -1.4216 -0.5491
15742TIP3    H268642   2.777   6.400   3.527  0.8990  1.9904 -0.0257
15743TIP3   OH268643   3.963   4.793   4.275  0.0739 -0.0122  0.0689
15743TIP3    H168644   3.987   4.712   4.231 -0.9994  0.1807 -0.9061
15743TIP3    H268645   3.935   4.852   4.204 -2.9574 -0.1250  1.0394
15744TIP3   OH268646   0.104   1.552  11.242  0.3035  0.3481  0.3102
15744TIP3    H168647   0.088   1.557  11.337  1.1015 -0.3255  0.4865
15744TIP3    H268648   0.016   1.545  11.204 -0.0064  0.1973  1.0321
15745TIP3   OH268649   4.322   0.270  12.818  0.0871  0.1750 -0.9956
15745TIP3    H168650   4.297   0.359  12.843 -0.3304 -0.7636  2.5017
15745TIP3    H268651   4.239   0.226  12.800 -0.2703 -0.6515  2.0685
15746TIP3   OH268652   0.037   1.460   0.906  0.1069  0.6364  0.2086
15746TIP3    H168653   0.132   1.453   0.894  0.0618  1.2119 -0.6089
15746TIP3    H268654   0.004   1.372   0.889  0.5486  0.2685  1.1868
15747TIP3   OH268655   0.343   2.419   1.348 -0.4863  0.1963  0.3001
15747TIP3    H168656   0.264   2.453   1.390  1.0344  1.5154  2.2412
15747TIP3    H268657   0.407   2.490   1.354  0.6323 -0.4996 -2.0435
15748TIP3   OH268658   3.565   5.090   3.087  0.7201 -0.4756  0.4915
15748TIP3    H168659   3.564   4.994   3.085  1.5062 -0.4964 -1.4071
15748TIP3    H268660   3.472   5.115   3.081  0.4319 -1.0812  1.9947
15749TIP3   OH268661   3.662   4.493   5.022  0.0610 -0.2178 -0.6954
15749TIP3    H168662   3.728   4.464   4.958 -1.7965  0.9288 -3.3398
15749TIP3    H268663   3.605   4.417   5.033  1.4383 -1.0489  1.2123
15750TIP3   OH268664   2.372   5.073  13.498  0.5705  0.6583  0.0208
15750TIP3    H168665   2.456   5.026  13.498 -0.4564 -1.2538  0.5654
15750TIP3    H268666   2.316   5.022  13.441 -1.2253 -0.0537  2.2617
15751TIP3   OH268667   3.453   4.853  12.578  0.2716 -0.1395  0.4121
15751TIP3    H168668   3.509   4.830  12.653  0.8821  1.4118  0.4777
15751TIP3    H268669   3.515   4.878  12.509 -0.2942  1.7123  0.5142
15752TIP3   OH268670   4.007   2.969  13.393  0.4085 -0.1197  0.6241
15752TIP3    H168671   3.968   3.037  13.447 -0.9006 -1.1323  1.0267
15752TIP3    H268672   3.968   2.887  13.427 -1.6631 -0.7088 -2.7424
15753TIP3   OH268673   3.294   5.431  12.866  0.2445 -0.2654 -0.2473
15753TIP3    H168674   3.238   5.391  12.933 -1.6262 -2.6480 -2.9402
15753TIP3    H268675   3.316   5.517  12.901 -0.3979 -1.4053  3.4428
15754TIP3   OH268676   2.319   5.759   3.717  0.3707 -0.3041  0.6032
15754TIP3    H168677   2.253   5.733   3.652  1.9631 -2.7784 -0.1598
15754TIP3    H268678   2.278   5.831   3.765 -2.8665 -1.6619  0.1322
15755TIP3   OH268679   4.264   2.055   5.094 -0.0137 -0.1060  0.2220
15755TIP3    H168680   4.222   2.120   5.038 -0.4456 -1.4953 -1.1254
15755TIP3    H268681   4.235   2.078   5.183 -1.6614  0.4260 -0.4201
15756TIP3   OH268682   1.936   1.072  17.149  0.4596  0.3356  0.6488
15756TIP3    H168683   1.854   1.121  17.139  0.4423  0.6458  2.0347
15756TIP3    H268684   1.998   1.117  17.093 -0.1018  0.6236  0.2480
15757TIP3   OH268685   1.566   5.329   1.711 -0.1012  1.1003 -0.4456
15757TIP3    H168686   1.544   5.287   1.794  0.7220  2.1149  0.3228
15757TIP3    H268687   1.544   5.422   1.725  1.4004  1.5445 -0.8220
15758TIP3   OH268688   4.270   1.459  12.856  0.0844 -0.7929  0.2604
15758TIP3    H168689   4.190   1.512  12.857  0.4062 -0.2910 -0.3539
15758TIP3    H268690   4.268   1.414  12.771  0.1123 -1.3093  0.5300
15759TIP3   OH268691   1.386   5.885  11.966  0.3112 -0.2742  0.0570
15759TIP3    H168692   1.394   5.878  12.061 -0.7100  0.2204  0.1940
15759TIP3    H268693   1.475   5.871  11.933  0.5642 -1.0752  1.0385
15760TIP3   OH268694   5.569   2.936  12.620 -0.1077 -0.0779 -0.4017
15760TIP3    H168695   5.514   2.878  12.672 -0.2207 -1.5413 -2.0516
15760TIP3    H268696   5.526   2.939  12.534  0.7307  1.2472 -0.8123
15761TIP3   OH268697   3.168   1.924  16.441 -0.2542 -0.1787 -0.3974
15761TIP3    H168698   3.144   1.930  16.349 -0.2250  3.1337 -0.2923
15761TIP3    H268699   3.085   1.920  16.488 -0.3688  1.1901 -0.4625
15762TIP3   OH268700   4.770   2.145  12.551 -0.1700  0.0294 -0.2859
15762TIP3    H168701   4.709   2.202  12.505  0.4479  0.5499 -0.4810
15762TIP3    H268702   4.845   2.136  12.491  0.2996  0.0750  0.2797
15763TIP3   OH268703   0.491   3.680   6.362 -0.0858  0.1655 -0.0646
15763TIP3    H168704   0.456   3.591   6.365  0.4232 -0.0786 -0.9313
15763TIP3    H268705   0.433   3.726   6.302 -1.4071  0.9267  1.7244
15764TIP3   OH268706   2.616   1.368  12.048  0.5552 -0.3835  0.0656
15764TIP3    H168707   2.536   1.409  12.079  0.5070 -0.3515 -0.1019
15764TIP3    H268708   2.637   1.302  12.114 -0.1611 -1.0934 -0.4078
15765TIP3   OH268709   2.873   5.125   3.609 -0.0454 -0.4124  0.7623
15765TIP3    H168710   2.920   5.206   3.631  0.3926 -0.9066  1.7482
15765TIP3    H268711   2.781   5.150   3.608  0.0950  0.1335  0.9289
15766TIP3   OH268712   3.858   3.362  15.299  0.2195 -0.2719  0.0378
15766TIP3    H168713   3.903   3.426  15.355  0.0264  0.7065 -0.8872
15766TIP3    H268714   3.768   3.395  15.293 -0.0428 -0.9736  0.0410
15767TIP3   OH268715   5.517   5.066  11.830  0.1620  0.1837 -0.3688
15767TIP3    H168716   5.519   5.008  11.906 -1.2734  1.8724  1.0705
15767TIP3    H268717   5.600   5.049  11.784 -0.1723 -2.8798 -0.0360
15768TIP3   OH268718   6.667   1.416  13.162  0.0110  0.7332 -0.9893
15768TIP3    H168719   6.627   1.459  13.087 -0.5649 -0.5082 -1.4229
15768TIP3    H268720   6.667   1.482  13.230  0.2146  1.7785 -1.9664
15769TIP3   OH268721   1.779   6.286  14.890 -0.0916 -0.2051 -0.1910
15769TIP3    H168722   1.778   6.223  14.962  0.2249  0.2734  0.2459
15769TIP3    H268723   1.845   6.351  14.916  0.8739 -0.6444 -1.4524
15770TIP3   OH268724   1.094   2.284   5.387  0.2405 -0.4861  0.0451
15770TIP3    H168725   1.067   2.356   5.443  1.0452 -1.1973  1.4241
15770TIP3    H268726   1.019   2.265   5.331  0.3067  1.9536 -0.9647
15771TIP3   OH268727   5.070   4.156  13.563  0.2131 -0.0957 -0.1808
15771TIP3    H168728   5.040   4.231  13.513 -0.3894 -0.3046 -0.1411
15771TIP3    H268729   5.034   4.080  13.516 -0.1658 -0.3043  0.4252
15772TIP3   OH268730   0.796   3.338   0.467  0.2984 -0.0500 -0.0623
15772TIP3    H168731   0.705   3.315   0.486  1.0370 -2.9450  0.4608
15772TIP3    H268732   0.821   3.281   0.395  1.0888  2.3649 -1.8355
15773TIP3   OH268733   0.868   5.245  13.357 -0.1993  0.0186 -0.1416
15773TIP3    H168734   0.815   5.253  13.437  0.3697 -0.5804  0.3068
15773TIP3    H268735   0.803   5.242  13.286 -0.7279  0.1788  0.3231
15774TIP3   OH268736   3.245   6.382   0.711  0.5351 -0.0884  0.8009
15774TIP3    H168737   3.253   6.416   0.622  1.0567  0.6686  1.1258
15774TIP3    H268738   3.273   6.455   0.767 -1.0431 -0.0834  1.6544
15775TIP3   OH268739   4.648   6.570   3.085 -0.2742  0.2228  0.0525
15775TIP3    H168740   4.554   6.560   3.101 -0.0387 -1.3948  0.6826
15775TIP3    H268741   4.681   6.480   3.081  1.0702  0.7427 -1.3418
15776TIP3   OH268742   2.451   0.074  11.040 -0.0405 -0.0144  0.0931
15776TIP3    H168743   2.534   0.081  10.993 -0.7239  0.4319 -1.0784
15776TIP3    H268744   2.414  -0.010  11.012 -1.4403  1.1842 -1.8998
15777TIP3   OH268745   5.481   2.243   6.074  0.0734 -0.0800  0.7258
15777TIP3    H168746   5.567   2.202   6.060 -0.8252 -1.5134 -1.0244
15777TIP3    H268747   5.435   2.182   6.132 -0.5681 -0.5894 -0.2834
15778TIP3   OH268748   2.707   5.007  15.995  0.0670 -0.4270  0.1674
15778TIP3    H168749   2.798   5.014  16.024  0.1718 -0.7627 -0.0807
15778TIP3    H268750   2.681   4.918  16.017 -1.1168  0.4752  2.8633
15779TIP3   OH268751   5.987   6.006   0.616 -0.3906 -0.3778 -0.0829
15779TIP3    H168752   6.025   5.980   0.532  0.4240  2.0216 -0.5195
15779TIP3    H268753   6.062   6.027   0.671 -0.9614  1.2161  0.1421
15780TIP3   OH268754   3.687   4.315   0.859  0.6223  0.1790 -0.3693
15780TIP3    H168755   3.652   4.252   0.795 -0.0827  0.3005 -0.1085
15780TIP3    H268756   3.781   4.293   0.864  0.6027 -0.1270 -1.1009
15781TIP3   OH268757   2.869   5.793   5.542 -0.6249  0.1854 -0.0050
15781TIP3    H168758   2.922   5.721   5.509  0.1114  0.5181  0.4251
15781TIP3    H268759   2.794   5.750   5.583 -1.7747 -0.2247 -2.3718
15782TIP3   OH268760   0.503   4.098   3.659  0.2099  0.2394 -0.2451
15782TIP3    H168761   0.581   4.057   3.697 -0.4313 -0.8796 -0.0850
15782TIP3    H268762   0.511   4.082   3.565 -1.1167 -2.3612 -0.0287
15783TIP3   OH268763   1.647   1.652   1.084 -0.2538  0.1490 -0.1963
15783TIP3    H168764   1.646   1.645   0.988  1.5166  1.6700 -0.3986
15783TIP3    H268765   1.673   1.565   1.114  0.8483  0.0875 -1.2370
15784TIP3   OH268766   2.449   6.088  10.266 -0.3308 -0.1327  0.5679
15784TIP3    H168767   2.429   6.056  10.178 -2.3833 -1.4154  1.4330
15784TIP3    H268768   2.465   6.009  10.318  0.7509  0.5951  1.4069
15785TIP3   OH268769   2.175   4.397  14.538 -0.2921  0.4121 -0.5322
15785TIP3    H168770   2.195   4.305  14.558  2.3082  0.6866 -1.5423
15785TIP3    H268771   2.193   4.444  14.619  0.0971  0.2465 -0.5214
15786TIP3   OH268772   4.648   5.195  15.141 -0.2765  0.2356 -0.1090
15786TIP3    H168773   4.587   5.248  15.193 -0.6430  1.3306 -1.5809
15786TIP3    H268774   4.725   5.251  15.133  1.0325 -1.1704  1.8073
15787TIP3   OH268775   0.539   5.910  16.709 -0.5780 -0.7730 -0.2585
15787TIP3    H168776   0.473   5.957  16.659 -1.5356  0.4720  2.0202
15787TIP3    H268777   0.503   5.905  16.798  2.0916 -0.6453  0.9176
15788TIP3   OH268778   3.318   5.810  16.912 -0.1581 -0.5560 -0.1338
15788TIP3    H168779   3.298   5.811  17.005  1.5919  0.4665  0.2632
15788TIP3    H268780   3.413   5.803  16.907 -0.2231 -0.8273 -1.8560
15789TIP3   OH268781   4.728   4.143  11.577  1.2007 -0.6142  0.5184
15789TIP3    H168782   4.655   4.096  11.619 -1.2758  2.0496 -0.5194
15789TIP3    H268783   4.781   4.073  11.539 -0.5172 -2.7214  1.6929
15790TIP3   OH268784   2.218   3.222  16.017  0.0889  0.5832 -0.1823
15790TIP3    H168785   2.231   3.134  16.052  0.2149 -0.3332 -2.3652
15790TIP3    H268786   2.284   3.231  15.949 -0.2398  2.1918 -0.3277
15791TIP3   OH268787   1.651   0.760  11.026 -0.6643  0.1738 -1.0310
15791TIP3    H168788   1.615   0.845  11.052  2.3400  1.8349 -1.7313
15791TIP3    H268789   1.640   0.757  10.931 -0.3335  0.0171 -1.0657
15792TIP3   OH268790   3.936   6.600  11.892 -0.4643 -0.7649  0.2760
15792TIP3    H168791   3.988   6.616  11.970  0.5788  1.3324 -0.7422
15792TIP3    H268792   3.854   6.647  11.907  0.2300  0.7056 -0.3281
15793TIP3   OH268793   4.650   5.190   0.513  0.6929  0.0497  0.3491
15793TIP3    H168794   4.727   5.133   0.516  0.6084 -0.0221  1.3363
15793TIP3    H268795   4.661   5.250   0.586 -0.0705  0.2028  0.3501
15794TIP3   OH268796   1.542   6.424  13.113  0.0298 -0.1166 -0.3319
15794TIP3    H168797   1.612   6.362  13.135 -0.6670 -0.8818 -0.2342
15794TIP3    H268798   1.554   6.440  13.019 -0.2373 -1.0019 -0.5321
15795TIP3   OH268799   4.959   2.072   4.328  0.1411 -0.0851  0.1012
15795TIP3    H168800   4.914   2.134   4.270 -0.9146  1.3650  2.3312
15795TIP3    H268801   4.891   2.011   4.357  0.1950  0.3656  1.2457
15796TIP3   OH268802   5.465   0.780   5.317 -0.3698 -0.2914  0.2088
15796TIP3    H168803   5.414   0.851   5.278 -1.2028 -0.5511  0.8036
15796TIP3    H268804   5.403   0.735   5.374  0.4018 -0.9216  0.5584
15797TIP3   OH268805   5.102   5.903  12.191  0.0783 -0.1941  0.2763
15797TIP3    H168806   5.152   5.930  12.114  0.1181 -0.1021  0.3340
15797TIP3    H268807   5.019   5.871  12.156  0.7869 -1.8614  0.0498
15798TIP3   OH268808   3.951   1.459  13.437  0.0580 -0.1563 -0.2633
15798TIP3    H168809   3.905   1.488  13.516 -1.9259  0.4329 -1.5556
15798TIP3    H268810   4.042   1.486  13.450 -0.6833  1.9966  0.8459
15799TIP3   OH268811   1.930   1.607  11.199  0.3317 -0.2091  0.0492
15799TIP3    H168812   1.968   1.694  11.211 -1.4093  0.8763 -1.6128
15799TIP3    H268813   1.861   1.602  11.265  0.0765 -0.0760 -0.2016
15800TIP3   OH268814   0.535   1.015  16.700  0.0450  0.1342  0.1712
15800TIP3    H168815   0.461   1.075  16.696 -0.1478  0.2210  2.9895
15800TIP3    H268816   0.592   1.042  16.628 -1.5315  1.5840 -0.6082
15801TIP3   OH268817   4.612   4.159  15.360 -0.3336  0.1692  0.0026
15801TIP3    H168818   4.552   4.086  15.345  2.0197 -2.2360  1.4716
15801TIP3    H268819   4.693   4.134  15.317  1.5029  0.4145  2.9713
15802TIP3   OH268820   2.834   2.430  14.693 -0.2968  0.1143  0.3963
15802TIP3    H168821   2.800   2.437  14.603  0.1998 -0.9617  0.1144
15802TIP3    H268822   2.864   2.518  14.714 -1.1414  0.5647 -0.1939
15803TIP3   OH268823   1.469   5.811   2.764  1.0754  0.2294 -0.1999
15803TIP3    H168824   1.376   5.800   2.783  1.5925  0.6991  3.1288
15803TIP3    H268825   1.496   5.728   2.725 -0.6345 -0.0022 -0.9988
15804TIP3   OH268826   1.728   4.076  16.345  0.5051  0.3843  0.3107
15804TIP3    H168827   1.637   4.085  16.373 -0.6149 -0.5286 -2.6795
15804TIP3    H268828   1.754   3.990  16.376  0.8096  1.0638  2.1123
15805TIP3   OH268829   6.754   0.059   3.687 -0.1119  0.7490  0.9198
15805TIP3    H168830   6.661   0.055   3.668 -0.1352  0.0526  1.1429
15805TIP3    H268831   6.784  -0.032   3.680  0.8082  1.1146 -0.4316
15806TIP3   OH268832   1.278   4.436  13.197 -0.1152  0.1712  0.5463
15806TIP3    H168833   1.362   4.435  13.151 -0.6415  1.1985 -0.4753
15806TIP3    H268834   1.286   4.507  13.260 -0.5123  0.8718 -0.1704
15807TIP3   OH268835   1.001   4.744   2.935 -0.2586  0.2264 -0.5058
15807TIP3    H168836   0.908   4.738   2.953 -0.0677  0.9892  0.8301
15807TIP3    H268837   1.043   4.724   3.018  0.7385  1.1163 -0.7758
15808TIP3   OH268838   5.583   2.724   3.836 -0.1318  0.1363  0.2107
15808TIP3    H168839   5.545   2.676   3.762 -0.1990 -1.4876  1.2503
15808TIP3    H268840   5.677   2.708   3.830  0.3105  2.6790 -1.3210
15809TIP3   OH268841   4.061   1.722  12.402  0.0219  0.3468  0.5413
15809TIP3    H168842   4.051   1.798  12.344 -1.3747 -0.5537 -0.4630
15809TIP3    H268843   4.011   1.652  12.359  1.5436 -1.2640  1.2570
15810TIP3   OH268844   4.290   1.842   4.875  0.1484  0.5719  0.2988
15810TIP3    H168845   4.265   1.757   4.912  0.2760 -0.5074 -1.9337
15810TIP3    H268846   4.294   1.901   4.950 -0.8755 -1.1710  1.7903
15811TIP3   OH268847   1.743   6.444   5.556 -0.4614 -0.5251  0.3876
15811TIP3    H168848   1.791   6.372   5.598  0.0753 -0.5373 -0.2254
15811TIP3    H268849   1.741   6.513   5.622  1.9274  0.1223 -0.1325
15812TIP3   OH268850   1.309   3.004  11.689 -0.1687  0.0732 -0.1459
15812TIP3    H168851   1.280   3.032  11.776 -2.0412 -1.6107 -0.1397
15812TIP3    H268852   1.403   3.020  11.689  0.0600 -0.6963  2.5407
15813TIP3   OH268853   1.143   3.286  15.159 -0.0310  0.2155 -0.1300
15813TIP3    H168854   1.146   3.349  15.232 -1.3613 -0.8596  0.9275
15813TIP3    H268855   1.141   3.340  15.080  2.0984  1.4145  0.5606
15814TIP3   OH268856   3.241   0.266   2.544 -0.3702 -0.2906 -0.4970
15814TIP3    H168857   3.183   0.192   2.564  0.6021 -0.8127  0.4877
15814TIP3    H268858   3.229   0.281   2.451 -2.6481  0.1140 -0.2191
15815TIP3   OH268859   1.792   4.782   0.366  0.5340 -0.0031 -0.3494
15815TIP3    H168860   1.796   4.867   0.409 -0.3028 -0.1964  0.1428
15815TIP3    H268861   1.699   4.761   0.363  0.7806 -1.3083  0.3550
15816TIP3   OH268862   5.886   6.753   2.265  0.5520 -1.1247  0.5069
15816TIP3    H168863   5.838   6.804   2.330 -0.4394  0.6616 -1.5055
15816TIP3    H268864   5.905   6.671   2.309 -1.7038 -0.7324  2.4337
15817TIP3   OH268865   0.107   3.880  15.693  0.5502 -0.0992 -0.0790
15817TIP3    H168866   0.158   3.811  15.649  2.7225 -0.4038  2.6449
15817TIP3    H268867   0.023   3.838  15.712 -0.2813 -0.1340 -3.1843
15818TIP3   OH268868   1.492   5.101  14.662  0.0917  0.3013  0.0205
15818TIP3    H168869   1.541   5.175  14.696  0.8107  0.5237 -1.4123
15818TIP3    H268870   1.517   5.027  14.718  0.4436  0.8479  0.5933
15819TIP3   OH268871   4.881   5.271  16.240  0.3778 -0.4269 -0.3581
15819TIP3    H168872   4.839   5.354  16.218 -0.7341 -1.0429 -0.6032
15819TIP3    H268873   4.814   5.205  16.223  0.9768 -1.3079  0.6178
15820TIP3   OH268874   5.200   2.117   0.245  0.0886  0.7014  0.1168
15820TIP3    H168875   5.264   2.047   0.258 -1.1308 -0.2646  1.2268
15820TIP3    H268876   5.238   2.193   0.291 -0.5013 -0.4807  2.7849
15821TIP3   OH268877   4.263   2.845   1.895 -0.0182 -0.2051 -0.2746
15821TIP3    H168878   4.191   2.880   1.843  0.0159  1.0453  0.4735
15821TIP3    H268879   4.317   2.797   1.833 -0.9443 -0.2764 -1.0351
15822TIP3   OH268880   5.442   1.784  12.055 -0.5528  0.3499  0.3363
15822TIP3    H168881   5.384   1.853  12.086  0.5587  1.8393 -0.7221
15822TIP3    H268882   5.530   1.819  12.069  0.0226 -0.5634 -0.8284
15823TIP3   OH268883   6.766   4.497   2.742 -0.4246 -0.4413 -0.2248
15823TIP3    H168884   6.742   4.460   2.657 -1.2463  1.6447 -0.9676
15823TIP3    H268885   6.705   4.570   2.754  0.5466  0.1249  1.5533
15824TIP3   OH268886   3.520   6.375   1.792  0.1672  0.1079  0.8933
15824TIP3    H168887   3.443   6.336   1.833 -1.0881  2.1175  0.5961
15824TIP3    H268888   3.519   6.466   1.823  1.3979  0.6406 -0.5390
15825TIP3   OH268889   4.784   6.583   3.367 -0.1375 -0.4073  0.2291
15825TIP3    H168890   4.773   6.658   3.425  1.8711 -3.1810  4.7174
15825TIP3    H268891   4.699   6.539   3.369  0.0871 -0.8276  1.7731
15826TIP3   OH268892   4.478   2.927   0.828 -0.3185 -0.2685  0.1816
15826TIP3    H168893   4.572   2.911   0.830 -0.4143 -0.8210  1.4756
15826TIP3    H268894   4.467   2.999   0.765  0.9377 -0.3140 -0.1150
15827TIP3   OH268895   5.487   1.514  14.378  0.1205  0.1365  0.3891
15827TIP3    H168896   5.410   1.510  14.434  0.7547  0.0127  1.2746
15827TIP3    H268897   5.460   1.471  14.297 -1.3051  1.7050 -0.0207
15828TIP3   OH268898   2.584   3.675  11.683 -0.0987 -0.5046  0.1196
15828TIP3    H168899   2.492   3.669  11.656  0.2864 -0.7118 -1.1876
15828TIP3    H268900   2.596   3.765  11.711 -0.5643 -0.3437 -0.2009
15829TIP3   OH268901   5.300   3.223   4.975  0.3865 -0.2619  0.1265
15829TIP3    H168902   5.346   3.140   4.987  0.8062  0.2652  2.6001
15829TIP3    H268903   5.209   3.198   4.963  0.6343 -1.1013 -0.0834
15830TIP3   OH268904   2.523   3.302  16.624 -0.1959 -0.2104 -0.2087
15830TIP3    H168905   2.590   3.235  16.640 -1.3847 -1.2439  0.6648
15830TIP3    H268906   2.476   3.310  16.707 -0.2868  1.5053 -0.3999
15831TIP3   OH268907   1.381   5.123  13.054 -0.4397 -0.3568 -0.2886
15831TIP3    H168908   1.417   5.205  13.020 -0.0110 -0.2028  0.5030
15831TIP3    H268909   1.323   5.092  12.986  0.7784 -0.3266 -1.3787
15832TIP3   OH268910   6.052   2.980   1.481  0.2216 -0.6515 -0.5778
15832TIP3    H168911   6.132   2.933   1.460  0.9821 -0.0172  0.8076
15832TIP3    H268912   6.031   2.955   1.571 -1.5479 -1.3578 -1.1346
15833TIP3   OH268913   1.652   1.309   2.816 -0.1723  0.2051 -0.0047
15833TIP3    H168914   1.596   1.364   2.762  0.7247  0.7705 -0.3750
15833TIP3    H268915   1.687   1.367   2.883  1.3876  0.2980 -0.8539
15834TIP3   OH268916   0.984   3.681  12.730 -0.3596 -0.2151  0.5064
15834TIP3    H168917   1.043   3.634  12.789  1.4686 -1.3156 -1.9857
15834TIP3    H268918   1.019   3.769  12.725  1.0244 -0.7886 -0.7395
15835TIP3   OH268919   3.478   5.610   1.261 -0.2433  0.7893 -0.1114
15835TIP3    H168920   3.543   5.548   1.295 -0.4169  1.1215  0.8542
15835TIP3    H268921   3.395   5.577   1.293 -1.0288 -1.3047 -3.6963
15836TIP3   OH268922   1.561   2.544   0.113 -0.1209  0.7635 -0.8095
15836TIP3    H168923   1.615   2.470   0.140 -2.2986 -0.4651  0.5031
15836TIP3    H268924   1.610   2.622   0.140  0.6028 -0.3180  1.1307
15837TIP3   OH268925   6.457   2.447   1.263  0.0608  0.2505  0.6097
15837TIP3    H168926   6.537   2.498   1.255  0.4499  0.1464  3.1249
15837TIP3    H268927   6.400   2.501   1.318 -1.8720  0.5524 -1.5237
15838TIP3   OH268928   0.467   1.950   0.235  0.0107  0.3152  0.2657
15838TIP3    H168929   0.470   2.040   0.202 -0.3865  0.1199 -0.3204
15838TIP3    H268930   0.422   1.901   0.166  0.3131 -0.3533  0.5394
15839TIP3   OH268931   1.223   2.192   2.635  0.1414  0.3681  0.1905
15839TIP3    H168932   1.243   2.117   2.580  0.2797  0.6038 -0.0806
15839TIP3    H268933   1.295   2.253   2.620  0.2908  0.3440  0.7931
15840TIP3   OH268934   0.238   1.826   1.272 -0.2287 -0.0785 -0.2175
15840TIP3    H168935   0.246   1.733   1.291  3.2642 -0.5252 -3.0031
15840TIP3    H268936   0.168   1.831   1.207 -0.5584 -0.7019  0.0762
15841TIP3   OH268937   0.810   3.419   1.797 -0.0541  0.1621  0.2367
15841TIP3    H168938   0.823   3.417   1.702  0.1273  0.6304  0.2542
15841TIP3    H268939   0.881   3.366   1.832 -0.2098 -0.1420  0.1067
15842TIP3   OH268940   4.550   4.292   0.641 -0.2180 -0.3121 -0.4274
15842TIP3    H168941   4.459   4.268   0.623 -0.4620  0.2441  0.0558
15842TIP3    H268942   4.589   4.301   0.554 -0.4767 -1.0850 -0.6342
15843TIP3   OH268943   6.041   3.468  11.905 -0.5268 -0.1481 -0.3972
15843TIP3    H168944   6.051   3.556  11.868  2.8599 -0.7840 -1.3360
15843TIP3    H268945   6.028   3.484  11.999  0.8920  1.4060 -0.4074
15844TIP3   OH268946   3.326   3.158  11.283  0.0676 -1.0060  0.4092
15844TIP3    H168947   3.274   3.121  11.212  0.6207 -1.6147  0.3153
15844TIP3    H268948   3.310   3.099  11.357  2.0347 -2.2925 -0.1178
15845TIP3   OH268949   1.001   1.647  11.807 -0.1092 -0.0139  0.3211
15845TIP3    H168950   0.913   1.618  11.829  0.2622  0.0751  2.0292
15845TIP3    H268951   1.010   1.731  11.850  1.2015 -0.5475  1.1447
15846TIP3   OH268952   2.821   5.451   2.810  0.2729  0.5988  0.5691
15846TIP3    H168953   2.821   5.493   2.896  0.9302 -0.2218  0.9900
15846TIP3    H268954   2.896   5.392   2.813 -0.0646  0.1091 -0.3533
15847TIP3   OH268955   3.467   1.412   0.304 -0.4109 -0.2307 -0.0944
15847TIP3    H168956   3.496   1.327   0.335 -0.3996 -1.2200 -2.5758
15847TIP3    H268957   3.389   1.431   0.357  0.8521 -0.6596  2.0367
15848TIP3   OH268958   3.179   4.730   1.467 -0.1175 -0.8683 -0.2261
15848TIP3    H168959   3.179   4.724   1.563 -1.5353 -1.4257 -0.2533
15848TIP3    H268960   3.197   4.641   1.437  1.0553 -0.5643 -0.5060
15849TIP3   OH268961   0.054   3.846  13.736  0.0442 -0.4835 -0.2702
15849TIP3    H168962   0.047   3.903  13.660 -1.3605  0.2423  0.3570
15849TIP3    H268963   0.003   3.891  13.804  0.5389 -1.5335  0.8281
15850TIP3   OH268964   5.176   5.736  13.783 -0.1940  0.0810  0.7696
15850TIP3    H168965   5.119   5.728  13.707  0.3279 -1.0080  0.4632
15850TIP3    H268966   5.154   5.820  13.822 -2.1790 -0.4208  0.8050
15851TIP3   OH268967   5.634   0.930  12.766  0.3629 -0.2949  0.8207
15851TIP3    H168968   5.715   0.906  12.721 -0.7031 -0.2261 -1.2400
15851TIP3    H268969   5.662   0.953  12.855  3.3442  4.0564 -0.8778
15852TIP3   OH268970   3.317   5.224   2.994 -0.0940  0.2693  0.3759
15852TIP3    H168971   3.283   5.136   3.007  2.1386 -0.7584 -0.3391
15852TIP3    H268972   3.333   5.229   2.899  1.1509  0.9047  0.6051
15853TIP3   OH268973   2.017   1.938   1.065  0.0787  0.2316 -0.0049
15853TIP3    H168974   1.940   1.986   1.035  0.7179  0.6058 -1.1112
15853TIP3    H268975   2.044   1.985   1.144 -0.6666  0.2505  0.2505
15854TIP3   OH268976   4.539   6.233   4.126  0.1687 -0.3778 -0.0324
15854TIP3    H168977   4.631   6.252   4.145  0.0789 -0.2309  0.2546
15854TIP3    H268978   4.541   6.152   4.074  0.5073  0.0403 -0.6762
15855TIP3   OH268979   3.832   6.330   2.691 -0.0935 -0.6761 -0.0223
15855TIP3    H168980   3.757   6.358   2.743  0.2187  0.6044 -0.2186
15855TIP3    H268981   3.875   6.412   2.665  2.1742 -1.3830  1.2298
15856TIP3   OH268982   0.649   4.711   5.916  0.1306  0.3604 -0.0430
15856TIP3    H168983   0.584   4.753   5.860  0.8501  0.2720 -0.9575
15856TIP3    H268984   0.638   4.753   6.001 -0.9784  0.4911 -0.2394
15857TIP3   OH268985   5.670   6.257   2.548 -0.7955  0.9411  0.1991
15857TIP3    H168986   5.599   6.302   2.595 -1.4986 -0.5954  0.6787
15857TIP3    H268987   5.695   6.185   2.606  0.3044  0.7152 -0.5342
15858TIP3   OH268988   5.079   5.381   6.437  0.5398  0.1207 -0.1450
15858TIP3    H168989   5.110   5.450   6.379 -0.9772  1.9398  1.0997
15858TIP3    H268990   5.159   5.334   6.463  2.1747  3.5638  1.6687
15859TIP3   OH268991   5.198   6.281   2.389 -0.3560 -0.2721  0.7040
15859TIP3    H168992   5.247   6.199   2.389 -0.1460 -0.1661  1.7386
15859TIP3    H268993   5.197   6.308   2.481  1.3386  1.9341  0.1496
15860TIP3   OH268994   1.949   2.518  11.284  0.8383  0.2220 -0.1194
15860TIP3    H168995   1.856   2.507  11.267  0.6220  0.5546  0.7766
15860TIP3    H268996   1.991   2.513  11.198  0.1299 -1.2044 -0.3907
15861TIP3   OH268997   5.064   4.110  12.356  0.0916  0.3155  0.1279
15861TIP3    H168998   5.005   4.081  12.287 -0.4845 -2.2086  1.5826
15861TIP3    H268999   5.152   4.101  12.318 -0.2137 -1.1273 -0.2731
15862TIP3   OH269000   5.727   3.912   0.002  0.7507  0.1713  0.9035
15862TIP3    H169001   5.645   3.876  -0.031  1.3463  1.3266 -2.1793
15862TIP3    H269002   5.701   3.989   0.053 -0.1247  0.0723  0.6216
15863TIP3   OH269003   6.532   1.345  17.163  0.3127 -0.5580 -0.3193
15863TIP3    H169004   6.501   1.425  17.121  0.4773 -0.1364  0.3413
15863TIP3    H269005   6.471   1.277  17.133  0.5836 -0.3276 -1.4288
15864TIP3   OH269006   4.331   5.337  11.214 -0.0096  0.4115 -0.0071
15864TIP3    H169007   4.389   5.365  11.144  1.9039 -1.1241  0.8587
15864TIP3    H269008   4.258   5.294  11.169  0.1307  1.2838 -1.0982
15865TIP3   OH269009   1.577   1.770  11.544 -0.2286  0.1205 -0.0031
15865TIP3    H169010   1.599   1.771  11.637  0.3047  1.7754 -0.1228
15865TIP3    H269011   1.490   1.810  11.539 -1.1309 -1.7475 -0.0527
15866TIP3   OH269012   4.251   0.181  13.463  0.0644 -0.0877  0.2992
15866TIP3    H169013   4.341   0.215  13.457  0.3206 -0.8249 -0.2036
15866TIP3    H269014   4.253   0.122  13.539  0.4581 -1.3910 -0.6960
15867TIP3   OH269015   2.001   2.635  16.252 -0.6083 -0.2531  0.2382
15867TIP3    H169016   2.095   2.636  16.237 -0.3260  0.2851  1.8653
15867TIP3    H269017   1.990   2.672  16.339 -2.4880  1.8251 -0.7700
15868TIP3   OH269018   1.973   3.378  17.175  0.7344 -0.3931  0.1054
15868TIP3    H169019   1.972   3.299  17.229  0.1750 -0.5453 -0.1300
15868TIP3    H269020   2.052   3.425  17.203 -0.0639  0.0259  1.7962
15869TIP3   OH269021   3.363   1.963   3.886  0.2315  0.1834 -0.0508
15869TIP3    H169022   3.322   2.041   3.848  1.9321  0.8154 -0.6707
15869TIP3    H269023   3.441   1.948   3.833  2.2367  0.5678  2.5792
15870TIP3   OH269024   5.111   0.597  12.918 -0.3028 -0.8089 -0.3881
15870TIP3    H169025   5.146   0.681  12.889  0.3453 -0.8030  0.4013
15870TIP3    H269026   5.125   0.538  12.843  0.1757 -0.4694 -0.5690
15871TIP3   OH269027   2.813   2.074  14.454  0.1399 -0.3829 -0.3354
15871TIP3    H169028   2.734   2.127  14.446  0.6888  0.2224 -2.5796
15871TIP3    H269029   2.784   1.985  14.436 -0.0650 -0.1610 -1.1519
15872TIP3   OH269030   6.763   5.417   2.337  0.7578 -0.3036  0.1749
15872TIP3    H169031   6.833   5.466   2.296 -0.6408  1.3894 -0.3065
15872TIP3    H269032   6.754   5.456   2.424 -0.7775  0.7818 -0.4346
15873TIP3   OH269033   2.040   2.275   5.513  0.2900 -0.0395 -0.1245
15873TIP3    H169034   2.056   2.208   5.579 -1.9034 -0.7495 -0.2104
15873TIP3    H269035   1.975   2.333   5.553  0.4078  0.6717 -0.9349
15874TIP3   OH269036   5.216   6.653  16.646  0.1324 -0.0526 -0.1585
15874TIP3    H169037   5.181   6.631  16.732  0.2465 -0.6308 -0.2576
15874TIP3    H269038   5.309   6.631  16.652  0.0517 -0.5296 -0.5735
15875TIP3   OH269039   6.753   0.647   4.580  0.4106 -0.3064  0.6159
15875TIP3    H169040   6.669   0.624   4.541 -0.1311  0.2002  1.4415
15875TIP3    H269041   6.786   0.564   4.616 -1.7149  0.0955  3.9321
15876TIP3   OH269042   5.862   1.929  13.637 -0.0965  0.2159  0.0805
15876TIP3    H169043   5.865   1.839  13.604  0.1478 -0.9036  2.8222
15876TIP3    H269044   5.770   1.954  13.630 -0.4132 -0.7900  0.4957
15877TIP3   OH269045   6.443   5.187   4.514 -0.0207  0.2658 -0.1454
15877TIP3    H169046   6.353   5.175   4.545 -0.1319  0.9305 -0.1916
15877TIP3    H269047   6.435   5.193   4.419 -0.2850  2.9358 -0.0367
15878TIP3   OH269048   6.513   0.285  12.077 -0.4224  0.1542 -0.9695
15878TIP3    H169049   6.509   0.312  11.986 -1.4797  0.9581 -0.7075
15878TIP3    H269050   6.595   0.323  12.110 -0.1190 -0.0067 -1.5367
15879TIP3   OH269051   2.879   3.067   0.742 -0.3334 -0.1598  0.4269
15879TIP3    H169052   2.890   3.142   0.800 -1.3221  1.5948 -1.4985
15879TIP3    H269053   2.964   3.022   0.744  0.5157  1.3941  1.1465
15880TIP3   OH269054   1.330   4.109   2.204 -0.4038 -0.2495  0.4627
15880TIP3    H169055   1.386   4.063   2.266 -1.2777 -0.2102  1.3064
15880TIP3    H269056   1.388   4.135   2.133  0.7182  0.1472  1.5020
15881TIP3   OH269057   5.846   2.133  12.088 -0.3801  0.1218 -0.3220
15881TIP3    H169058   5.784   2.150  12.018 -0.2837 -0.4609 -0.5506
15881TIP3    H269059   5.895   2.056  12.060 -1.1916 -0.9081  0.9340
15882TIP3   OH269060   4.947   3.783  14.617  0.0123  0.1130 -0.8148
15882TIP3    H169061   5.016   3.815  14.675  0.2327  0.9630 -1.5146
15882TIP3    H269062   4.895   3.723  14.671  1.6323 -1.0063 -0.4258
15883TIP3   OH269063   2.460   2.358  17.129  0.1875  0.1160 -0.2287
15883TIP3    H169064   2.398   2.286  17.133  1.1508 -0.6832  1.3267
15883TIP3    H269065   2.408   2.433  17.098 -0.9026 -1.1260 -1.5211
15884TIP3   OH269066   4.585   6.234  14.474  0.2209 -0.2612  0.0206
15884TIP3    H169067   4.574   6.307  14.535  0.8737  0.0547 -0.2310
15884TIP3    H269068   4.658   6.260  14.418  0.2428 -0.9605 -0.2872
15885TIP3   OH269069   6.000   3.987   0.807  0.2964  0.5396 -0.0117
15885TIP3    H169070   5.949   3.911   0.780 -0.4738  1.4400 -1.1866
15885TIP3    H269071   6.087   3.972   0.769  0.6060 -0.4277  1.0029
15886TIP3   OH269072   1.753   1.629   0.388  1.0582 -0.1539 -0.0612
15886TIP3    H169073   1.788   1.589   0.308 -0.5877 -1.6082 -0.1035
15886TIP3    H269074   1.737   1.555   0.447 -0.9794  0.5065  0.2982
15887TIP3   OH269075   2.537   1.129  16.343  0.3251 -0.2878 -0.3894
15887TIP3    H169076   2.532   1.056  16.404  0.2950  0.2955  0.3208
15887TIP3    H269077   2.574   1.091  16.263  0.5124 -1.0318  0.0392
15888TIP3   OH269078   0.046   6.623   5.256 -0.1190  0.5405 -0.2971
15888TIP3    H169079   0.061   6.695   5.317 -1.9951 -1.8294  3.2654
15888TIP3    H269080   0.132   6.584   5.242  0.3136  0.8403  1.3258
15889TIP3   OH269081   4.841   6.416   1.069 -0.3356  0.3206  0.2828
15889TIP3    H169082   4.866   6.424   0.977  1.0557  0.4482  0.6417
15889TIP3    H269083   4.747   6.432   1.070 -0.0741  2.2956 -0.8655
15890TIP3   OH269084   0.951   2.365  16.082 -0.0925  0.5949  0.1396
15890TIP3    H169085   0.856   2.353  16.083 -0.0300  0.0763  1.4725
15890TIP3    H269086   0.984   2.288  16.036 -0.3597  1.3260 -1.3356
15891TIP3   OH269087   2.071   5.073   0.612  0.4156 -0.1138  0.0793
15891TIP3    H169088   2.136   5.043   0.676 -0.4735 -0.9938  0.5993
15891TIP3    H269089   2.101   5.160   0.586  1.6056 -0.3641  0.5680
15892TIP3   OH269090   0.536   5.679   4.077  0.1327  0.5847 -0.1955
15892TIP3    H169091   0.622   5.657   4.042 -0.0315 -1.5160  0.5932
15892TIP3    H269092   0.487   5.713   4.002  1.6493  1.9785 -0.6203
15893TIP3   OH269093   3.195   1.298   0.904 -0.1652 -0.2312 -0.5224
15893TIP3    H169094   3.114   1.267   0.944  0.3438 -2.1294 -0.8748
15893TIP3    H269095   3.238   1.351   0.972 -1.5686  0.6188 -0.2703
15894TIP3   OH269096   3.675   3.522   0.855  0.6922 -1.0155 -0.2591
15894TIP3    H169097   3.637   3.445   0.897  2.3156 -1.7168  0.0155
15894TIP3    H269098   3.708   3.574   0.928 -0.1906 -0.1505 -0.4584
15895TIP3   OH269099   3.892   5.569   1.425 -0.2010  0.1938 -0.6735
15895TIP3    H169100   3.823   5.511   1.394 -1.6185  0.5632  1.6049
15895TIP3    H269101   3.956   5.511   1.465 -1.3898  0.0872  1.1785
15896TIP3   OH269102   4.034   2.288   1.627  0.0466 -0.3288  0.1994
15896TIP3    H169103   3.948   2.252   1.649 -0.2466 -0.0904 -0.5489
15896TIP3    H269104   4.016   2.357   1.562  0.7744 -0.0922  0.2390
15897TIP3   OH269105   1.720   5.788  17.185 -0.3922 -0.1081 -0.5816
15897TIP3    H169106   1.811   5.767  17.165 -0.3483 -0.9225  0.3987
15897TIP3    H269107   1.689   5.714  17.237 -1.1366  0.9011  0.4613
15898TIP3   OH269108   0.438   3.816   3.728 -0.3127  0.1629  0.1264
15898TIP3    H169109   0.383   3.891   3.749  0.4873  0.9544 -0.4966
15898TIP3    H269110   0.515   3.855   3.685 -0.2268 -1.0699 -0.8759
15899TIP3   OH269111   5.591   0.641  11.552 -0.5891  0.3678 -0.6332
15899TIP3    H169112   5.630   0.729  11.554  0.1871  0.0686  2.4359
15899TIP3    H269113   5.664   0.584  11.527 -0.7649  0.4516 -1.3528
15900TIP3   OH269114   2.804   5.412   1.528  0.0960 -0.9105  0.3797
15900TIP3    H169115   2.759   5.345   1.477  1.8013 -0.3404 -1.9889
15900TIP3    H269116   2.875   5.366   1.572 -0.3301 -1.0922  0.8919
15901TIP3   OH269117   4.049   3.581   0.656 -0.0346  0.4948  0.4741
15901TIP3    H169118   4.010   3.556   0.572 -0.2812  1.9137  0.1290
15901TIP3    H269119   4.097   3.503   0.685 -0.6213 -0.2851 -0.5807
15902TIP3   OH269120   3.644   4.138   1.676  0.0645  0.7092 -0.2757
15902TIP3    H169121   3.660   4.101   1.763  2.0093  2.1739  0.0795
15902TIP3    H269122   3.669   4.230   1.685  0.2667  0.9103 -2.3750
15903TIP3   OH269123   4.808   3.173  12.475 -0.0917 -0.8870 -0.2636
15903TIP3    H169124   4.896   3.134  12.469  1.4722  1.6370  3.0086
15903TIP3    H269125   4.768   3.131  12.551  0.0765  0.8926  0.8775
15904TIP3   OH269126   0.310   6.020  12.520  0.3656 -0.2098  0.6004
15904TIP3    H169127   0.387   5.962  12.520 -0.1194 -0.8622  0.8057
15904TIP3    H269128   0.245   5.972  12.467  0.1046  0.3457  0.4156
15905TIP3   OH269129   4.230   4.184  15.326 -0.3479 -0.3295 -0.0407
15905TIP3    H169130   4.239   4.169  15.232  1.1148 -0.5822  0.1078
15905TIP3    H269131   4.185   4.268  15.333 -1.0402 -0.6093 -0.9535
15906TIP3   OH269132   1.629   0.698  16.809  0.2369 -0.6725  0.2525
15906TIP3    H169133   1.573   0.723  16.736  0.0636 -0.7621  0.3523
15906TIP3    H269134   1.714   0.678  16.770  0.3892  0.1051  0.1743
15907TIP3   OH269135   4.592   4.142  15.727 -0.1050  0.0842 -0.2567
15907TIP3    H169136   4.545   4.197  15.665  0.1284  0.1373 -0.3867
15907TIP3    H269137   4.648   4.204  15.775  1.5671 -0.2580 -1.6647
15908TIP3   OH269138   2.480   4.860  12.121  0.0129  0.5267 -0.9462
15908TIP3    H169139   2.486   4.954  12.139 -0.3286 -0.0906  3.4523
15908TIP3    H269140   2.404   4.851  12.064 -2.9093  2.6899  2.2453
15909TIP3   OH269141   6.173   3.120   0.116  0.5739 -0.5506  0.2430
15909TIP3    H169142   6.242   3.174   0.155 -0.0159 -0.8454  1.7766
15909TIP3    H269143   6.097   3.178   0.111 -0.4214 -1.4273  3.0089
15910TIP3   OH269144   3.165   0.378  12.158 -0.0809  0.1503 -0.5621
15910TIP3    H169145   3.162   0.352  12.250  0.6188 -0.0890 -0.6007
15910TIP3    H269146   3.257   0.366  12.133 -0.3619 -0.2658 -1.4304
15911TIP3   OH269147   4.609   4.552   1.272  0.6869  0.1010 -0.5324
15911TIP3    H169148   4.525   4.588   1.243 -0.4785 -1.6336  0.4751
15911TIP3    H269149   4.593   4.458   1.282  2.0270  0.0450  2.0518
15912TIP3   OH269150   3.216   3.856  14.330  0.3526 -0.3782  0.4138
15912TIP3    H169151   3.180   3.850  14.418 -0.7430  1.3026  0.1342
15912TIP3    H269152   3.240   3.949  14.321 -1.2453 -0.1048 -1.6644
15913TIP3   OH269153   2.346   3.211  16.428 -0.2591 -0.1294  0.0638
15913TIP3    H169154   2.280   3.260  16.478 -1.3767  0.4242 -1.8420
15913TIP3    H269155   2.428   3.226  16.475 -0.9694  1.7175  0.8183
15914TIP3   OH269156   4.736   5.631  11.939  0.4443  0.1920 -0.2959
15914TIP3    H169157   4.714   5.589  12.022 -0.2248  0.9079 -0.1073
15914TIP3    H269158   4.776   5.714  11.964  2.2109 -0.5023 -0.6559
15915TIP3   OH269159   6.483   4.648   4.327 -0.1839 -0.0701  0.5127
15915TIP3    H169160   6.510   4.615   4.241  1.3684 -0.3470  1.0655
15915TIP3    H269161   6.554   4.706   4.353 -1.0110  0.6019  1.2856
15916TIP3   OH269162   2.299   3.826   4.531 -0.0298  0.5608  0.3591
15916TIP3    H169163   2.287   3.834   4.626 -1.6724  2.8896  0.0423
15916TIP3    H269164   2.210   3.812   4.497  0.4121  0.7382 -0.9087
15917TIP3   OH269165   1.554   5.873  16.812 -0.2083  0.1482  0.8830
15917TIP3    H169166   1.557   5.955  16.861 -0.9295  1.6062 -1.3714
15917TIP3    H269167   1.644   5.859  16.781  0.1890 -0.6335  2.2886
15918TIP3   OH269168   4.340   0.728  12.907 -0.4179 -0.1319  0.1378
15918TIP3    H169169   4.356   0.806  12.960 -1.3894 -0.3029  0.7004
15918TIP3    H269170   4.411   0.728  12.843 -0.2726  1.0848  0.2751
15919TIP3   OH269171   6.733   1.976  15.751 -0.3458 -0.4604 -0.5967
15919TIP3    H169172   6.828   1.963  15.762 -0.5145 -0.9547  0.4350
15919TIP3    H269173   6.720   1.976  15.657  0.5812 -1.2488 -0.7471
15920TIP3   OH269174   3.256   1.440  16.163  0.5634 -0.4047 -0.7780
15920TIP3    H169175   3.348   1.412  16.168  0.2251 -1.4897 -0.1866
15920TIP3    H269176   3.219   1.416  16.248  0.1254  1.5923 -0.3550
15921TIP3   OH269177   1.095   6.663  16.285  0.1697 -0.2985 -0.1906
15921TIP3    H169178   1.118   6.656  16.193  0.0289  0.5986 -0.3058
15921TIP3    H269179   1.075   6.756  16.298  3.1767  0.2549  1.4352
15922TIP3   OH269180   6.614   3.015  11.962 -0.5674 -0.2816  0.8310
15922TIP3    H169181   6.682   2.989  11.899  0.7073  2.1667  1.0666
15922TIP3    H269182   6.580   2.933  11.996  1.3160 -1.6300 -0.3579
15923TIP3   OH269183   2.963   2.908   4.427 -0.2401 -0.5398 -0.3135
15923TIP3    H169184   3.041   2.853   4.423  0.3080  0.2281 -0.2373
15923TIP3    H269185   2.890   2.846   4.417  0.3655 -1.2725 -0.2746
15924TIP3   OH269186   3.479   1.587   1.536 -0.0444  0.5157  0.0646
15924TIP3    H169187   3.495   1.592   1.441 -0.2690  0.3911  0.0211
15924TIP3    H269188   3.392   1.624   1.547  0.0152  0.6062  0.2354
15925TIP3   OH269189   2.929   1.040  16.565  0.3394 -0.4347  0.2531
15925TIP3    H169190   2.873   0.972  16.526 -1.4005  1.1702 -0.2331
15925TIP3    H269191   2.958   1.092  16.490  1.9982 -0.8656  0.5791
15926TIP3   OH269192   4.598   2.288  12.408  0.4643  0.0808 -0.1943
15926TIP3    H169193   4.536   2.359  12.396  0.1722  0.4791  2.8238
15926TIP3    H269194   4.545   2.208  12.405  0.3602  0.1782 -0.9590
15927TIP3   OH269195   1.838   0.056   0.402  0.5170  0.5272 -0.0044
15927TIP3    H169196   1.840   0.098   0.488  1.4260 -2.3200  1.5004
15927TIP3    H269197   1.748   0.026   0.392  0.3836  0.9576 -0.0960
15928TIP3   OH269198   0.545   4.549   0.559 -0.2496 -0.0222  0.0629
15928TIP3    H169199   0.484   4.481   0.586  0.4840  0.1530  2.3741
15928TIP3    H269200   0.497   4.631   0.573 -1.0287  0.0425 -2.4396
15929TIP3   OH269201   4.807   0.740   0.166 -0.0187  0.2023 -0.0819
15929TIP3    H169202   4.800   0.644   0.164 -0.3613  0.1670  1.3588
15929TIP3    H269203   4.820   0.765   0.075 -2.1804 -1.0426 -0.8075
15930TIP3   OH269204   4.767   4.903   3.892 -0.0755 -0.0029  0.8703
15930TIP3    H169205   4.814   4.927   3.812 -0.6724 -0.7730  0.2805
15930TIP3    H269206   4.718   4.825   3.868 -0.5416 -0.0282  1.8936
15931TIP3   OH269207   3.770   0.605   0.440  0.1466 -0.4952 -0.3127
15931TIP3    H169208   3.808   0.594   0.528 -1.3690  1.3749  0.6475
15931TIP3    H269209   3.762   0.516   0.407 -0.7371 -1.4091  2.1246
15932TIP3   OH269210   3.418   6.686   2.803  0.4153 -0.1861 -0.5318
15932TIP3    H169211   3.324   6.670   2.788  0.5374 -1.4810 -0.0312
15932TIP3    H269212   3.423   6.720   2.892  0.4333 -0.1645 -0.5410
15933TIP3   OH269213   2.165   1.240   0.789  0.1044 -0.4550 -0.3466
15933TIP3    H169214   2.110   1.290   0.851  2.2673 -0.1307  1.4351
15933TIP3    H269215   2.225   1.305   0.753  0.5007 -1.1128 -0.8823
15934TIP3   OH269216   5.114   0.072  17.005 -0.2736 -0.2512 -0.1387
15934TIP3    H169217   5.143  -0.010  16.966  0.5191 -0.2786  0.4920
15934TIP3    H269218   5.020   0.076  16.984 -0.1197 -0.8326 -1.0043
15935TIP3   OH269219   4.472   4.769   2.886 -0.4153 -0.1919 -0.6275
15935TIP3    H169220   4.432   4.790   2.970  2.4653  1.0587  0.5832
15935TIP3    H269221   4.466   4.849   2.835 -1.0344 -0.5646 -1.1570
15936TIP3   OH269222   5.244   1.833  16.474 -0.0597 -0.0688  0.2192
15936TIP3    H169223   5.286   1.902  16.526 -0.8533  1.0097 -0.5164
15936TIP3    H269224   5.151   1.844  16.492 -0.2254 -0.6646 -0.2736
15937TIP3   OH269225   0.532   1.823  13.685 -0.2108  0.6147  0.4302
15937TIP3    H169226   0.535   1.780  13.599 -1.1951 -0.2361  0.8136
15937TIP3    H269227   0.577   1.763  13.743 -1.2122  0.2965  0.8859
15938TIP3   OH269228   5.590   4.188   3.249  0.5992  0.4781  0.0589
15938TIP3    H169229   5.639   4.106   3.252  1.1032  0.7683 -0.1677
15938TIP3    H269230   5.539   4.188   3.330 -0.4062 -0.6672 -0.5430
15939TIP3   OH269231   4.894   0.032  11.071  0.0702  0.4895  0.6889
15939TIP3    H169232   4.949  -0.027  11.122  1.1945  0.7798 -0.1477
15939TIP3    H269233   4.939   0.116  11.074 -0.3313  0.7443 -0.0045
15940TIP3   OH269234   5.123   4.672   4.743 -0.0433  0.1454  0.5831
15940TIP3    H169235   5.169   4.668   4.826  0.6669  0.6017  0.2218
15940TIP3    H269236   5.091   4.762   4.737  0.3933  0.2735  0.1122
15941TIP3   OH269237   0.315   1.406  12.781 -0.6977  0.3461  0.0095
15941TIP3    H169238   0.267   1.367  12.854 -1.7250  1.7704  0.1365
15941TIP3    H269239   0.281   1.363  12.703 -1.9932  1.1214  0.1289
15942TIP3   OH269240   6.683   0.631   5.964 -0.1822 -0.2235  0.8542
15942TIP3    H169241   6.768   0.590   5.953  0.0028  0.2356  0.5265
15942TIP3    H269242   6.644   0.587   6.040 -0.4691 -1.7873 -0.1603
15943TIP3   OH269243   2.040   5.093  12.172  0.1835  0.0594  0.1852
15943TIP3    H169244   2.008   5.003  12.172  0.9773 -0.2591 -1.1610
15943TIP3    H269245   1.967   5.145  12.138 -2.2239  0.8401  5.4781
15944TIP3   OH269246   0.177   0.811  16.823  0.0352 -0.9478 -0.2717
15944TIP3    H169247   0.157   0.721  16.797  0.2052 -0.9180 -0.5016
15944TIP3    H269248   0.124   0.865  16.765  2.0970 -0.7957 -2.1594
15945TIP3   OH269249   2.260   0.844  12.507 -0.2660 -0.1237  0.1661
15945TIP3    H169250   2.234   0.788  12.581 -0.2866  2.5078  2.3027
15945TIP3    H269251   2.180   0.892  12.485 -0.2048 -0.7459 -1.5250
15946TIP3   OH269252   2.828   3.984   0.271  0.1402 -0.2409 -0.5157
15946TIP3    H169253   2.885   3.910   0.292  0.8310  0.0538 -1.3213
15946TIP3    H269254   2.742   3.957   0.303  0.8900 -0.2850  1.6426
15947TIP3   OH269255   4.106   5.507   2.475  0.1023  0.6607 -0.1566
15947TIP3    H169256   4.076   5.417   2.484 -0.4050  0.9292  1.1143
15947TIP3    H269257   4.202   5.500   2.473  0.0786  0.1182  0.3271
15948TIP3   OH269258   2.053   4.638   2.201  0.3067  0.1477  0.0763
15948TIP3    H169259   2.016   4.563   2.156  0.4866 -0.2607  0.5996
15948TIP3    H269260   2.139   4.650   2.161 -0.4876  1.3127 -1.3832
15949TIP3   OH269261   0.352   3.924  15.308  0.4611  0.7073 -0.2886
15949TIP3    H169262   0.429   3.892  15.354  0.2813 -0.8973 -1.0495
15949TIP3    H269263   0.387   3.964  15.228  0.5461  0.4097 -0.4016
15950TIP3   OH269264   0.071   0.152   0.778 -0.6916 -0.0366  0.7612
15950TIP3    H169265   0.027   0.161   0.862 -1.8457 -2.3572  0.4851
15950TIP3    H269266   0.005   0.117   0.719 -0.0461  2.0118 -1.3048
15951TIP3   OH269267   3.631   6.750  17.194 -0.3399 -0.1875  0.1502
15951TIP3    H169268   3.679   6.827  17.164 -0.5011  0.3124  1.1211
15951TIP3    H269269   3.673   6.727  17.277 -0.1737 -1.2618 -0.2203
15952TIP3   OH269270   2.821   1.490   2.524  0.5775  0.5848 -0.0353
15952TIP3    H169271   2.800   1.509   2.615  0.3479 -0.8867  0.2297
15952TIP3    H269272   2.878   1.562   2.497  1.0988  0.7343  1.4253
15953TIP3   OH269273   2.450   1.518   0.388  0.0473 -0.9550  0.0540
15953TIP3    H169274   2.372   1.477   0.425 -1.0476  1.7472  1.0101
15953TIP3    H269275   2.485   1.572   0.459 -0.3635  2.0342 -1.8084
15954TIP3   OH269276   6.081   6.436   2.748 -0.6373 -0.1618 -0.2811
15954TIP3    H169277   6.112   6.345   2.746  0.0815  0.0506 -2.8934
15954TIP3    H269278   6.086   6.461   2.840  0.3241 -2.3809  0.3466
15955TIP3   OH269279   1.689   2.659  10.935 -0.5712 -0.0515 -0.6605
15955TIP3    H169280   1.608   2.637  10.982  0.0829 -2.0985 -0.4002
15955TIP3    H269281   1.738   2.715  10.996 -0.9500 -0.3882 -0.0345
15956TIP3   OH269282   5.995   6.116  12.239 -0.5602  0.2076 -0.3972
15956TIP3    H169283   6.077   6.166  12.241 -0.0101 -0.5940  2.5675
15956TIP3    H269284   5.927   6.182  12.227  0.3528  1.2475 -0.0315
15957TIP3   OH269285   3.411   5.161   3.604 -0.5575 -0.2375  0.2279
15957TIP3    H169286   3.419   5.250   3.638  0.3572 -0.6773  1.2380
15957TIP3    H269287   3.331   5.162   3.552  1.1362  2.0583 -2.6175
15958TIP3   OH269288   2.004   5.688   4.674  0.3087 -0.4545 -0.3229
15958TIP3    H169289   2.068   5.660   4.739 -0.3001 -2.6978 -0.6134
15958TIP3    H269290   1.920   5.657   4.709 -0.0950 -1.1953 -1.8894
15959TIP3   OH269291   1.695   4.596  12.261  0.1874 -0.0361 -0.6774
15959TIP3    H169292   1.656   4.539  12.327  0.1902 -0.1652 -0.7854
15959TIP3    H269293   1.746   4.660  12.311  2.5077 -1.7876 -0.6106
15960TIP3   OH269294   4.121   2.627  14.044  0.2068  0.4346 -0.3445
15960TIP3    H169295   4.148   2.589  14.127  0.0092  1.0919  0.0361
15960TIP3    H269296   4.190   2.689  14.022 -0.9904  2.2536  0.7248
15961TIP3   OH269297   6.019   5.528   0.843  0.1287 -0.6698  0.1033
15961TIP3    H169298   6.006   5.622   0.827 -1.3419 -0.9975 -0.8744
15961TIP3    H269299   6.019   5.489   0.755 -0.4138 -1.7017  0.5468
15962TIP3   OH269300   5.014   4.323   5.365 -0.0858  0.1365  0.2980
15962TIP3    H169301   4.936   4.340   5.312  0.1984 -1.8284 -0.8306
15962TIP3    H269302   5.087   4.349   5.309  0.1338  1.3987  1.1231
15963TIP3   OH269303   5.835   5.016   0.466  0.2551 -0.1433 -0.0500
15963TIP3    H169304   5.869   5.058   0.387 -0.3504  0.1217 -0.1768
15963TIP3    H269305   5.881   5.059   0.538 -0.0108  0.4116 -0.2042
15964TIP3   OH269306   3.055   4.537   1.928  0.0077 -0.0017 -0.1142
15964TIP3    H169307   2.985   4.514   1.867 -0.4432 -0.5818  0.5908
15964TIP3    H269308   3.094   4.616   1.892 -2.2177  1.4380  0.4223
15965TIP3   OH269309   0.932   6.186   1.165  0.3296 -0.1940 -0.3904
15965TIP3    H169310   0.916   6.174   1.072  0.0161 -0.5673 -0.2861
15965TIP3    H269311   1.023   6.156   1.178  0.4921  0.1874 -0.6356
15966TIP3   OH269312   1.065   6.037   4.045  0.2559  0.2167  0.6556
15966TIP3    H169313   1.110   6.089   4.113  0.7949  0.5611  0.0457
15966TIP3    H269314   1.077   6.088   3.965  1.3816 -1.1711 -0.0987
15967TIP3   OH269315   4.823   4.141  15.168 -0.2882 -0.0982 -0.4429
15967TIP3    H169316   4.800   4.232  15.186 -1.0614 -0.6275  1.4496
15967TIP3    H269317   4.887   4.118  15.236  0.8150 -0.6563 -1.6132
15968TIP3   OH269318   4.249   5.779  16.083 -0.4420  0.1660  0.1875
15968TIP3    H169319   4.292   5.847  16.135 -0.3299  1.0678 -1.0478
15968TIP3    H269320   4.172   5.755  16.133  0.1701  0.3112  1.2321
15969TIP3   OH269321   6.659   4.539   4.100 -0.3587  0.6733 -0.1463
15969TIP3    H169322   6.753   4.525   4.085 -0.9989 -2.6898 -1.9258
15969TIP3    H269323   6.633   4.467   4.157 -1.9843  1.1500 -0.2412
15970TIP3   OH269324   4.265   1.623  14.788  0.1748 -1.0155  0.3113
15970TIP3    H169325   4.190   1.566  14.805  0.3355 -0.5863  2.7025
15970TIP3    H269326   4.254   1.696  14.848  0.8271  0.7349 -1.5675
15971TIP3   OH269327   1.742   3.420  11.361 -0.2740  0.4445  0.1225
15971TIP3    H169328   1.793   3.355  11.409  0.3982  2.3303  2.1149
15971TIP3    H269329   1.689   3.463  11.428 -0.8215  1.8306 -1.1443
15972TIP3   OH269330   4.303   1.655  13.167 -0.6845 -0.0459 -0.1552
15972TIP3    H169331   4.236   1.699  13.115 -0.6294  0.3194  0.0827
15972TIP3    H269332   4.383   1.662  13.115 -0.5823  0.5072  0.0801
15973TIP3   OH269333   0.450   4.299  14.928  0.2126  0.7242 -0.4245
15973TIP3    H169334   0.450   4.368  14.862  2.0247 -0.3724 -1.6598
15973TIP3    H269335   0.521   4.322  14.988  0.0195  0.5571 -0.1231
15974TIP3   OH269336   0.972   3.369   5.212  0.4235 -0.1186  0.4600
15974TIP3    H169337   1.029   3.349   5.286  0.3358  1.7427  1.0644
15974TIP3    H269338   1.027   3.418   5.151 -0.7726  3.0693  1.7282
15975TIP3   OH269339   2.443   2.379  13.041 -0.3925 -0.0917 -0.2103
15975TIP3    H169340   2.413   2.411  12.956 -0.1616 -1.2640 -0.7461
15975TIP3    H269341   2.375   2.317  13.069  0.3244 -0.9494 -0.3187
15976TIP3   OH269342   1.037   6.288  16.600 -0.3758 -0.3305 -0.0893
15976TIP3    H169343   1.094   6.355  16.563 -0.8183  0.5669  0.8318
15976TIP3    H269344   0.950   6.309  16.567 -0.1575 -2.0514 -1.9963
15977TIP3   OH269345   4.619   2.800   5.308 -0.2894 -0.0208  0.8613
15977TIP3    H169346   4.537   2.843   5.330 -0.2125  1.2724 -1.0978
15977TIP3    H269347   4.685   2.870   5.313  0.4613 -0.7308  1.1018
15978TIP3   OH269348   2.780   3.985   2.436  0.0351 -0.2649  0.8730
15978TIP3    H169349   2.807   3.946   2.519  0.1217  1.9753  1.9427
15978TIP3    H269350   2.862   4.011   2.394 -0.1049  0.4385  1.0271
15979TIP3   OH269351   2.325   2.700  12.478  0.1173 -0.7990  0.4634
15979TIP3    H169352   2.420   2.697  12.463  0.2980  0.5457  1.1768
15979TIP3    H269353   2.305   2.617  12.521  1.1301 -0.7242  1.1101
15980TIP3   OH269354   1.464   0.201  16.129 -0.9436  0.4924 -0.1225
15980TIP3    H169355   1.473   0.260  16.054  0.4269 -1.0001 -1.1999
15980TIP3    H269356   1.536   0.225  16.186  0.1791 -0.6814 -0.9947
15981TIP3   OH269357   2.909   6.330   4.969  0.2604 -0.2963  0.5683
15981TIP3    H169358   2.859   6.253   4.997  1.0122 -0.5001  1.3757
15981TIP3    H269359   2.990   6.295   4.933  0.9308  0.1426  1.6149
15982TIP3   OH269360   1.346   2.246  14.931  0.8225 -0.0437  0.1443
15982TIP3    H169361   1.253   2.249  14.906  0.6345 -0.0033  0.8233
15982TIP3    H269362   1.356   2.162  14.976  0.8931  0.3817  0.9236
15983TIP3   OH269363   6.465   5.865  12.153 -0.6775  0.5836  0.1566
15983TIP3    H169364   6.501   5.949  12.126 -1.0133  0.9063  0.6897
15983TIP3    H269365   6.505   5.801  12.094 -0.9809  1.1951 -0.7316
15984TIP3   OH269366   4.066   1.200   4.039  0.5191  0.6279 -0.4087
15984TIP3    H169367   4.056   1.263   3.968 -2.1923  0.7569 -0.0411
15984TIP3    H269368   4.040   1.116   4.001  0.1366  0.4995  0.1146
15985TIP3   OH269369   0.489   6.744  13.713 -0.1440  0.0603  0.8021
15985TIP3    H169370   0.416   6.683  13.714 -0.3539  0.2750 -0.2465
15985TIP3    H269371   0.475   6.797  13.635  0.2229  1.2217  1.4904
15986TIP3   OH269372   3.496   6.126   1.603  0.4778  0.0661 -0.4863
15986TIP3    H169373   3.468   6.046   1.646  0.9019  0.2697  0.1756
15986TIP3    H269374   3.454   6.196   1.654  0.6479  0.2928 -0.6570
15987TIP3   OH269375   1.355   2.093   1.509  0.1428  0.6234 -0.1873
15987TIP3    H169376   1.340   2.144   1.430 -1.0484 -0.9294 -1.0353
15987TIP3    H269377   1.439   2.050   1.494 -0.1943  0.1340 -0.7704
15988TIP3   OH269378   6.446   5.338   5.082 -0.2308 -0.4888  0.2776
15988TIP3    H169379   6.354   5.323   5.105  0.0801 -1.1874  1.1149
15988TIP3    H269380   6.473   5.411   5.138 -0.1574 -0.5449  0.3143
15989TIP3   OH269381   6.154   6.747  16.592 -0.4845  0.1329  0.1119
15989TIP3    H169382   6.059   6.755  16.584 -0.4870  0.4525  0.4363
15989TIP3    H269383   6.187   6.836  16.579 -0.3491  0.3268  1.6202
15990TIP3   OH269384   0.624   5.945   4.132 -0.4608 -0.7702 -0.0053
15990TIP3    H169385   0.718   5.951   4.147 -0.2939 -0.3573 -1.1139
15990TIP3    H269386   0.605   5.851   4.135 -0.5924 -0.7452  3.3173
15991TIP3   OH269387   5.172   4.808   5.266 -0.9294 -0.0042 -0.3968
15991TIP3    H169388   5.166   4.903   5.257 -0.8386  0.1321  0.7584
15991TIP3    H269389   5.099   4.785   5.323  0.5104 -0.2730  1.4421
15992TIP3   OH269390   2.064   4.872  13.854 -0.1082  0.0461  0.3613
15992TIP3    H169391   1.997   4.888  13.787 -0.0903  1.9268  0.7346
15992TIP3    H269392   2.015   4.846  13.932 -0.3852  0.8487  0.4657
15993TIP3   OH269393   6.461   4.035   1.967  0.3972  0.8086  0.3497
15993TIP3    H169394   6.521   4.033   2.041 -0.2284  0.1451  0.8532
15993TIP3    H269395   6.381   3.995   2.000  0.2975 -0.0392 -0.8409
15994TIP3   OH269396   3.006   1.041   4.881 -0.1767 -0.0521  0.6698
15994TIP3    H169397   2.979   1.128   4.851 -0.8389 -0.6700 -0.6265
15994TIP3    H269398   2.977   1.037   4.972 -1.2827  0.6213  0.3633
15995TIP3   OH269399   4.010   4.501   4.457 -0.2829  0.8407  0.0179
15995TIP3    H169400   3.997   4.587   4.498 -1.8118 -0.1479  1.7908
15995TIP3    H269401   4.044   4.446   4.528 -3.8228 -1.1556  0.4202
15996TIP3   OH269402   0.639   0.998   3.697 -0.5215 -0.0666 -0.3784
15996TIP3    H169403   0.633   0.952   3.781  1.7272 -0.9359 -0.6258
15996TIP3    H269404   0.572   1.066   3.702 -0.6526 -0.2849  2.0118
15997TIP3   OH269405   2.542   6.382  12.147 -0.0566 -0.1148 -0.2434
15997TIP3    H169406   2.458   6.404  12.106 -0.0074  0.1250 -0.2118
15997TIP3    H269407   2.592   6.338  12.078 -0.1213 -0.0559 -0.3265
15998TIP3   OH269408   3.094   4.097  12.534 -0.0765  0.0475  0.5806
15998TIP3    H169409   3.045   4.159  12.588 -0.3071 -0.4663  0.9625
15998TIP3    H269410   3.185   4.128  12.540 -0.0780 -0.0685  1.3691
15999TIP3   OH269411   3.071   0.748   0.034  0.5276  0.3781  0.0905
15999TIP3    H169412   3.153   0.709   0.065  1.8170  1.3527 -1.9419
15999TIP3    H269413   3.084   0.843   0.042 -0.8794  0.5475  0.8247
16000TIP3   OH269414   5.776   5.574   3.209  0.0219 -0.0447 -0.6076
16000TIP3    H169415   5.780   5.483   3.238 -0.3429 -0.1476 -0.8807
16000TIP3    H269416   5.833   5.577   3.132  1.0345  0.2403  0.1219
16001TIP3   OH269417   2.591   4.626   0.996 -0.2445  0.0821  0.3893
16001TIP3    H169418   2.666   4.609   1.054 -1.1561  0.0267  1.5811
16001TIP3    H269419   2.585   4.548   0.941  0.3685 -0.0613  0.5193
16002TIP3   OH269420   3.674   6.435   1.468  0.2215  0.0229 -0.3870
16002TIP3    H169421   3.711   6.402   1.550  0.5579  1.2467 -0.0306
16002TIP3    H269422   3.748   6.434   1.406 -0.4461 -2.6489 -1.2525
16003TIP3   OH269423   1.381   3.334  15.666 -0.4138  0.1208 -0.0461
16003TIP3    H169424   1.429   3.282  15.729 -0.5462 -0.0678 -0.1009
16003TIP3    H269425   1.346   3.271  15.603 -0.3748  0.2949 -0.2473
16004TIP3   OH269426   0.579   5.133   2.828 -0.6134  0.2704 -0.6265
16004TIP3    H169427   0.583   5.229   2.821 -0.0437  0.2225 -1.0917
16004TIP3    H269428   0.669   5.104   2.812 -0.7913 -0.3472 -0.5442
16005TIP3   OH269429   2.830   1.949  13.497  0.0595 -0.2637 -0.3653
16005TIP3    H169430   2.760   1.901  13.452  0.1862 -1.7425  0.9326
16005TIP3    H269431   2.803   2.040  13.492 -1.9977 -0.7890  0.1318
16006TIP3   OH269432   6.768   1.246  14.581 -0.4257 -0.0260  0.1640
16006TIP3    H169433   6.813   1.182  14.636 -0.6784  0.2320  0.6762
16006TIP3    H269434   6.767   1.206  14.494 -0.8142 -0.8371  0.5296
16007TIP3   OH269435   1.886   2.305   5.279  0.8593 -0.0020  0.4339
16007TIP3    H169436   1.944   2.380   5.267 -0.4679  1.1267  0.7317
16007TIP3    H269437   1.905   2.273   5.367  2.3543 -0.8767 -0.1738
16008TIP3   OH269438   5.139   6.466   6.273 -0.6261 -0.1112 -0.4961
16008TIP3    H169439   5.222   6.473   6.319 -0.6486  1.8934 -0.6634
16008TIP3    H269440   5.094   6.393   6.315  0.4308  0.0013  0.8875
16009TIP3   OH269441   6.252   3.794   4.520 -0.0353  0.0687  0.5709
16009TIP3    H169442   6.205   3.875   4.538  0.4617  0.0569  2.1318
16009TIP3    H269443   6.341   3.821   4.497  0.0326 -0.0131  0.7318
16010TIP3   OH269444   4.897   5.601   2.063 -0.2470  0.3684  0.2090
16010TIP3    H169445   4.852   5.607   2.147 -0.7472 -1.3268  0.0961
16010TIP3    H269446   4.989   5.589   2.085 -0.3946 -0.1963  0.5248
16011TIP3   OH269447   4.410   3.929  15.371 -0.1352  0.2560  0.3768
16011TIP3    H169448   4.358   3.915  15.450 -0.8447  0.3805 -0.0526
16011TIP3    H269449   4.361   3.884  15.302 -1.7226  3.4263 -0.7839
16012TIP3   OH269450   1.639   3.485  13.766 -0.5202  0.0547 -0.0170
16012TIP3    H169451   1.733   3.474  13.751 -0.6223  1.0261 -1.7170
16012TIP3    H269452   1.626   3.460  13.857  0.8754 -3.0929 -0.5383
16013TIP3   OH269453   2.782   1.939   1.949 -0.0154 -0.2126 -0.7802
16013TIP3    H169454   2.801   1.894   1.866 -0.9232  1.8941 -2.2156
16013TIP3    H269455   2.867   1.975   1.976  0.2689 -0.8295 -0.8281
16014TIP3   OH269456   2.788   4.896   2.679  0.1096  1.0157 -0.0410
16014TIP3    H169457   2.738   4.976   2.693 -2.2492 -0.2846 -0.5997
16014TIP3    H269458   2.808   4.897   2.586 -1.2574  0.2518 -0.3600
16015TIP3   OH269459   1.838   1.423  13.599 -1.0555 -0.0764  0.4719
16015TIP3    H169460   1.835   1.472  13.681 -0.3524 -1.2437  1.2208
16015TIP3    H269461   1.836   1.332  13.625 -0.5386 -0.4827 -0.7993
16016TIP3   OH269462   5.034   6.525  12.925  0.2544  0.1857  0.4548
16016TIP3    H169463   4.948   6.511  12.887  2.0084 -1.0230 -3.6221
16016TIP3    H269464   5.039   6.619  12.941 -1.1193  0.5784 -1.1786
16017TIP3   OH269465   1.934   1.024  11.777  0.1098 -0.6720 -0.0170
16017TIP3    H169466   2.024   1.013  11.748  1.2696  0.4390  2.8819
16017TIP3    H269467   1.904   0.936  11.799  0.2528 -1.1113 -1.4588
16018TIP3   OH269468   6.519   2.817  12.115  0.1090  0.8155  0.3167
16018TIP3    H169469   6.436   2.802  12.160  0.3256  2.3915  1.3027
16018TIP3    H269470   6.574   2.862  12.179  1.0369  1.5602 -0.9522
16019TIP3   OH269471   4.209   4.637  13.302  0.3310  0.2276  0.8857
16019TIP3    H169472   4.154   4.703  13.259 -1.1222 -0.5851  1.4255
16019TIP3    H269473   4.284   4.627  13.243 -0.7545  0.4086 -0.5962
16020TIP3   OH269474   2.104   2.108   2.560 -0.4110 -0.5759 -0.2546
16020TIP3    H169475   2.077   2.187   2.606 -1.4177  0.0060 -1.7513
16020TIP3    H269476   2.108   2.040   2.627 -1.2278  0.3655  0.7672
16021TIP3   OH269477   4.822   2.073   3.837  0.4833  0.0157 -0.0578
16021TIP3    H169478   4.842   2.166   3.825  1.9866 -0.3454 -0.5172
16021TIP3    H269479   4.853   2.031   3.758 -1.0926 -0.7920 -0.2926
16022TIP3   OH269480   0.738   6.718  14.984  0.6683  0.1074 -0.2662
16022TIP3    H169481   0.787   6.779  14.929  0.4668  1.0750  0.6036
16022TIP3    H269482   0.805   6.668  15.029  0.8366 -0.6427 -1.2990
16023TIP3   OH269483   3.936   2.673   4.633  0.4574  0.3149 -0.7115
16023TIP3    H169484   3.979   2.588   4.630  0.1711  0.0636  1.0972
16023TIP3    H269485   4.003   2.735   4.603  1.4052 -0.3108  0.0473
16024TIP3   OH269486   5.552   5.532   1.115  0.4238  0.0824 -0.0065
16024TIP3    H169487   5.497   5.606   1.140 -2.6505 -1.3536 -1.9130
16024TIP3    H269488   5.596   5.560   1.035  0.2434  0.2907 -0.0325
16025TIP3   OH269489   4.892   5.259   2.375  0.7882  0.3148 -0.3420
16025TIP3    H169490   4.969   5.304   2.338  0.4467  2.5271  1.4121
16025TIP3    H269491   4.828   5.329   2.387 -0.3865 -0.9511  1.0496
16026TIP3   OH269492   6.447   3.013  15.057  0.1779 -0.0289  0.0304
16026TIP3    H169493   6.389   2.958  15.110  0.2555  0.5004  0.6798
16026TIP3    H269494   6.419   3.102  15.077  3.1555  0.4801  2.7922
16027TIP3   OH269495   4.055   4.034  16.050  0.4042 -0.1447  0.5995
16027TIP3    H169496   4.002   4.026  15.971 -1.0214 -0.5482  1.5682
16027TIP3    H269497   4.135   4.079  16.020  0.1000 -0.6666 -1.1342
16028TIP3   OH269498   2.358   1.439  11.752  0.6357 -0.0076 -0.2412
16028TIP3    H169499   2.453   1.450  11.746  0.8302  0.4536  2.5265
16028TIP3    H269500   2.346   1.347  11.776  0.4708  0.2043  0.5095
16029TIP3   OH269501   0.468   2.822   4.096  0.0345 -0.2081  0.2728
16029TIP3    H169502   0.444   2.736   4.064  0.0113  0.0645 -0.4497
16029TIP3    H269503   0.560   2.813   4.124  0.3708 -0.1919 -0.8081
16030TIP3   OH269504   4.993   4.302   4.270  0.9163 -0.2250  0.4707
16030TIP3    H169505   4.933   4.375   4.288 -0.3687 -0.9317 -0.7293
16030TIP3    H269506   4.953   4.227   4.316  0.4506 -0.8619 -0.9147
16031TIP3   OH269507   6.177   1.088   0.824 -0.5375 -0.7995 -0.2986
16031TIP3    H169508   6.165   1.002   0.864 -1.3085 -0.8546 -0.6407
16031TIP3    H269509   6.161   1.074   0.731 -1.6618 -0.0995 -0.2268
16032TIP3   OH269510   1.791   6.186  15.857 -0.8113  0.8073 -0.0226
16032TIP3    H169511   1.792   6.272  15.899 -2.9513  0.8200  0.1341
16032TIP3    H269512   1.814   6.125  15.926  1.9286  1.2905 -0.4131
16033TIP3   OH269513   3.798   6.020   5.131  0.1445  0.5032  0.4627
16033TIP3    H169514   3.789   5.925   5.128 -0.7574  0.6002 -0.7623
16033TIP3    H269515   3.752   6.051   5.053  1.9348  1.8403 -0.1372
16034TIP3   OH269516   2.036   3.345   3.459 -0.0696 -1.0988 -0.5565
16034TIP3    H169517   2.062   3.346   3.367  2.2492 -0.0794  0.0258
16034TIP3    H269518   1.973   3.416   3.467  0.1171 -0.8459 -1.2648
16035TIP3   OH269519   2.756   4.927  16.843 -0.1794 -0.7754  0.3521
16035TIP3    H169520   2.774   4.982  16.920  0.3616 -1.2833  0.5911
16035TIP3    H269521   2.666   4.898  16.855 -1.4231  2.1297 -1.0619
16036TIP3   OH269522   4.246   2.392  10.854  0.0416 -0.1062  0.2217
16036TIP3    H169523   4.207   2.352  10.776 -0.1934  0.0404  0.2623
16036TIP3    H269524   4.339   2.401  10.832  0.2226 -1.2475  0.4453
16037TIP3   OH269525   1.950   6.364   1.158 -0.0799  0.5472  0.8141
16037TIP3    H169526   1.914   6.373   1.247 -0.5693  1.2357  0.5572
16037TIP3    H269527   1.985   6.275   1.156 -1.1572  0.0787  1.3086
16038TIP3   OH269528   6.302   6.297   0.170 -0.4334  0.2495 -0.4222
16038TIP3    H169529   6.278   6.232   0.237 -1.8814  1.0716 -0.1041
16038TIP3    H269530   6.310   6.379   0.218 -0.2151  0.6074 -1.0654
16039TIP3   OH269531   3.473   3.896   6.217  0.0152 -0.8489  0.0819
16039TIP3    H169532   3.506   3.832   6.279  0.9338 -1.0825 -0.6358
16039TIP3    H269533   3.391   3.859   6.185  0.0376 -1.1881  0.4169
16040TIP3   OH269534   4.085   3.757   1.388  0.0522  0.7517  0.5201
16040TIP3    H169535   4.154   3.753   1.321  0.7299  1.0391  1.1795
16040TIP3    H269536   4.064   3.665   1.407  1.7139  0.5730  1.7440
16041TIP3   OH269537   0.665   1.254  14.443 -0.2471  0.4411 -0.3900
16041TIP3    H169538   0.663   1.332  14.387 -2.1813  0.0032 -1.0270
16041TIP3    H269539   0.745   1.208  14.419 -0.2852  1.0338 -1.7068
16042TIP3   OH269540   0.368   2.857  10.719 -0.1017  0.3914  0.3982
16042TIP3    H169541   0.364   2.942  10.676  1.5192  2.3473  3.7032
16042TIP3    H269542   0.320   2.869  10.801  1.9778 -1.0941  1.9715
16043TIP3   OH269543   5.066   4.702  17.132  0.5302 -0.0687 -0.4453
16043TIP3    H169544   5.155   4.671  17.149  0.5240  0.1345 -0.0246
16043TIP3    H269545   5.075   4.796  17.121  0.1822  0.1720  1.0652
16044TIP3   OH269546   2.176   4.372  11.792 -0.3105  0.3723  0.1721
16044TIP3    H169547   2.211   4.455  11.762  0.5097  1.0185  2.6337
16044TIP3    H269548   2.237   4.306  11.757  0.3973  1.0259  0.1541
16045TIP3   OH269549   5.067   1.634  10.556  0.3499 -0.3187 -0.3171
16045TIP3    H169550   5.095   1.558  10.504 -2.8812 -1.5902 -0.4611
16045TIP3    H269551   4.983   1.659  10.518  0.8094  2.7557  0.4244
16046TIP3   OH269552   6.763   0.777  16.562 -0.4225 -0.3693  0.4363
16046TIP3    H169553   6.719   0.709  16.510 -0.4774 -0.0443  0.0604
16046TIP3    H269554   6.808   0.832  16.498  1.6017 -1.4214  0.8889
16047TIP3   OH269555   4.050   2.207  11.569 -0.2270  0.3605  1.2227
16047TIP3    H169556   4.058   2.299  11.542  1.9627  0.0851  0.7261
16047TIP3    H269557   4.087   2.204  11.657 -0.8701  0.0481  1.4887
16048TIP3   OH269558   6.066   0.296   3.201 -0.3639  0.4402  0.4795
16048TIP3    H169559   6.074   0.269   3.293 -1.1061 -0.1001  0.3962
16048TIP3    H269560   6.122   0.373   3.194 -3.0152  2.6950  2.2912
16049TIP3   OH269561   5.202   1.376   3.623  0.5359  0.6200  0.1713
16049TIP3    H169562   5.117   1.417   3.640 -0.0597 -0.4611 -0.0819
16049TIP3    H269563   5.211   1.311   3.692  0.7778  0.1756 -0.2739
16050TIP3   OH269564   6.295   2.314  14.175  0.2318 -0.0900 -0.5222
16050TIP3    H169565   6.237   2.299  14.100  0.0975 -0.6722 -0.3087
16050TIP3    H269566   6.354   2.239  14.175  1.4688  0.8451 -1.1613
16051TIP3   OH269567   3.582   1.888   3.737 -0.1114  0.0944 -0.7108
16051TIP3    H169568   3.670   1.849   3.732  2.1001  4.5648 -2.6181
16051TIP3    H269569   3.533   1.846   3.667  0.8339 -1.7563 -0.3211
16052TIP3   OH269570   4.264   3.078   1.041 -0.2950  0.2400 -0.2422
16052TIP3    H169571   4.253   3.067   1.136  1.8140  1.5487  0.2007
16052TIP3    H269572   4.355   3.054   1.024 -0.7222 -0.2963 -2.0245
16053TIP3   OH269573   2.898   3.458  12.791  0.0256  0.3920  0.1376
16053TIP3    H169574   2.968   3.445  12.727 -0.6836 -1.4765 -0.3469
16053TIP3    H269575   2.908   3.385  12.852 -2.6641 -1.1714 -1.1159
16054TIP3   OH269576   6.429   5.290  13.040 -0.0575  0.5321  0.1317
16054TIP3    H169577   6.358   5.260  13.097  1.8139  1.1800  3.0544
16054TIP3    H269578   6.408   5.382  13.023 -0.6346  0.3315 -0.2952
16055TIP3   OH269579   2.266   4.312  12.395  0.1141 -0.9519  0.3420
16055TIP3    H169580   2.265   4.282  12.304  0.5025  1.8603 -0.7150
16055TIP3    H269581   2.185   4.277  12.433 -1.4750  0.0031 -1.9353
16056TIP3   OH269582   5.761   1.105  16.792  0.0502  0.0759 -0.2737
16056TIP3    H169583   5.799   1.017  16.792 -1.6553 -0.7296  1.3883
16056TIP3    H269584   5.675   1.094  16.752 -1.3199  0.3336  2.3397
16057TIP3   OH269585   4.337   4.253  13.602  0.1269  0.3874 -0.4090
16057TIP3    H169586   4.404   4.220  13.663  1.4058  0.7738 -1.5449
16057TIP3    H269587   4.288   4.317  13.653 -0.2929 -0.8916  0.8601
16058TIP3   OH269588   4.309   3.913   6.092 -0.3224 -0.1280  0.2399
16058TIP3    H169589   4.302   3.857   6.169  0.5850  0.0541  0.4709
16058TIP3    H269590   4.347   3.994   6.125  0.4810 -0.2013 -0.4539
16059TIP3   OH269591   3.631   0.037  13.708  0.0889  0.2612  0.1826
16059TIP3    H169592   3.622   0.130  13.727  1.0032  0.6391 -1.1849
16059TIP3    H269593   3.659   0.033  13.617  0.6781 -1.3310  0.4040
16060TIP3   OH269594   2.728   3.121   5.351  0.3684  0.3243 -0.0796
16060TIP3    H169595   2.811   3.078   5.370 -1.2095 -2.4546  1.1224
16060TIP3    H269596   2.700   3.083   5.268 -0.3672  0.1371  0.2501
16061TIP3   OH269597   6.683   0.352   6.426 -0.1486  0.0289  0.0604
16061TIP3    H169598   6.770   0.313   6.426 -0.3793 -0.4932 -0.0434
16061TIP3    H269599   6.696   0.441   6.458  0.4340 -0.0238 -0.0330
16062TIP3   OH269600   1.243   5.461   2.316 -0.2761  0.3559 -0.3331
16062TIP3    H169601   1.241   5.533   2.379 -0.5785  0.8651 -0.9224
16062TIP3    H269602   1.220   5.384   2.368 -0.6608  0.7922  0.1564
16063TIP3   OH269603   0.699   4.801  15.283  0.0089  0.3607 -0.1921
16063TIP3    H169604   0.781   4.754  15.265 -0.0650 -1.0749  2.6423
16063TIP3    H269605   0.711   4.836  15.371 -2.3382  0.2473  0.2158
16064TIP3   OH269606   3.857   2.239   2.632  0.5332  0.5691 -1.3595
16064TIP3    H169607   3.932   2.291   2.602  0.2923  1.9926  0.3488
16064TIP3    H269608   3.896   2.158   2.664  1.2374  0.8392 -1.5050
16065TIP3   OH269609   1.443   0.917   0.612 -0.5515  0.8379  0.4317
16065TIP3    H169610   1.370   0.963   0.571 -0.0620  1.3482  0.1162
16065TIP3    H269611   1.516   0.979   0.608 -0.0030  0.2021  0.4137
16066TIP3   OH269612   2.750   2.548  15.565 -0.0279 -0.5423  0.1395
16066TIP3    H169613   2.669   2.499  15.575  0.2244 -0.9627  0.1614
16066TIP3    H269614   2.754   2.569  15.471 -2.0094  2.7424  0.6068
16067TIP3   OH269615   3.571   5.707   0.053  0.2029  0.2376 -0.5084
16067TIP3    H169616   3.476   5.695   0.058 -0.0167  1.5737 -1.1242
16067TIP3    H269617   3.583   5.798   0.026  1.6860  0.8527  1.8673
16068TIP3   OH269618   5.904   5.357   2.560  0.1294 -0.5466 -0.3923
16068TIP3    H169619   5.941   5.410   2.490 -2.1542  0.5092 -0.9011
16068TIP3    H269620   5.902   5.268   2.525  0.1486 -0.2422 -1.1836
16069TIP3   OH269621   3.221   3.692   1.534 -0.2345  0.2876 -0.1869
16069TIP3    H169622   3.254   3.684   1.624 -0.5468  2.0566  0.1119
16069TIP3    H269623   3.250   3.611   1.491  0.2184 -0.4411  1.3964
16070TIP3   OH269624   5.180   4.925  11.138  0.1719  0.0391  0.5452
16070TIP3    H169625   5.150   4.900  11.226 -0.4973  0.7587  0.5294
16070TIP3    H269626   5.152   4.852  11.082  0.6121 -0.4288  0.9261
16071TIP3   OH269627   6.322   3.612   1.599  0.2682  0.3088  0.6498
16071TIP3    H169628   6.260   3.555   1.643 -0.4041  0.0457 -0.6012
16071TIP3    H269629   6.291   3.701   1.619 -1.2199  0.1840 -0.8699
16072TIP3   OH269630   6.667   4.861  13.494 -0.7351  0.4615  0.0237
16072TIP3    H169631   6.634   4.792  13.438  1.4672 -0.9764  0.3931
16072TIP3    H269632   6.627   4.941  13.460  0.3382 -0.3485 -3.4648
16073TIP3   OH269633   3.307   0.851  14.880  0.5507 -0.2492 -0.4154
16073TIP3    H169634   3.217   0.878  14.861  0.2965  0.0237  1.0398
16073TIP3    H269635   3.318   0.768  14.833  0.2161  0.6732 -2.1943
16074TIP3   OH269636   2.683   4.709  11.498 -0.5400 -0.1485 -0.1053
16074TIP3    H169637   2.726   4.634  11.458  0.1527 -0.5605  1.3569
16074TIP3    H269638   2.655   4.763  11.424 -0.8938 -1.7345 -1.1895
16075TIP3   OH269639   1.398   1.881   3.158  0.4095  0.1006 -0.3065
16075TIP3    H169640   1.432   1.960   3.115  0.3040  0.1757 -0.2506
16075TIP3    H269641   1.325   1.853   3.103  1.0591 -0.5188 -0.8786
16076TIP3   OH269642   2.838   3.842  13.748  0.4313 -0.3127  0.5534
16076TIP3    H169643   2.898   3.911  13.778  0.3110  0.7118 -1.3380
16076TIP3    H269644   2.868   3.763  13.792  2.8765  0.2615  0.1037
16077TIP3   OH269645   4.976   6.234  15.840 -0.2080 -0.3359 -0.2824
16077TIP3    H169646   4.975   6.170  15.769 -2.1149 -0.3389 -0.2966
16077TIP3    H269647   4.954   6.183  15.918  1.0017 -0.1692  0.1858
16078TIP3   OH269648   0.250   5.726  13.064 -0.3806  0.8660  0.2038
16078TIP3    H169649   0.207   5.642  13.078  1.6238 -0.2698 -0.0019
16078TIP3    H269650   0.304   5.738  13.142  2.0278  0.1559 -1.2317
16079TIP3   OH269651   0.411   3.724  16.203 -0.2993  0.4260  0.0192
16079TIP3    H169652   0.369   3.706  16.119  0.0512 -0.6170  0.0508
16079TIP3    H269653   0.503   3.700  16.189 -0.0022  1.3084  0.3750
16080TIP3   OH269654   1.105   0.468   1.703 -0.2952  0.1134 -0.1333
16080TIP3    H169655   1.084   0.544   1.649  1.7027  1.6555  1.1374
16080TIP3    H269656   1.184   0.431   1.663 -1.3187 -1.4679 -0.8272
16081TIP3   OH269657   5.168   6.156  14.179  0.3275  0.1788  0.3486
16081TIP3    H169658   5.123   6.123  14.257  0.7908  1.8576  1.3898
16081TIP3    H269659   5.238   6.211  14.214  0.0804  1.5963 -1.2494
16082TIP3   OH269660   4.935   3.605   1.440 -0.5886 -0.1467 -0.1181
16082TIP3    H169661   4.867   3.545   1.412 -0.7982 -2.0866  3.8141
16082TIP3    H269662   4.888   3.676   1.485 -0.1526 -0.2926  0.5964
16083TIP3   OH269663   1.237   1.005   1.884 -0.0276  0.2507  0.2906
16083TIP3    H169664   1.321   1.049   1.890  0.0631  0.0049  0.7989
16083TIP3    H269665   1.239   0.938   1.952 -0.2425 -0.4214 -0.3489
16084TIP3   OH269666   4.268   5.514  14.542  0.3834  0.4837 -0.3024
16084TIP3    H169667   4.336   5.527  14.608  0.6183  3.7080 -1.0132
16084TIP3    H269668   4.186   5.528  14.589  0.5218  2.0785 -0.4680
16085TIP3   OH269669   2.401   4.332   0.725  0.1177 -0.0442  0.0762
16085TIP3    H169670   2.327   4.387   0.750 -1.3861 -1.6655 -0.5902
16085TIP3    H269671   2.362   4.258   0.679  2.3616  0.2797 -2.6114
16086TIP3   OH269672   3.332   3.368  12.053 -0.3310  0.9281 -0.0682
16086TIP3    H169673   3.340   3.350  11.959 -2.8223  1.7877 -0.5075
16086TIP3    H269674   3.264   3.307  12.083 -0.4406  1.5128  0.9096
16087TIP3   OH269675   2.923   0.457  12.945  0.0519  0.5529 -0.2011
16087TIP3    H169676   2.828   0.447  12.957  0.1787 -0.4721 -0.0005
16087TIP3    H269677   2.961   0.385  12.995  0.8948  0.2747 -1.2238
16088TIP3   OH269678   5.947   2.448   5.012  0.0501 -0.0060 -0.2799
16088TIP3    H169679   6.014   2.381   5.007 -0.8391 -0.8430 -1.5709
16088TIP3    H269680   5.876   2.408   5.062  0.1618  0.5706  0.3561
16089TIP3   OH269681   0.869   0.211  11.165  0.0830 -0.2734  0.3971
16089TIP3    H169682   0.877   0.259  11.082 -0.3711 -0.3156  0.3228
16089TIP3    H269683   0.940   0.147  11.163 -0.2255 -0.6102 -0.1958
16090TIP3   OH269684   6.408   0.262  15.511 -0.7413 -0.4374 -0.3794
16090TIP3    H169685   6.476   0.247  15.577 -1.1858 -0.5553  0.0559
16090TIP3    H269686   6.442   0.335  15.458 -0.4416 -0.2577  0.0554
16091TIP3   OH269687   6.209   6.756   5.693  0.3467  0.1118 -0.0007
16091TIP3    H169688   6.246   6.831   5.645  0.8675 -0.7699 -1.0385
16091TIP3    H269689   6.118   6.752   5.665 -0.2091  1.4560  1.4938
16092TIP3   OH269690   4.346   3.133   3.627  0.0622 -0.2180 -0.6070
16092TIP3    H169691   4.286   3.064   3.599 -0.5592  0.2153 -0.3751
16092TIP3    H269692   4.348   3.195   3.554  2.3919 -1.5593 -1.7912
16093TIP3   OH269693   4.917   0.965  13.610  0.0779  0.6943 -0.4251
16093TIP3    H169694   4.834   0.921  13.630 -1.0158  1.5285 -2.8269
16093TIP3    H269695   4.897   1.058  13.617  0.5640  0.9213 -1.7589
16094TIP3   OH269696   2.328   0.242  14.203  0.1620  0.0267  0.0577
16094TIP3    H169697   2.332   0.313  14.140  2.1678  0.2255  0.3431
16094TIP3    H269698   2.394   0.179  14.173  1.5494  0.3595  2.1606
16095TIP3   OH269699   4.269   1.330  14.447  0.0421  0.0662  0.1499
16095TIP3    H169700   4.276   1.259  14.512  1.3970  0.6737  0.7023
16095TIP3    H269701   4.331   1.306  14.378 -0.9239 -0.2483 -0.6339
16096TIP3   OH269702   0.700   3.234   1.340 -0.6435  0.0000  0.2025
16096TIP3    H169703   0.613   3.252   1.304 -0.6422 -0.5384 -0.0880
16096TIP3    H269704   0.759   3.240   1.265 -0.5507 -0.5028  0.2333
16097TIP3   OH269705   4.190   2.617  13.404  0.2065  0.2082 -0.4773
16097TIP3    H169706   4.148   2.547  13.453 -2.2946  1.2354 -0.9942
16097TIP3    H269707   4.132   2.693  13.415  1.8864  1.7240 -1.3747
16098TIP3   OH269708   6.163   0.305   2.457 -0.7576  0.3525  0.1695
16098TIP3    H169709   6.196   0.216   2.462 -0.6631  0.3630 -0.2527
16098TIP3    H269710   6.225   0.351   2.400 -0.4969  0.8250  0.8218
16099TIP3   OH269711   3.067   5.293   4.192  0.2213  0.0171  0.0365
16099TIP3    H169712   2.996   5.308   4.130 -0.5256 -0.1651  0.8120
16099TIP3    H269713   3.088   5.200   4.183  0.3790  0.0795 -0.2206
16100TIP3   OH269714   6.184   6.507  13.715 -0.1834 -0.1945 -0.2086
16100TIP3    H169715   6.113   6.444  13.699 -0.9373  0.7198 -0.5546
16100TIP3    H269716   6.161   6.548  13.798 -0.2058  0.2778 -0.4435
16101TIP3   OH269717   4.810   6.566   2.023 -0.2810  0.3621  0.4282
16101TIP3    H169718   4.804   6.562   2.119 -1.9186 -0.3226  0.3255
16101TIP3    H269719   4.901   6.544   2.004  0.0947  0.5840  1.8231
16102TIP3   OH269720   4.909   4.817  16.215  0.4087 -0.8023  0.2423
16102TIP3    H169721   4.922   4.752  16.284  0.3040 -0.2740  0.7639
16102TIP3    H269722   4.818   4.805  16.187 -0.1306  0.1805  1.4607
16103TIP3   OH269723   3.042   1.461   1.951  0.0510  0.8355 -0.4709
16103TIP3    H169724   3.017   1.418   1.869  0.3327  0.3591 -0.3121
16103TIP3    H269725   2.961   1.498   1.985  0.0140  1.4898 -1.2199
16104TIP3   OH269726   0.979   2.031  16.522 -0.5489  0.3944  0.0843
16104TIP3    H169727   1.022   1.983  16.451 -0.5372 -0.9546  0.9659
16104TIP3    H269728   0.915   2.088  16.477 -1.0054 -0.9024 -0.9870
16105TIP3   OH269729   5.584   5.620  12.455  0.1596  0.3784 -0.7756
16105TIP3    H169730   5.652   5.568  12.414  0.1394 -0.4069  0.1516
16105TIP3    H269731   5.504   5.597  12.408 -0.3894 -2.6589  1.4044
16106TIP3   OH269732   3.059   0.240  13.057  0.0459 -0.0641  0.4033
16106TIP3    H169733   3.130   0.176  13.052 -0.9954 -1.2689  0.6351
16106TIP3    H269734   3.010   0.215  13.135 -0.0877  1.3556  0.8042
16107TIP3   OH269735   5.693   3.397   0.345  0.1832 -0.0120 -0.4758
16107TIP3    H169736   5.655   3.388   0.432  0.9516  0.9580 -0.0181
16107TIP3    H269737   5.788   3.395   0.359  0.3168 -0.7243 -1.3933
16108TIP3   OH269738   2.364   6.623  11.302  0.5487  0.0742 -0.6545
16108TIP3    H169739   2.379   6.575  11.221 -1.3866  0.2475 -1.1663
16108TIP3    H269740   2.314   6.563  11.357 -0.2864  0.8289 -0.5723
16109TIP3   OH269741   2.092   0.633   1.066  0.3903 -0.6382 -0.3629
16109TIP3    H169742   2.167   0.620   1.008 -1.1295  0.3897 -2.6852
16109TIP3    H269743   2.131   0.648   1.153  2.8322 -0.2905 -1.4411
16110TIP3   OH269744   0.866   5.893  14.430  0.2034  0.4083 -0.4179
16110TIP3    H169745   0.799   5.898  14.499  0.5368  0.8167 -0.1117
16110TIP3    H269746   0.949   5.905  14.477  0.3429  2.6333 -1.0995
16111TIP3   OH269747   6.294   2.208   1.361 -0.9798  0.1837 -0.5889
16111TIP3    H169748   6.225   2.248   1.308  0.2645  1.4462 -1.3403
16111TIP3    H269749   6.374   2.221   1.309  0.0838  0.2946  1.0118
16112TIP3   OH269750   6.686   0.683  12.865  0.1937  0.1787 -0.4653
16112TIP3    H169751   6.762   0.714  12.816 -0.4004  1.1720 -0.7790
16112TIP3    H269752   6.611   0.703  12.810 -0.5925  2.2444  1.1826
16113TIP3   OH269753   2.458   3.830   1.444  0.3580 -0.2748  0.4007
16113TIP3    H169754   2.408   3.758   1.405 -2.1595  1.8947 -0.6674
16113TIP3    H269755   2.512   3.863   1.372  0.7433 -0.4489  0.6080
16114TIP3   OH269756   2.052   5.912  12.044  0.3177  0.3936  0.4213
16114TIP3    H169757   2.035   5.989  11.989  0.7414  0.0229 -0.2426
16114TIP3    H269758   1.999   5.926  12.122  1.6420  2.2021  1.0740
16115TIP3   OH269759   4.443   2.362   1.615 -0.2659 -0.1126 -0.3280
16115TIP3    H169760   4.400   2.280   1.640 -0.6914 -0.0461 -0.8277
16115TIP3    H269761   4.484   2.393   1.696 -0.3994 -0.6372 -0.0542
16116TIP3   OH269762   0.570   3.705   3.339  0.1087  0.4901 -1.0115
16116TIP3    H169763   0.598   3.707   3.431 -1.3530  0.6537 -0.5450
16116TIP3    H269764   0.652   3.716   3.290  1.3459 -2.4107  0.1519
16117TIP3   OH269765   4.040   4.869   4.743  0.5144  0.3031  0.0224
16117TIP3    H169766   4.012   4.805   4.679 -0.1567 -1.3747  1.8905
16117TIP3    H269767   3.968   4.932   4.747 -1.8203 -2.2479  2.5002
16118TIP3   OH269768   1.297   5.537  13.151  0.2393  0.2389  0.1928
16118TIP3    H169769   1.211   5.553  13.112  0.8539  1.9162 -0.5653
16118TIP3    H269770   1.359   5.579  13.091  2.0927 -4.2725 -1.6013
16119TIP3   OH269771   2.796   0.598  13.558 -0.1745  0.9283  0.2337
16119TIP3    H169772   2.779   0.681  13.514  3.0928  1.4963 -0.1957
16119TIP3    H269773   2.873   0.615  13.613 -0.1324 -1.4980  1.0497
16120TIP3   OH269774   1.779   3.695   4.879  0.0801  0.4687  0.1656
16120TIP3    H169775   1.777   3.632   4.951 -1.3353 -2.1592 -2.0125
16120TIP3    H269776   1.721   3.766   4.909 -2.1422 -1.5090  0.9059
16121TIP3   OH269777   1.872   4.188  15.573  0.4240  1.0111 -0.4010
16121TIP3    H169778   1.960   4.153  15.587  0.2193  0.0501 -1.3081
16121TIP3    H269779   1.821   4.112  15.545 -0.7344  1.5256  0.2390
16122TIP3   OH269780   0.659   3.029   0.608  0.1978  0.3434  0.2498
16122TIP3    H169781   0.706   3.107   0.638  2.9274 -1.2216  0.3597
16122TIP3    H269782   0.701   3.006   0.525  1.3026 -2.3963  1.4319
16123TIP3   OH269783   5.098   1.521   5.668  0.6307  0.4333 -0.1049
16123TIP3    H169784   5.058   1.571   5.739  0.7178 -0.1468  0.3557
16123TIP3    H269785   5.036   1.529   5.595  0.2219  0.4802  0.2451
16124TIP3   OH269786   6.386   3.715  16.803  0.3020  0.4075  0.2873
16124TIP3    H169787   6.304   3.741  16.846  0.2000 -0.9680  0.9598
16124TIP3    H269788   6.373   3.623  16.781  1.4097  0.3686 -0.2632
16125TIP3   OH269789   4.364   1.383  11.845  0.6228 -0.3526  0.4281
16125TIP3    H169790   4.339   1.475  11.840  1.7743 -0.0607 -0.7188
16125TIP3    H269791   4.310   1.340  11.778 -0.0687 -0.5569  1.1116
16126TIP3   OH269792   5.088   0.975   6.414 -0.4132  0.6112  0.2145
16126TIP3    H169793   5.027   1.026   6.467 -0.6429  0.1972  0.3517
16126TIP3    H269794   5.039   0.896   6.391 -0.0759  0.4742 -0.0321
16127TIP3   OH269795   2.280   3.120   0.821  0.7242  0.7826 -0.3764
16127TIP3    H169796   2.211   3.103   0.758  2.2265  0.6058 -2.0438
16127TIP3    H269797   2.249   3.197   0.870 -0.2106  1.2971 -1.7195
16128TIP3   OH269798   4.303   6.264   3.275 -0.8567 -0.3445 -0.1644
16128TIP3    H169799   4.311   6.206   3.199  0.5613 -0.1925 -0.1519
16128TIP3    H269800   4.220   6.238   3.316 -0.0079 -2.7559  0.1637
16129TIP3   OH269801   4.449   2.595   4.444  0.2547 -0.0655 -0.1561
16129TIP3    H169802   4.530   2.553   4.471  0.6958 -0.2035 -1.6095
16129TIP3    H269803   4.408   2.533   4.383 -0.0682  0.7474 -0.7907
16130TIP3   OH269804   6.482   5.579   2.389 -0.1547 -0.6210 -0.1106
16130TIP3    H169805   6.565   5.540   2.419  0.8928  0.8367 -0.9570
16130TIP3    H269806   6.415   5.515   2.414  1.0660 -1.2764  1.7476
16131TIP3   OH269807   1.444   3.135   0.933  0.0354 -0.3685 -0.2209
16131TIP3    H169808   1.512   3.067   0.923 -1.9794 -2.7998  1.2980
16131TIP3    H269809   1.380   3.114   0.865  0.3247  1.3585 -1.0708
16132TIP3   OH269810   3.028   4.467  14.999  0.3390 -0.3148  0.1596
16132TIP3    H169811   3.059   4.551  14.965  1.6046 -0.6484  0.4418
16132TIP3    H269812   2.941   4.486  15.034  0.5214  0.8301  0.0295
16133TIP3   OH269813   1.161   5.677  10.524  0.1991  0.0205 -0.3989
16133TIP3    H169814   1.249   5.710  10.505  0.3464 -0.9228 -1.4703
16133TIP3    H269815   1.105   5.724  10.462 -0.0097  0.3813  0.0614
16134TIP3   OH269816   1.012   2.563  16.969  0.5369  0.0528  0.1376
16134TIP3    H169817   0.932   2.514  16.949  1.7589 -1.4102 -1.3793
16134TIP3    H269818   1.055   2.512  17.038  0.1500  0.9044  1.0439
16135TIP3   OH269819   3.595   1.305  16.481 -0.2677 -0.6991  0.2828
16135TIP3    H169820   3.542   1.374  16.440  0.4541 -0.4254 -0.2185
16135TIP3    H269821   3.548   1.224  16.461 -0.1470 -0.5263 -0.7463
16136TIP3   OH269822   0.891   3.714   5.021  0.0893  0.8193 -0.2741
16136TIP3    H169823   0.837   3.647   4.980  0.4654  0.1504  0.3076
16136TIP3    H269824   0.918   3.770   4.948  0.6465 -0.2753 -0.9325
16137TIP3   OH269825   4.685   4.242   4.722 -0.0960 -0.2755 -0.0905
16137TIP3    H169826   4.701   4.336   4.716 -0.1318 -0.3237 -1.0580
16137TIP3    H269827   4.686   4.211   4.631 -0.8779 -1.0770  0.1540
16138TIP3   OH269828   2.134   0.967  13.658 -0.1001 -0.4517 -0.1626
16138TIP3    H169829   2.195   1.019  13.605  0.1169  0.3928  0.8875
16138TIP3    H269830   2.052   0.970  13.609  0.4029 -0.6946 -1.0498
16139TIP3   OH269831   3.887   5.960  16.129 -0.1438  0.5572 -0.6799
16139TIP3    H169832   3.957   6.007  16.173  0.7228 -1.3374  0.0732
16139TIP3    H269833   3.825   6.028  16.103  0.8921  2.0536  0.5900
16140TIP3   OH269834   5.243   0.324  16.927  0.2295 -0.3756  0.3033
16140TIP3    H169835   5.221   0.235  16.956  2.3922 -0.1065  3.1034
16140TIP3    H269836   5.195   0.382  16.986  2.0231  0.2389  1.2186
16141TIP3   OH269837   2.999   5.707  11.689 -0.4267  0.5309  0.6564
16141TIP3    H169838   3.089   5.682  11.708 -0.2231  0.8898  0.2082
16141TIP3    H269839   2.981   5.670  11.603 -0.7869  0.2641  0.8453
16142TIP3   OH269840   3.629   2.329  15.726 -0.1106 -0.1427  0.0775
16142TIP3    H169841   3.593   2.404  15.774  1.7795 -1.2347  3.4369
16142TIP3    H269842   3.577   2.327  15.645 -1.9475  3.2144  0.9643
16143TIP3   OH269843   1.996   6.270  16.402 -0.1010 -0.7071  0.0740
16143TIP3    H169844   1.937   6.240  16.472  0.2144  0.4302  0.8591
16143TIP3    H269845   1.946   6.339  16.357 -0.7717 -2.2120 -1.6274
16144TIP3   OH269846   1.831   1.406  11.505 -0.0681 -0.3517 -0.5461
16144TIP3    H169847   1.873   1.369  11.583 -1.8719 -1.1054  0.1336
16144TIP3    H269848   1.769   1.339  11.477 -0.5386  0.5355 -1.7255
16145TIP3   OH269849   4.318   4.639   0.306  0.3228 -0.2502  0.6706
16145TIP3    H169850   4.345   4.729   0.289  2.0780 -0.7020  0.9290
16145TIP3    H269851   4.387   4.603   0.361 -0.6129 -1.6134  1.0030
16146TIP3   OH269852   5.751   2.027   3.616  0.1895  0.2644 -0.2886
16146TIP3    H169853   5.805   1.957   3.580 -0.2551 -0.4726  0.4388
16146TIP3    H269854   5.676   1.982   3.656  0.1135  1.1193  0.5675
16147TIP3   OH269855   2.459   3.577   1.264 -0.2441 -0.2526 -0.0835
16147TIP3    H169856   2.481   3.516   1.334 -0.5895 -0.9997 -0.6061
16147TIP3    H269857   2.366   3.596   1.277  0.0977  0.9783  0.6796
16148TIP3   OH269858   5.819   3.876  11.780  0.2344  0.5265 -0.7683
16148TIP3    H169859   5.815   3.813  11.709 -0.6069  1.2873 -1.4154
16148TIP3    H269860   5.875   3.946  11.748  0.2528  0.6375 -0.4979
16149TIP3   OH269861   1.393   2.813  16.633  0.5368  0.6703 -0.0379
16149TIP3    H169862   1.402   2.891  16.687  1.1119 -1.5684  3.4663
16149TIP3    H269863   1.475   2.806  16.585  0.2015  2.4859 -0.9425
16150TIP3   OH269864   4.871   2.565  16.101 -0.2395  0.3747  0.1343
16150TIP3    H169865   4.886   2.511  16.024  0.3431 -1.6102  1.5404
16150TIP3    H269866   4.778   2.587  16.098 -0.4023 -0.3678 -0.7077
16151TIP3   OH269867   0.329   3.387  12.423 -0.3780  0.7904  0.1662
16151TIP3    H169868   0.239   3.362  12.443 -1.3852  3.3759 -0.7065
16151TIP3    H269869   0.375   3.304  12.409 -3.2501 -0.5970 -1.9140
16152TIP3   OH269870   2.531   0.692   1.919  0.1439  0.5356 -0.5284
16152TIP3    H169871   2.467   0.632   1.957  0.5517  0.0505 -0.5829
16152TIP3    H269872   2.588   0.716   1.992  2.3185 -2.1777 -1.1483
16153TIP3   OH269873   6.762   0.032   0.507  0.0684 -0.2172  0.7031
16153TIP3    H169874   6.852   0.066   0.512  0.2653 -0.8040  1.3805
16153TIP3    H269875   6.743   0.028   0.414  0.5998  0.2957  0.5646
16154TIP3   OH269876   4.174   3.101   2.638 -0.3122 -0.1768  0.6265
16154TIP3    H169877   4.175   3.116   2.543 -0.6216 -0.4746  0.5776
16154TIP3    H269878   4.242   3.160   2.671  0.0504 -0.3335  0.1797
16155TIP3   OH269879   1.087   0.049   2.460  0.4958  0.1075 -0.5852
16155TIP3    H169880   1.023  -0.010   2.420  2.3744 -1.3742 -1.5662
16155TIP3    H269881   1.076   0.037   2.554 -0.0613 -0.7877 -0.7557
16156TIP3   OH269882   6.180   5.498   0.598  0.2038  0.0507 -0.1723
16156TIP3    H169883   6.251   5.553   0.633  0.6244  0.5617 -1.7167
16156TIP3    H269884   6.148   5.548   0.523 -0.8451 -0.8571 -0.3387
16157TIP3   OH269885   2.880   0.050  16.513  0.0810 -0.7333  0.2816
16157TIP3    H169886   2.838  -0.025  16.469 -0.9469 -0.5779  0.9565
16157TIP3    H269887   2.900   0.018  16.601 -0.6469 -0.1375  0.6740
16158TIP3   OH269888   5.213   2.980  17.113 -0.3438  0.0129  0.1460
16158TIP3    H169889   5.304   3.004  17.132 -0.2311 -0.6171  0.4486
16158TIP3    H269890   5.165   3.063  17.115  0.5622  0.6618 -2.1214
16159TIP3   OH269891   3.437   3.524   3.522 -0.9685 -0.6507  0.2415
16159TIP3    H169892   3.505   3.480   3.471 -2.0277 -0.9674 -0.9350
16159TIP3    H269893   3.451   3.493   3.612  1.0859  0.1253  0.2479
16160TIP3   OH269894   4.935   1.224  11.977  0.7122 -0.1302  0.1746
16160TIP3    H169895   4.960   1.282  11.905 -0.5771  1.3525  0.8523
16160TIP3    H269896   4.843   1.245  11.994  0.3417 -2.0734  0.7749
16161TIP3   OH269897   5.034   0.932  13.170 -0.2999 -0.6623 -0.1903
16161TIP3    H169898   5.067   0.882  13.245  0.3766 -0.6057 -0.4393
16161TIP3    H269899   4.978   0.870  13.123  0.4891 -1.1878 -0.4677
16162TIP3   OH269900   0.014   0.786  11.531 -0.4976 -0.5004  0.2949
16162TIP3    H169901  -0.009   0.693  11.525 -0.5776 -0.3821 -2.4875
16162TIP3    H269902   0.024   0.814  11.440  0.5210  1.9950  1.0996
16163TIP3   OH269903   3.070   2.790   4.822 -0.3019  0.5675 -0.0301
16163TIP3    H169904   2.981   2.819   4.841 -0.7628 -0.3074 -0.7805
16163TIP3    H269905   3.083   2.714   4.880  0.4795  1.5322  1.0963
16164TIP3   OH269906   1.407   3.812   4.178 -0.0541 -0.0685  0.1708
16164TIP3    H169907   1.472   3.756   4.220 -0.9298 -1.3462 -0.1397
16164TIP3    H269908   1.412   3.894   4.227  2.4131  0.2147 -0.4164
16165TIP3   OH269909   1.268   4.945  13.481  0.1422  0.2111 -0.2600
16165TIP3    H169910   1.207   5.008  13.520 -1.1927 -1.1055 -0.1190
16165TIP3    H269911   1.239   4.938  13.390  1.0758  0.7328 -0.5976
16166TIP3   OH269912   1.611   1.823  13.111 -0.3265 -0.7934  0.2681
16166TIP3    H169913   1.613   1.918  13.126 -1.0706 -0.8875  1.0542
16166TIP3    H269914   1.527   1.795  13.147  0.4161 -1.9366  1.1835
16167TIP3   OH269915   4.893   2.836  14.790  0.3422 -0.3171  0.2841
16167TIP3    H169916   4.919   2.749  14.822  1.8420 -0.2056 -0.5894
16167TIP3    H269917   4.959   2.860  14.726  0.3452  1.7859  0.9963
16168TIP3   OH269918   1.670   0.953   1.769 -0.0929 -0.2635 -0.0904
16168TIP3    H169919   1.708   1.035   1.737 -1.2623  0.3352 -0.0033
16168TIP3    H269920   1.600   0.981   1.828 -0.6912 -1.3234 -0.2776
16169TIP3   OH269921   6.053   2.531   5.310 -0.1484  0.4929 -0.3637
16169TIP3    H169922   6.076   2.468   5.378  2.1883  0.9304 -0.6914
16169TIP3    H269923   6.054   2.481   5.228  1.6594  0.8998 -0.6178
16170TIP3   OH269924   1.010   0.502  17.189  0.0263  0.1620 -0.3521
16170TIP3    H169925   0.941   0.564  17.211 -0.0401  0.3259 -1.0262
16170TIP3    H269926   1.059   0.491  17.271 -1.2128 -0.5009  0.3290
16171TIP3   OH269927   1.284   2.267   1.327 -0.3812 -0.8079 -0.0978
16171TIP3    H169928   1.201   2.221   1.311  0.0147 -1.4548 -0.3229
16171TIP3    H269929   1.265   2.325   1.401 -1.0630 -0.8799 -0.2096
16172TIP3   OH269930   0.912   0.889   4.327  0.3019  0.3678 -0.0979
16172TIP3    H169931   0.982   0.883   4.262 -1.3307  0.1836 -1.9661
16172TIP3    H269932   0.940   0.957   4.387  0.6295  2.7455 -2.7496
16173TIP3   OH269933   4.533   1.955  15.384  0.4554  0.6217  0.1912
16173TIP3    H169934   4.478   1.881  15.412 -0.0366  1.1423  0.6208
16173TIP3    H269935   4.561   1.997  15.465 -1.3462  2.4008 -0.0321
16174TIP3   OH269936   6.149   5.523  14.243 -0.4081 -0.1315  0.5226
16174TIP3    H169937   6.200   5.443  14.259  0.5922  0.2984 -0.3486
16174TIP3    H269938   6.151   5.534  14.148 -2.6335 -0.3881  0.4007
16175TIP3   OH269939   0.293   3.745  14.831 -0.0351  0.7317  0.2586
16175TIP3    H169940   0.225   3.690  14.870  1.2231  0.6256  2.4212
16175TIP3    H269941   0.266   3.835  14.851 -2.2993  1.1554 -3.6093
16176TIP3   OH269942   5.427   1.540   5.806 -0.2406  0.0284  0.3526
16176TIP3    H169943   5.470   1.467   5.761  1.4402 -0.0538  1.9443
16176TIP3    H269944   5.342   1.506   5.832  0.1042 -1.0215  0.1547
16177TIP3   OH269945   4.507   2.029  13.066  0.0755  0.5277 -0.2773
16177TIP3    H169946   4.539   2.074  12.987  1.8336  0.1207  0.1469
16177TIP3    H269947   4.499   2.098  13.131  3.7527  0.2886  0.6794
16178TIP3   OH269948   2.991   3.850  16.377 -0.5662 -0.4448  0.3713
16178TIP3    H169949   2.983   3.924  16.316  0.5013  0.0220  0.7804
16178TIP3    H269950   2.929   3.785  16.343 -0.1942 -0.0950 -1.0639
16179TIP3   OH269951   5.411   3.325   3.313  0.2036  0.0107  0.7270
16179TIP3    H169952   5.445   3.252   3.260 -0.5257  0.3001 -0.1584
16179TIP3    H269953   5.381   3.283   3.394 -0.6880 -0.7648  0.0134
16180TIP3   OH269954   5.622   3.544   1.228  0.3822 -0.6394  0.5133
16180TIP3    H169955   5.596   3.455   1.254 -0.4798  0.2185  2.8532
16180TIP3    H269956   5.682   3.572   1.297  0.4201  0.6931 -0.0421
16181TIP3   OH269957   2.835   1.351  13.924  0.3051  0.7205 -0.0571
16181TIP3    H169958   2.870   1.304  14.000  0.7468  0.4454 -0.4272
16181TIP3    H269959   2.874   1.438  13.930  0.2128  0.7520  0.1155
16182TIP3   OH269960   2.221   4.963  14.432  0.3251  0.1924 -0.5100
16182TIP3    H169961   2.255   5.022  14.365 -0.9870 -0.0768 -1.4564
16182TIP3    H269962   2.292   4.903  14.451  1.3141  1.3808 -0.3476
16183TIP3   OH269963   4.526   1.139  16.311  0.4694  0.3191  0.0052
16183TIP3    H169964   4.615   1.150  16.279 -0.7245  0.6398 -3.6117
16183TIP3    H269965   4.510   1.045  16.307  0.5481  0.2753  0.5365
16184TIP3   OH269966   4.876   4.082   3.569 -0.3384 -0.3987 -0.1136
16184TIP3    H169967   4.954   4.125   3.534 -1.3485  0.6030 -1.1888
16184TIP3    H269968   4.805   4.109   3.512 -1.2337 -2.6185 -0.1559
16185TIP3   OH269969   6.024   3.982   4.430 -0.1995  0.0433 -0.0617
16185TIP3    H169970   6.096   4.008   4.372 -1.3480  1.5844 -0.8625
16185TIP3    H269971   6.014   4.056   4.490 -1.5303  0.1424 -0.3811
16186TIP3   OH269972   6.517   2.709   3.327 -0.3498  0.1753 -0.2843
16186TIP3    H169973   6.511   2.759   3.245 -0.5723 -0.0011 -0.3759
16186TIP3    H269974   6.601   2.664   3.322 -0.7574 -0.5371 -0.8147
16187TIP3   OH269975   3.478   5.174  15.386  0.0618 -0.1218  0.0435
16187TIP3    H169976   3.388   5.179  15.419  1.1977  1.2542  3.3235
16187TIP3    H269977   3.509   5.088  15.415  0.1411 -0.1859 -0.2248
16188TIP3   OH269978   5.014   5.705  14.785 -0.8851 -0.2447 -0.0405
16188TIP3    H169979   5.102   5.736  14.762 -1.3875  0.9487 -0.4492
16188TIP3    H269980   5.028   5.641  14.854  0.3562 -0.5718 -0.5662
16189TIP3   OH269981   6.001   0.441   3.621 -0.1716 -0.1135  0.2762
16189TIP3    H169982   6.081   0.432   3.673  1.2200  1.3424 -1.4785
16189TIP3    H269983   5.938   0.480   3.681  1.0944  0.6835  1.1422
16190TIP3   OH269984   3.507   4.076   6.004  0.0945  0.5776 -0.5184
16190TIP3    H169985   3.451   4.153   6.016 -1.2391 -0.2339 -1.2387
16190TIP3    H269986   3.479   4.016   6.074 -1.9709 -0.9224 -2.4566
16191TIP3   OH269987   0.229   2.701   4.420 -0.2400 -0.0561  0.1529
16191TIP3    H169988   0.320   2.705   4.390  0.1039  0.9874  1.2568
16191TIP3    H269989   0.226   2.625   4.478 -0.9567 -2.2108 -2.4886
16192TIP3   OH269990   3.905   6.768  13.802 -0.3953  0.3723 -0.1387
16192TIP3    H169991   3.820   6.803  13.778 -0.2530 -0.3678 -1.8250
16192TIP3    H269992   3.886   6.685  13.847 -0.6950  2.0746  3.2013
16193TIP3   OH269993   6.123   5.476   1.741  0.2008  0.4996  0.2082
16193TIP3    H169994   6.029   5.477   1.759  0.2201 -1.4947  0.5996
16193TIP3    H269995   6.156   5.555   1.785 -1.3667  1.6619 -0.6047
16194TIP3   OH269996   3.254   3.409   1.840  0.5361  0.6961  0.2975
16194TIP3    H169997   3.160   3.403   1.827  0.3545  1.7986  0.9368
16194TIP3    H269998   3.266   3.406   1.935  1.3639 -1.7674  0.1792
16195TIP3   OH269999   2.304   3.982   0.017 -0.5940  0.7071  0.2435
16195TIP3    H170000   2.362   4.058   0.011  2.0392 -1.1204  0.7962
16195TIP3    H270001   2.321   3.945   0.103 -0.9606 -1.1133 -0.4212
16196TIP3   OH270002   4.879   5.121   3.182  0.0862  0.5127 -0.4631
16196TIP3    H170003   4.927   5.058   3.235  0.9310  0.8222 -0.8341
16196TIP3    H270004   4.797   5.077   3.159 -0.0526  0.1774  0.6349
16197TIP3   OH270005   0.037   1.396  13.848 -0.1415  0.0285  0.3468
16197TIP3    H170006   0.025   1.411  13.754 -0.3390  0.6013  0.4597
16197TIP3    H270007   0.122   1.352  13.854 -0.8498 -1.5030 -0.2228
16198TIP3   OH270008   6.472   1.163  15.158  0.5614  0.1372  0.5368
16198TIP3    H170009   6.474   1.230  15.089  0.8328 -0.1074  0.3048
16198TIP3    H270010   6.531   1.196  15.225 -0.5938  0.9498  1.1966
16199TIP3   OH270011   3.502   4.263   5.006 -0.9078  0.5269  0.1946
16199TIP3    H170012   3.551   4.189   5.042 -0.8668  0.1511 -0.6008
16199TIP3    H270013   3.410   4.241   5.020 -0.8829  0.6212  0.5159
16200TIP3   OH270014   6.530   1.182  12.769 -0.4074 -0.0067  0.2549
16200TIP3    H170015   6.523   1.199  12.863  1.2270 -1.2772  0.6376
16200TIP3    H270016   6.457   1.122  12.751  0.9795 -2.1669  1.3768
16201TIP3   OH270017   3.639   2.828   1.077 -0.1648  0.0849  0.4308
16201TIP3    H170018   3.686   2.869   1.004  0.7957  0.4973  1.2535
16201TIP3    H270019   3.607   2.745   1.041  1.0204 -0.1172 -0.2294
16202TIP3   OH270020   3.379   1.140  16.426  0.3758  0.7504 -0.1518
16202TIP3    H170021   3.355   1.061  16.474  4.5112 -1.7413 -1.6840
16202TIP3    H270022   3.381   1.113  16.334  1.3553  2.8231 -0.8042
16203TIP3   OH270023   0.361   4.883   6.052  0.3318  0.0627 -0.2595
16203TIP3    H170024   0.445   4.847   6.080 -0.1671 -0.8608  0.0948
16203TIP3    H270025   0.315   4.904   6.133  0.9892  2.5078 -0.4442
16204TIP3   OH270026   0.413   1.666  10.422 -0.1336 -0.0367  0.2750
16204TIP3    H170027   0.399   1.574  10.402 -1.0009 -0.2810  1.8593
16204TIP3    H270028   0.333   1.695  10.465  0.0446  1.5212 -0.3644
16205TIP3   OH270029   5.798   3.985  14.841  0.3797  0.1359  0.3420
16205TIP3    H170030   5.741   3.991  14.765 -0.2869  1.1873  0.8993
16205TIP3    H270031   5.879   3.946  14.807 -0.5134 -1.0561 -0.5345
16206TIP3   OH270032   0.296   3.760   4.081  0.1350  0.1357  0.2493
16206TIP3    H170033   0.336   3.805   4.155 -1.6321  0.5330  1.0079
16206TIP3    H270034   0.233   3.700   4.120 -0.6368  0.1582 -0.8949
16207TIP3   OH270035   4.826   3.175  11.649  1.2994 -0.0259 -0.2408
16207TIP3    H170036   4.745   3.142  11.611  0.1150  1.5751  0.7681
16207TIP3    H270037   4.849   3.250  11.594  1.0902  0.6163  0.5270
16208TIP3   OH270038   4.762   5.636   4.335  0.4015 -0.6355  0.1429
16208TIP3    H170039   4.681   5.601   4.299 -0.2096 -0.4236  1.2956
16208TIP3    H270040   4.822   5.637   4.260 -0.3274 -1.7545 -0.4833
16209TIP3   OH270041   2.355   4.681  11.408 -0.4051 -0.0285 -0.5049
16209TIP3    H170042   2.365   4.776  11.407 -2.2442  0.2016 -0.0464
16209TIP3    H270043   2.426   4.649  11.352  0.2913  1.5943 -0.6063
16210TIP3   OH270044   6.588   5.776   5.381  0.0423  0.7457 -0.3591
16210TIP3    H170045   6.625   5.840   5.442  0.6673  1.6516 -1.6487
16210TIP3    H270046   6.664   5.728   5.348 -0.1295  1.1841 -1.4327
16211TIP3   OH270047   4.564   1.792   5.342  0.1776 -0.6294  0.0886
16211TIP3    H170048   4.542   1.699   5.340  1.2784 -0.9442 -2.4207
16211TIP3    H270049   4.618   1.805   5.264  0.8725  1.9358  0.8879
16212TIP3   OH270050   6.531   4.468  13.382 -0.5606  0.2954 -0.0846
16212TIP3    H170051   6.497   4.386  13.346  0.7319 -1.8323  3.0892
16212TIP3    H270052   6.455   4.526  13.387 -1.9344 -1.3766 -0.6584
16213TIP3   OH270053   0.533   3.929  15.988  0.2479 -0.1091  0.4536
16213TIP3    H170054   0.524   3.839  15.957 -0.7069 -0.1792  0.8826
16213TIP3    H270055   0.618   3.958  15.955 -0.3287 -0.4610 -1.5103
16214TIP3   OH270056   3.984   2.551   1.489  0.2148 -0.0083 -0.3292
16214TIP3    H170057   3.933   2.545   1.408 -0.6197 -2.3801  0.2888
16214TIP3    H270058   3.921   2.581   1.555  0.5972  0.7843 -0.3224
16215TIP3   OH270059   4.275   3.554  17.076 -0.0599 -0.2594 -0.0933
16215TIP3    H170060   4.230   3.480  17.116  1.0723 -1.8028 -1.5362
16215TIP3    H270061   4.210   3.592  17.016  0.4370 -2.4685 -2.1660
16216TIP3   OH270062   1.105   3.248   4.473  0.5730 -0.6182  0.2197
16216TIP3    H170063   1.183   3.304   4.469  0.6661 -0.8048 -0.8108
16216TIP3    H270064   1.033   3.305   4.448  0.5426 -0.7305  0.0489
16217TIP3   OH270065   0.686   0.999  11.126  0.2727  0.1286  0.1455
16217TIP3    H170066   0.670   1.093  11.126  2.1363  0.4769  0.5146
16217TIP3    H270067   0.772   0.989  11.085  1.1833 -1.1788  2.1850
16218TIP3   OH270068   5.904   2.836   5.262 -0.2311 -0.2791 -0.8345
16218TIP3    H170069   5.939   2.827   5.173 -0.5736 -0.6406 -0.9389
16218TIP3    H270070   5.817   2.795   5.257 -0.6426  0.5250 -0.5683
16219TIP3   OH270071   2.976   3.753   0.196  0.0045 -0.2653  0.0021
16219TIP3    H170072   3.060   3.711   0.177  1.2817  2.7973 -1.9238
16219TIP3    H270073   2.922   3.736   0.118  0.2521  0.8672 -0.4414
16220TIP3   OH270074   0.861   1.830  16.673 -0.1807  0.4026 -0.4055
16220TIP3    H170075   0.907   1.752  16.642  1.4393 -0.0661  2.7195
16220TIP3    H270076   0.912   1.903  16.639  0.9761 -0.0585  0.2827
16221TIP3   OH270077   6.310   3.251  15.849 -0.1307 -1.1088  0.1159
16221TIP3    H170078   6.381   3.201  15.810 -0.4923 -1.0501 -0.6369
16221TIP3    H270079   6.269   3.191  15.911  0.1974 -1.3375  0.1121
16222TIP3   OH270080   3.449   2.177  10.859  0.0382 -0.1202  0.4754
16222TIP3    H170081   3.447   2.210  10.769  1.1173  1.3899  0.9618
16222TIP3    H270082   3.495   2.093  10.852 -1.2218 -0.7625 -0.5620
16223TIP3   OH270083   2.420   0.390  12.551  0.0969 -0.6595  0.0786
16223TIP3    H170084   2.400   0.414  12.461 -0.8613 -1.2816  0.1089
16223TIP3    H270085   2.512   0.411  12.562  0.0280  0.1355 -0.8087
16224TIP3   OH270086   3.782   3.487  16.531  0.4023  0.1632 -0.2717
16224TIP3    H170087   3.797   3.526  16.445  0.5434  1.6399  0.3977
16224TIP3    H270088   3.803   3.394  16.519 -0.0616  0.2449 -1.9416
16225TIP3   OH270089   5.303   0.658   1.198  0.4164 -0.2656  0.7244
16225TIP3    H170090   5.290   0.664   1.293  2.3486  1.9815  0.9446
16225TIP3    H270091   5.235   0.715   1.161 -0.3427 -1.1489  0.7017
16226TIP3   OH270092   1.417   5.192  15.773  0.5615  0.6042  0.3358
16226TIP3    H170093   1.434   5.161  15.684 -0.3721  0.2278  0.2787
16226TIP3    H270094   1.418   5.288  15.766  1.3449  0.5869  0.0998
16227TIP3   OH270095   0.412   0.077  16.758  0.2070  0.0374  0.0799
16227TIP3    H170096   0.459  -0.004  16.739 -1.2218 -0.9983  0.7419
16227TIP3    H270097   0.476   0.147  16.746  1.8726 -1.2947  0.9612
16228TIP3   OH270098   2.784   6.217  10.791  0.1915 -0.1366  0.0295
16228TIP3    H170099   2.788   6.135  10.743 -0.4028 -0.0404 -0.1896
16228TIP3    H270100   2.752   6.281  10.728  0.7431  0.2910  0.1684
16229TIP3   OH270101   1.444   2.749  14.120  0.1646  0.0312 -0.0808
16229TIP3    H170102   1.458   2.655  14.130 -0.4638 -0.0810 -0.2359
16229TIP3    H270103   1.351   2.758  14.102  0.2814  0.6564 -0.4083
16230TIP3   OH270104   4.898   0.609  16.403  0.2010  0.5924 -0.3564
16230TIP3    H170105   4.933   0.520  16.392  0.8993  0.9392 -1.0076
16230TIP3    H270106   4.813   0.596  16.444  0.7650 -0.3237  0.5808
16231TIP3   OH270107   0.510   3.366   4.780 -0.4884  0.0691 -0.1587
16231TIP3    H170108   0.497   3.420   4.858  0.5005 -0.7504  0.6039
16231TIP3    H270109   0.587   3.312   4.800  0.3811  0.4983 -2.0711
16232TIP3   OH270110   2.256   0.709   2.398 -0.3858 -0.1042  0.1704
16232TIP3    H170111   2.308   0.630   2.391 -2.0141 -1.2042 -0.0054
16232TIP3    H270112   2.231   0.714   2.491 -2.3237 -1.2063 -0.2406
16233TIP3   OH270113   1.323   0.838  13.040  0.2824 -0.5470  0.6318
16233TIP3    H170114   1.277   0.892  13.105 -0.2111 -0.7500  0.4503
16233TIP3    H270115   1.313   0.886  12.958 -0.6790 -1.2142  0.3528
16234TIP3   OH270116   0.703   1.024  12.690 -0.5925 -0.6224  0.3223
16234TIP3    H170117   0.697   0.952  12.627  2.0123 -1.5011  0.9601
16234TIP3    H270118   0.775   1.078  12.657 -2.5999  1.8685 -0.2406
16235TIP3   OH270119   2.470   5.112   4.327 -0.4566 -0.1144  0.0507
16235TIP3    H170120   2.405   5.053   4.287  0.3019 -1.2105  0.4015
16235TIP3    H270121   2.460   5.099   4.421  0.8748 -1.0013  0.0992
16236TIP3   OH270122   1.025   0.720   1.564  0.1490 -0.0892 -0.1131
16236TIP3    H170123   1.024   0.761   1.478  2.3224 -0.5415 -0.4119
16236TIP3    H270124   1.061   0.787   1.622  3.7557 -1.3774 -0.6102
16237TIP3   OH270125   5.803   0.162   2.428 -0.0407 -0.4132 -0.8498
16237TIP3    H170126   5.799   0.149   2.523  0.1846  1.2464 -0.5814
16237TIP3    H270127   5.727   0.217   2.408 -0.0457 -0.6925 -1.6332
16238TIP3   OH270128   1.748   3.779  11.569 -1.0298 -0.1490  0.2639
16238TIP3    H170129   1.743   3.754  11.662  1.2153 -0.8333  0.2531
16238TIP3    H270130   1.841   3.794  11.553 -1.5838  2.3755 -1.2990
16239TIP3   OH270131   1.993   2.138   1.764 -0.1652  0.1840  0.2635
16239TIP3    H170132   2.074   2.091   1.746  1.0139  2.0497  0.3998
16239TIP3    H270133   1.948   2.140   1.679 -1.0081 -2.4085  0.5593
16240TIP3   OH270134   5.981   4.861   2.619  0.0271 -0.0918  0.8913
16240TIP3    H170135   5.968   4.792   2.685 -1.8228  0.6089  1.3013
16240TIP3    H270136   5.904   4.854   2.562  0.4203  0.8603  0.2287
16241TIP3   OH270137   0.715   4.475   4.288  0.0279 -0.0199  0.3287
16241TIP3    H170138   0.774   4.548   4.273 -0.2338  0.2380  0.5503
16241TIP3    H270139   0.760   4.399   4.250  0.5766  0.1431  0.6537
16242TIP3   OH270140   2.454   4.442   1.199 -0.5169 -0.1018  0.6097
16242TIP3    H170141   2.538   4.399   1.216  0.3494  1.4765  0.5200
16242TIP3    H270142   2.429   4.480   1.283 -1.2357 -0.6837  0.6710
16243TIP3   OH270143   6.407   0.347   0.696  0.0291  0.3143  0.0262
16243TIP3    H170144   6.331   0.333   0.639 -1.8486  0.6057  2.2861
16243TIP3    H270145   6.369   0.367   0.782  2.6531 -1.1934  1.6966
16244TIP3   OH270146   1.325   4.745   3.919  0.1499 -0.0796  0.0210
16244TIP3    H170147   1.322   4.673   3.856 -0.6665  1.0299 -1.2472
16244TIP3    H270148   1.412   4.739   3.958  0.7223 -0.7142 -1.3073
16245TIP3   OH270149   6.199   4.747  12.802  0.2420  0.6267  0.1144
16245TIP3    H170150   6.155   4.777  12.723  1.1950 -2.3453 -1.7274
16245TIP3    H270151   6.292   4.744  12.778  0.4712 -1.0757  1.0138
16246TIP3   OH270152   1.268   2.117  12.299  0.6121  0.3210  1.0970
16246TIP3    H170153   1.304   2.055  12.235  0.7346 -1.9269  3.1845
16246TIP3    H270154   1.310   2.200  12.278 -0.3080  0.0866 -2.4960
16247TIP3   OH270155   6.572   3.430   0.964  0.1899 -0.4246 -0.1613
16247TIP3    H170156   6.593   3.522   0.980  1.2874 -0.9775  2.0333
16247TIP3    H270157   6.482   3.420   0.994  0.4726 -0.3047  0.7462
16248TIP3   OH270158   6.532   5.983   1.536  0.3188 -0.1465 -0.2333
16248TIP3    H170159   6.541   6.057   1.596 -1.2496 -1.4739  1.7651
16248TIP3    H270160   6.501   6.022   1.454 -0.1605  1.4570  0.6684
16249TIP3   OH270161   5.977   0.915   4.100  0.5209 -0.0216 -0.4793
16249TIP3    H170162   6.050   0.937   4.042  0.0316  0.8917 -0.7610
16249TIP3    H270163   5.938   0.837   4.061  0.5688  0.2304 -1.0413
16250TIP3   OH270164   0.219   5.791  13.932  0.8251  0.3376  0.8333
16250TIP3    H170165   0.183   5.795  14.021 -0.7399  0.1778  0.2384
16250TIP3    H270166   0.163   5.849  13.881  1.3354 -0.0477 -0.1799
16251TIP3   OH270167   2.676   0.298   0.553 -0.1253  0.3028  0.3894
16251TIP3    H170168   2.609   0.316   0.618  0.2429  0.5134  0.7098
16251TIP3    H270169   2.758   0.329   0.592  0.4055 -1.2806  0.6264
16252TIP3   OH270170   6.551   0.447  12.959  0.2662  0.7256 -0.4101
16252TIP3    H170171   6.459   0.466  12.938  0.2692  0.2016 -0.9245
16252TIP3    H270172   6.597   0.528  12.936 -0.0712  1.0095 -0.1048
16253TIP3   OH270173   2.027   6.174   0.548 -0.2297  0.2564 -0.6797
16253TIP3    H170174   1.942   6.210   0.572 -0.9532 -0.9313 -1.3630
16253TIP3    H270175   2.010   6.122   0.470  0.5913 -2.1489  0.6522
16254TIP3   OH270176   1.519   6.611   2.434  0.6791  0.0145 -0.6881
16254TIP3    H170177   1.484   6.688   2.479  0.2492 -0.6651  0.1767
16254TIP3    H270178   1.473   6.609   2.350 -0.3225 -0.0522 -0.1514
16255TIP3   OH270179   3.448   5.018   2.472  0.1427 -0.3739 -0.7223
16255TIP3    H170180   3.354   5.011   2.458  0.2856 -0.4379 -1.6898
16255TIP3    H270181   3.463   4.974   2.556 -1.0383  1.9879  0.8465
16256TIP3   OH270182   4.754   6.149   2.649  0.0790 -0.2618 -0.6271
16256TIP3    H170183   4.776   6.056   2.639  0.2780 -0.1493 -1.2777
16256TIP3    H270184   4.826   6.185   2.702 -1.3458 -1.0092  1.9807
16257TIP3   OH270185   1.810   3.472  14.827  0.5488  0.0625  0.0936
16257TIP3    H170186   1.716   3.468  14.809  0.4522 -0.9334  0.7726
16257TIP3    H270187   1.819   3.548  14.885  0.3006  0.7000 -0.6693
16258TIP3   OH270188   3.421   5.847   0.899 -0.9020  0.0909  0.5417
16258TIP3    H170189   3.435   5.840   0.993  0.4637 -0.7563  0.3084
16258TIP3    H270190   3.400   5.939   0.884  1.7649  0.9179  1.3644
16259TIP3   OH270191   3.609   5.822  12.394  0.1872 -0.2742 -0.2362
16259TIP3    H170192   3.579   5.888  12.456  1.6816  1.5528 -1.3701
16259TIP3    H270193   3.662   5.870  12.330  2.8451 -2.7747 -0.1437
16260TIP3   OH270194   5.482   0.980  14.212 -0.3906  0.3084 -0.3942
16260TIP3    H170195   5.402   0.929  14.227 -0.1423  0.1126  0.2759
16260TIP3    H270196   5.452   1.057  14.164 -0.7225 -0.6425 -1.7805
16261TIP3   OH270197   3.644   0.769  11.254 -0.3637 -0.4142  0.1447
16261TIP3    H170198   3.682   0.740  11.337 -1.7406 -0.6965  0.6998
16261TIP3    H270199   3.566   0.817  11.279  0.8510  2.3023 -0.8402
16262TIP3   OH270200   2.691   0.716  12.097  0.1802  0.0025  0.4468
16262TIP3    H170201   2.739   0.788  12.057 -1.1348  1.8732  2.0396
16262TIP3    H270202   2.634   0.683  12.027 -0.1154  1.3854  0.0113
16263TIP3   OH270203   5.631   3.649  11.457 -0.1738  0.3564  0.3324
16263TIP3    H170204   5.660   3.560  11.440 -0.1418  0.7184 -1.8909
16263TIP3    H270205   5.598   3.680  11.372  0.5567  2.7242  0.8231
16264TIP3   OH270206   1.681   3.245  16.995  0.7477  0.2936 -0.2672
16264TIP3    H170207   1.674   3.337  16.973  2.0850  0.4097 -0.2891
16264TIP3    H270208   1.634   3.236  17.078  0.4432  0.9537 -0.3658
16265TIP3   OH270209   2.662   3.610   3.934 -0.4671  0.3623  0.1820
16265TIP3    H170210   2.746   3.638   3.969 -1.0198  0.9940  1.0258
16265TIP3    H270211   2.667   3.631   3.840  0.5315 -0.1700  0.1026
16266TIP3   OH270212   3.278   1.741  17.192 -0.0539 -1.0411  0.3612
16266TIP3    H170213   3.291   1.742  17.097 -2.3932  0.3374 -0.0170
16266TIP3    H270214   3.354   1.693  17.226  2.5612  1.1733 -1.9121
16267TIP3   OH270215   4.984   2.017  11.669  0.5250 -0.5531 -0.1476
16267TIP3    H170216   5.074   2.034  11.641  1.1712 -1.5041  1.1983
16267TIP3    H270217   4.981   1.923  11.685 -0.6756 -0.5143 -0.0067
16268TIP3   OH270218   5.351   0.237   0.829  0.1895 -0.2151  0.1745
16268TIP3    H170219   5.279   0.297   0.846 -0.7164 -0.7128 -1.6552
16268TIP3    H270220   5.355   0.229   0.734  1.2670 -1.8709  0.2976
16269TIP3   OH270221   5.083   4.544   0.383  0.1346 -0.2279  0.4003
16269TIP3    H170222   5.164   4.578   0.344  0.2679 -1.2546 -0.2604
16269TIP3    H270223   5.095   4.449   0.383 -0.3931 -0.3112  1.8215
16270TIP3   OH270224   4.599   2.822  16.787 -0.1178 -0.1564  0.4660
16270TIP3    H170225   4.584   2.902  16.736 -1.7195 -1.2874 -0.9668
16270TIP3    H270226   4.533   2.825  16.856 -1.1553 -0.8816 -0.4592
16271TIP3   OH270227   2.073   3.332   5.116 -0.2969  0.2666 -0.2402
16271TIP3    H170228   2.093   3.329   5.023 -2.0049  0.5570 -0.6447
16271TIP3    H270229   2.094   3.421   5.143 -1.9441  0.8915 -0.8989
16272TIP3   OH270230   6.557   3.178   3.947 -0.5299 -0.2799  0.0924
16272TIP3    H170231   6.497   3.104   3.948 -0.8792 -0.0237 -1.2020
16272TIP3    H270232   6.532   3.229   4.024 -1.7339 -0.3704 -0.2146
16273TIP3   OH270233   5.473   2.909  14.073  0.0532  0.3644 -0.0706
16273TIP3    H170234   5.501   2.912  13.982  1.4054  0.9941  0.3385
16273TIP3    H270235   5.492   2.820  14.101 -1.4189 -0.1727 -0.6958
16274TIP3   OH270236   2.488   1.211   2.478 -0.1017 -1.0983  0.0356
16274TIP3    H170237   2.562   1.160   2.508  1.4902 -0.9957 -3.3219
16274TIP3    H270238   2.428   1.147   2.440 -0.5031 -0.9309  0.3796
16275TIP3   OH270239   1.502   5.160   5.269  0.0946  0.1124 -0.0027
16275TIP3    H170240   1.520   5.066   5.267 -2.0746 -0.3788  1.1069
16275TIP3    H270241   1.561   5.195   5.335  2.1801 -0.0938 -1.6385
16276TIP3   OH270242   2.296   3.065  11.627  0.3876  0.4757 -0.6835
16276TIP3    H170243   2.225   3.129  11.638  0.9834  1.5483 -2.5063
16276TIP3    H270244   2.356   3.085  11.698 -1.1094 -0.4948  0.9343
16277TIP3   OH270245   1.109   4.783   2.006  0.3641 -0.5207  0.0508
16277TIP3    H170246   1.111   4.799   2.100 -2.5091  2.2159 -0.2094
16277TIP3    H270247   1.122   4.869   1.966  1.0359 -1.5402 -2.0912
16278TIP3   OH270248   4.779   3.981   0.517 -0.1804 -0.0612 -0.5075
16278TIP3    H170249   4.811   3.922   0.449  0.3599  1.8204 -1.9770
16278TIP3    H270250   4.684   3.971   0.516 -0.0217 -1.9315  0.3021
16279TIP3   OH270251   4.365   3.418  16.815 -0.0025  0.0246 -0.0878
16279TIP3    H170252   4.431   3.378  16.872 -2.2463 -2.8561  0.6838
16279TIP3    H270253   4.324   3.485  16.870 -0.1808 -0.7278  0.7173
16280TIP3   OH270254   4.971   0.483   1.111 -0.0384 -0.3708  0.0449
16280TIP3    H170255   5.056   0.492   1.154 -0.4108  2.5634  0.3448
16280TIP3    H270256   4.970   0.551   1.044 -1.7383 -1.1021 -0.7445
16281TIP3   OH270257   1.853   4.616   3.287 -0.5966  0.0439 -0.3368
16281TIP3    H170258   1.914   4.544   3.305  0.0460  0.2187 -1.7324
16281TIP3    H270259   1.899   4.671   3.223 -2.0293  0.4392 -1.0570
16282TIP3   OH270260   3.624   5.853  10.128  0.0348  0.1377 -0.3481
16282TIP3    H170261   3.685   5.921  10.101  1.0192  0.6667  2.7212
16282TIP3    H270262   3.537   5.894  10.120  0.3259  0.5481 -1.6184
16283TIP3   OH270263   3.833   2.251   4.400 -0.0738  0.2003 -0.2324
16283TIP3    H170264   3.754   2.294   4.367 -0.6041  0.9795  1.9265
16283TIP3    H270265   3.887   2.322   4.434  0.5268 -0.5426  0.4080
16284TIP3   OH270266   1.098   5.690  13.027  0.3518 -0.2465  0.1881
16284TIP3    H170267   1.057   5.752  12.967 -0.1436 -0.9864 -0.2550
16284TIP3    H270268   1.069   5.717  13.114  0.9487  0.7361  0.0973
16285TIP3   OH270269   2.234   2.326   4.069  0.7958  0.0038 -0.5096
16285TIP3    H170270   2.299   2.332   4.139  1.1688 -0.1036 -0.8481
16285TIP3    H270271   2.242   2.237   4.036  0.8251  0.1430 -0.8857
16286TIP3   OH270272   2.792   0.902   0.266  0.6127  0.1885  0.0854
16286TIP3    H170273   2.834   0.819   0.286 -0.2958  0.0453  1.5141
16286TIP3    H270274   2.787   0.948   0.350 -1.6680  0.3686 -0.0723
16287TIP3   OH270275   5.707   2.973  16.416 -0.1613 -0.7805 -0.6269
16287TIP3    H170276   5.615   2.950  16.406 -0.3697 -1.3895  1.9532
16287TIP3    H270277   5.736   2.923  16.493  1.7896  0.8560 -0.2040
16288TIP3   OH270278   0.160   5.858   4.060 -0.0594 -0.0901  0.0124
16288TIP3    H170279   0.071   5.877   4.090  0.0624 -0.3242  0.5444
16288TIP3    H270280   0.216   5.912   4.116  0.1025  0.5374 -0.7449
16289TIP3   OH270281   0.865   3.383  11.447  0.1809 -0.0339 -0.1488
16289TIP3    H170282   0.811   3.338  11.512 -0.5032 -0.7709 -1.1934
16289TIP3    H270283   0.873   3.472  11.481  0.3806 -0.5575  1.2590
16290TIP3   OH270284   5.433   2.224   3.621 -0.2291  0.5263  0.1377
16290TIP3    H170285   5.416   2.271   3.540 -1.3852  0.3807  0.2787
16290TIP3    H270286   5.516   2.260   3.652 -0.4990  1.6362 -0.3606
16291TIP3   OH270287   5.091   3.296  11.886 -0.0092 -0.1471  0.4699
16291TIP3    H170288   5.024   3.230  11.905 -0.8010  0.8886  1.4515
16291TIP3    H270289   5.119   3.328  11.972  2.4724 -1.1886  0.1301
16292TIP3   OH270290   6.156   1.233  13.690 -0.0495  0.6219 -0.2266
16292TIP3    H170291   6.158   1.166  13.758 -0.1417  0.0356 -0.7956
16292TIP3    H270292   6.146   1.315  13.738  0.8868  0.3106  0.5307
16293TIP3   OH270293   2.414   5.264  16.582 -0.5230  0.6386 -0.1357
16293TIP3    H170294   2.490   5.206  16.590 -0.1729  0.8402 -1.8004
16293TIP3    H270295   2.440   5.343  16.630 -0.0557  0.3493  0.1010
16294TIP3   OH270296   1.943   4.805   1.650  0.0089  0.4227  0.0373
16294TIP3    H170297   1.921   4.720   1.613 -0.0788 -0.1334  1.3307
16294TIP3    H270298   1.964   4.859   1.574 -1.0046 -0.4314 -0.8843
16295TIP3   OH270299   0.019   6.644  13.813  0.0093 -0.1336  1.0550
16295TIP3    H170300   0.100   6.594  13.827 -0.2312 -0.6889  0.5049
16295TIP3    H270301   0.014   6.657  13.719  0.0485  0.9236  1.1883
16296TIP3   OH270302   6.756   6.196  11.180  0.3236 -0.1937 -0.1007
16296TIP3    H170303   6.673   6.211  11.226 -0.6055 -0.4423 -1.6313
16296TIP3    H270304   6.822   6.197  11.250 -0.8565  0.7799  1.0662
16297TIP3   OH270305   1.626   2.071   2.099 -0.1272 -0.3003 -0.3817
16297TIP3    H170306   1.547   2.121   2.076 -0.8285 -0.4083  1.5775
16297TIP3    H270307   1.696   2.112   2.048 -1.1062  1.1242 -0.6526
16298TIP3   OH270308   0.137   0.668  10.983  0.2471  0.5692 -0.5931
16298TIP3    H170309   0.184   0.711  10.911  3.6904  0.1035  1.1627
16298TIP3    H270310   0.084   0.738  11.021  0.0793  1.3658 -2.2023
16299TIP3   OH270311   6.273   6.662  16.198 -0.0669 -0.1180  0.2543
16299TIP3    H170312   6.215   6.618  16.259  1.2230  0.3124  1.8651
16299TIP3    H270313   6.361   6.635  16.224  0.6493  1.7703 -0.0053
16300TIP3   OH270314   2.894   5.670  16.268 -0.1646  0.0762 -0.2714
16300TIP3    H170315   2.936   5.584  16.278 -0.4773  0.0054  0.5066
16300TIP3    H270316   2.950   5.730  16.318  0.5481  0.5049 -1.5414
16301TIP3   OH270317   5.761   1.618   6.006  0.5245 -0.8999 -0.3313
16301TIP3    H170318   5.707   1.632   6.084  1.4967  0.2957  0.1399
16301TIP3    H270319   5.784   1.525   6.009  2.4913 -0.4146  2.1077
16302TIP3   OH270320   1.811   1.616  16.288 -0.0468  0.0170 -0.0792
16302TIP3    H170321   1.837   1.707  16.300 -1.4233  0.5275 -0.6809
16302TIP3    H270322   1.756   1.597  16.365  0.1769 -0.2795  0.0073
16303TIP3   OH270323   1.742   1.923   3.832  0.1250 -0.5913  0.0096
16303TIP3    H170324   1.826   1.879   3.826 -0.6014 -1.8395 -1.4703
16303TIP3    H270325   1.731   1.967   3.747  0.6588  2.2461  1.2826
16304TIP3   OH270326   5.132   6.586   6.636  0.5390 -0.1017  0.2595
16304TIP3    H170327   5.075   6.516   6.607 -0.9076  0.5208  1.4632
16304TIP3    H270328   5.159   6.560   6.724 -0.5077  1.0853  0.9692
16305TIP3   OH270329   5.016   4.789   4.358 -0.4802  0.3163 -0.4397
16305TIP3    H170330   4.980   4.824   4.277 -1.9971 -0.2783 -0.0643
16305TIP3    H270331   5.026   4.695   4.341 -2.6040 -0.1708  0.6026
16306TIP3   OH270332   1.415   0.586   2.818 -0.2869 -0.1392  0.6159
16306TIP3    H170333   1.374   0.523   2.878 -0.7351  0.0884  0.5547
16306TIP3    H270334   1.475   0.636   2.873 -4.6652  3.9728  2.3527
16307TIP3   OH270335   4.959   0.804  15.561  0.1340  0.2695 -0.2786
16307TIP3    H170336   4.884   0.804  15.502  0.7562  1.9293 -1.1475
16307TIP3    H270337   5.027   0.852  15.514  0.3342  2.6296  2.1466
16308TIP3   OH270338   1.708   2.178   1.236  0.2973 -0.4081  0.4279
16308TIP3    H170339   1.649   2.246   1.270 -0.0339  0.1991 -1.2806
16308TIP3    H270340   1.774   2.168   1.304 -1.5491 -0.8633  2.2586
16309TIP3   OH270341   1.961   4.681  16.265 -0.2622 -0.2503 -0.2991
16309TIP3    H170342   2.049   4.717  16.271  0.2055 -1.1550 -1.3752
16309TIP3    H270343   1.904   4.749  16.301  1.0059 -0.2849  1.9269
16310TIP3   OH270344   2.327   2.371  11.405 -0.5914  0.4547  0.3575
16310TIP3    H170345   2.391   2.422  11.455  0.4975 -0.1695 -0.3657
16310TIP3    H270346   2.308   2.424  11.328  1.4639 -0.6482 -1.0262
16311TIP3   OH270347   0.996   3.613  15.994 -0.7580  0.0358  0.0177
16311TIP3    H170348   0.929   3.678  16.010 -1.0719 -0.4583  0.7168
16311TIP3    H270349   1.043   3.604  16.077 -0.2743 -0.1311 -0.2636
16312TIP3   OH270350   3.095   4.553   4.350  0.3406 -0.4108 -0.5147
16312TIP3    H170351   3.018   4.518   4.394 -0.1633  1.2131 -0.0492
16312TIP3    H270352   3.091   4.516   4.262  0.3307 -2.1941  0.1988
16313TIP3   OH270353   3.966   1.515  15.385 -0.3779  0.2787  0.6487
16313TIP3    H170354   3.891   1.520  15.326 -1.3564  1.1698  1.9027
16313TIP3    H270355   3.928   1.522  15.473  1.0730 -0.5263  1.3741
16314TIP3   OH270356   6.429   5.121  12.632 -0.4257 -0.0305  0.6846
16314TIP3    H170357   6.456   5.179  12.703  0.5271  1.5331 -0.8664
16314TIP3    H270358   6.500   5.058  12.622  0.5097  1.1366 -0.2913
16315TIP3   OH270359   5.421   0.690   3.436  0.5140  0.3244  0.5220
16315TIP3    H170360   5.404   0.756   3.503  1.1347  1.8273 -0.7452
16315TIP3    H270361   5.466   0.738   3.366  3.5394 -1.9866  0.7079
16316TIP3   OH270362   3.719   3.744   1.828 -0.4644  0.5558  1.0237
16316TIP3    H170363   3.708   3.839   1.835 -0.6322  0.4651  2.3143
16316TIP3    H270364   3.728   3.715   1.919 -2.4749 -0.9229  0.8084
16317TIP3   OH270365   1.861   4.331   3.560  0.5443 -0.2117 -0.4125
16317TIP3    H170366   1.923   4.388   3.605 -0.2071  0.1835  0.1362
16317TIP3    H270367   1.894   4.326   3.470  0.5750  1.1745 -0.5014
16318TIP3   OH270368   2.919   0.759  11.924 -0.3023 -0.7152 -0.2980
16318TIP3    H170369   2.976   0.685  11.945 -1.7914 -1.4973  1.2209
16318TIP3    H270370   2.957   0.833  11.970 -0.0857 -1.0571  0.0763
16319TIP3   OH270371   3.298   3.813   2.434  0.2433 -0.2982 -0.2313
16319TIP3    H170372   3.230   3.875   2.406  0.7200  0.6323  0.6036
16319TIP3    H270373   3.249   3.737   2.467 -0.4952  0.9705  1.7814
16320TIP3   OH270374   6.185   0.257  14.897 -0.5403  0.0205 -0.4885
16320TIP3    H170375   6.258   0.197  14.884 -0.0989  0.2833  0.6592
16320TIP3    H270376   6.117   0.204  14.939 -0.5280  0.0849 -0.3873
16321TIP3   OH270377   6.195   6.715  15.400 -0.1689  0.3002 -0.0372
16321TIP3    H170378   6.181   6.620  15.403  2.1026 -0.0857  0.2511
16321TIP3    H270379   6.195   6.741  15.492 -2.3935  0.9309 -0.1404
16322TIP3   OH270380   0.044   4.833   0.605  0.4088 -0.6781 -0.0606
16322TIP3    H170381   0.032   4.925   0.581  1.0562 -0.3671  0.7541
16322TIP3    H270382   0.048   4.834   0.701  1.1992 -1.4524 -0.0820
16323TIP3   OH270383   6.562   2.820  15.355  0.1521  0.5365  0.4166
16323TIP3    H170384   6.517   2.899  15.326  0.0590  0.2753 -0.1817
16323TIP3    H270385   6.499   2.774  15.409 -1.3064 -1.0553 -2.3881
16324TIP3   OH270386   3.746   4.650   3.588 -0.0403 -0.1249 -0.1383
16324TIP3    H170387   3.687   4.591   3.542  0.3513  0.5198 -1.5273
16324TIP3    H270388   3.767   4.718   3.524  1.7418 -0.0167  0.4893
16325TIP3   OH270389   4.941   0.934  12.807 -0.5005  0.1701  0.1111
16325TIP3    H170390   4.917   0.856  12.757 -0.7737 -0.8064  1.7058
16325TIP3    H270391   5.033   0.920  12.832 -0.2115  0.8832 -0.5044
16326TIP3   OH270392   1.208   1.876  15.361 -0.2578 -0.5005  0.7065
16326TIP3    H170393   1.167   1.790  15.369  0.8534 -1.0863  0.2768
16326TIP3    H270394   1.301   1.857  15.347  0.0044  0.7715  0.6242
16327TIP3   OH270395   3.212   6.277   4.906 -0.3201  0.4945 -0.0171
16327TIP3    H170396   3.172   6.334   4.841  0.6504  0.2977 -0.8168
16327TIP3    H270397   3.225   6.194   4.860 -0.7238 -0.0319  0.8016
16328TIP3   OH270398   6.036   1.641  16.365  0.5376  0.6454  0.4914
16328TIP3    H170399   6.030   1.555  16.407  1.1081  0.7122  0.7106
16328TIP3    H270400   6.014   1.625  16.273 -1.6266  0.6383  0.9587
16329TIP3   OH270401   6.573   0.924  11.648 -0.6108  0.5460 -0.3668
16329TIP3    H170402   6.493   0.883  11.614 -0.5761 -1.0441  1.3424
16329TIP3    H270403   6.644   0.878  11.605 -0.5908  0.1393  0.1007
16330TIP3   OH270404   5.661   4.693  13.011  0.8780  0.1095 -0.6221
16330TIP3    H170405   5.718   4.716  13.085 -0.7957 -0.9303  1.0801
16330TIP3    H270406   5.645   4.599  13.022 -2.0558  0.5630 -0.2988
16331TIP3   OH270407   1.064   6.075  11.252  0.8183  0.5257  0.5254
16331TIP3    H170408   1.024   5.989  11.246 -0.3781  1.1010 -0.1103
16331TIP3    H270409   1.019   6.127  11.185  2.1949  1.3848  0.2246
16332TIP3   OH270410   2.395   3.074  12.368 -0.6054  0.5073  0.3327
16332TIP3    H170411   2.381   2.982  12.389 -1.5771  0.5137 -0.2029
16332TIP3    H270412   2.321   3.097  12.311 -1.5462  2.1460  2.0784
16333TIP3   OH270413   3.293   5.747  11.641  0.0908  0.4350  0.1498
16333TIP3    H170414   3.274   5.823  11.696  1.0423  1.3340 -0.7317
16333TIP3    H270415   3.342   5.782  11.567  0.2500 -0.9954 -0.4539
16334TIP3   OH270416   2.291   5.541   4.600  0.2044 -0.5533  0.1124
16334TIP3    H170417   2.385   5.537   4.618  0.4348  0.7675 -0.6610
16334TIP3    H270418   2.274   5.463   4.547  0.8770 -0.7881  0.2274
16335TIP3   OH270419   0.009   1.712   1.476  0.1660  0.0279 -0.3194
16335TIP3    H170420  -0.027   1.750   1.395 -0.6382 -1.2407 -0.5768
16335TIP3    H270421   0.089   1.668   1.447  0.6486  0.7782 -0.1619
16336TIP3   OH270422   0.788   5.690  14.261 -0.3515  0.1631  0.1465
16336TIP3    H170423   0.698   5.723  14.270 -0.6882 -0.9613  1.0622
16336TIP3    H270424   0.839   5.746  14.319 -0.3150  1.2063 -0.8323
16337TIP3   OH270425   0.811   5.693   5.433 -0.0367  0.1237 -0.2751
16337TIP3    H170426   0.830   5.787   5.436  1.0983  0.0223 -2.3294
16337TIP3    H270427   0.876   5.654   5.492 -0.8508  0.6197  1.0043
16338TIP3   OH270428   4.982   0.071   2.693  0.7445 -0.1198  0.1912
16338TIP3    H170429   4.905   0.108   2.737  1.1194  1.5352 -0.4729
16338TIP3    H270430   4.949   0.045   2.607  0.5263 -1.2075  0.5874
16339TIP3   OH270431   4.903   1.201   2.876 -0.0759 -0.2653  0.4966
16339TIP3    H170432   4.834   1.257   2.840  0.0700 -0.3078  0.1488
16339TIP3    H270433   4.973   1.261   2.899  1.3666 -0.4934 -2.6942
16340TIP3   OH270434   6.756   4.418  15.018  0.2264  0.0491  0.3632
16340TIP3    H170435   6.840   4.387  14.983  1.0750  2.6631 -0.1398
16340TIP3    H270436   6.779   4.458  15.102 -0.3982  1.1929  0.0092
16341TIP3   OH270437   5.465   2.803   1.586  0.7494 -0.0736 -0.1235
16341TIP3    H170438   5.494   2.892   1.607  0.5058 -0.3860  1.7360
16341TIP3    H270439   5.377   2.797   1.622  1.2315 -1.4357  0.9251
16342TIP3   OH270440   4.412   0.997   3.395  0.0757  0.7648  0.2259
16342TIP3    H170441   4.365   1.068   3.350  0.4983  1.0880  0.2920
16342TIP3    H270442   4.404   1.019   3.488  0.0566  0.6271  0.2572
16343TIP3   OH270443   0.158   2.630   1.197  0.0269  0.2064  0.2190
16343TIP3    H170444   0.149   2.642   1.102 -0.2381 -0.8894  0.0861
16343TIP3    H270445   0.110   2.548   1.215 -0.1710  0.5536  1.3433
16344TIP3   OH270446   2.008   1.628   1.261  0.6550  0.0015  0.2217
16344TIP3    H170447   1.951   1.602   1.334  1.4639  0.0512  0.8913
16344TIP3    H270448   1.955   1.688   1.209  0.0102 -0.1503  0.6957
16345TIP3   OH270449   0.217   6.149   1.428 -0.2487 -0.6259  0.0493
16345TIP3    H170450   0.284   6.096   1.386 -0.1446 -0.6683  0.2742
16345TIP3    H270451   0.142   6.090   1.438 -0.2477 -0.6367 -0.0049
16346TIP3   OH270452   4.548   4.716  14.204 -0.1107  0.4742  0.3467
16346TIP3    H170453   4.581   4.731  14.293  0.3876  2.5662 -0.1452
16346TIP3    H270454   4.626   4.699  14.152 -0.4872 -1.8921  0.4518
16347TIP3   OH270455   0.963   5.183  11.779 -0.4334 -0.1015 -0.2713
16347TIP3    H170456   1.002   5.109  11.732  1.3581  1.8056 -1.9729
16347TIP3    H270457   1.038   5.225  11.822 -1.7662 -0.7252  2.9804
16348TIP3   OH270458   0.199   2.115  13.436 -0.1931  0.0069 -0.2095
16348TIP3    H170459   0.199   2.049  13.505  1.2577 -1.5075 -1.5827
16348TIP3    H270460   0.168   2.195  13.479  2.1545 -0.4464  2.5856
16349TIP3   OH270461   6.244   2.227   5.783 -0.4769 -0.1633 -0.8540
16349TIP3    H170462   6.267   2.142   5.745  1.3277  0.0242 -0.2588
16349TIP3    H270463   6.259   2.217   5.876  0.4120  1.0094 -0.8517
16350TIP3   OH270464   3.455   0.983  14.660  0.4722  0.4822  0.4049
16350TIP3    H170465   3.390   1.003  14.592  1.0932 -1.4455 -0.8582
16350TIP3    H270466   3.404   0.945  14.731  0.1677 -1.3220 -0.7069
16351TIP3   OH270467   4.927   0.125   1.549 -0.1796  0.0340  0.9921
16351TIP3    H170468   4.984   0.101   1.622 -0.9240  1.7058  2.1815
16351TIP3    H270469   4.941   0.218   1.536  1.9542 -0.5893 -2.8759
16352TIP3   OH270470   5.862   0.012   1.774  0.5985 -0.4154 -0.7505
16352TIP3    H170471   5.817   0.092   1.747  2.4887  0.2695 -2.0651
16352TIP3    H270472   5.918   0.038   1.846  1.5978 -0.4017 -1.5107
16353TIP3   OH270473   0.571   6.533   0.309  0.3981 -0.0188 -0.2462
16353TIP3    H170474   0.553   6.603   0.372  2.0060 -0.8536  1.2234
16353TIP3    H270475   0.609   6.463   0.362 -0.3844 -1.6945 -1.8057
16354TIP3   OH270476   5.282   2.200   3.323 -0.3031 -0.3829 -0.5062
16354TIP3    H170477   5.310   2.246   3.244 -0.0080  0.8919  0.3083
16354TIP3    H270478   5.241   2.268   3.377  0.8244 -0.8868  1.0667
16355TIP3   OH270479   6.162   1.690  11.979 -0.3858  0.2263  0.1592
16355TIP3    H170480   6.139   1.645  11.898  0.0008 -0.5890  0.4925
16355TIP3    H270481   6.238   1.744  11.955 -0.0103 -0.3297  0.0633
16356TIP3   OH270482   0.673   5.236  13.545  0.1826  0.2580  0.0047
16356TIP3    H170483   0.692   5.322  13.581 -0.1159  0.5755 -0.5890
16356TIP3    H270484   0.586   5.215  13.578  1.3535 -1.0893  2.5207
16357TIP3   OH270485   2.900   1.049  11.483 -0.0652 -0.6373 -0.0592
16357TIP3    H170486   2.918   0.975  11.424 -3.6469 -1.4615 -0.3475
16357TIP3    H270487   2.888   1.124  11.424  0.8248 -0.4172  0.0244
16358TIP3   OH270488   4.560   1.847  13.494 -0.0145  0.1938  0.2833
16358TIP3    H170489   4.591   1.929  13.532 -0.9288  0.3219  0.7748
16358TIP3    H270490   4.518   1.874  13.412  1.3909 -0.0130 -0.5405
16359TIP3   OH270491   0.262   1.654  15.466  0.1047 -0.3987  0.0731
16359TIP3    H170492   0.276   1.613  15.551  2.9431 -0.7888 -0.4802
16359TIP3    H270493   0.341   1.706  15.451 -0.6912  0.3147 -1.9736
16360TIP3   OH270494   0.306   6.479  14.778  0.0840  0.4752 -0.3160
16360TIP3    H170495   0.264   6.512  14.699 -2.4666  0.7055  1.0451
16360TIP3    H270496   0.332   6.559  14.825 -1.2561  0.4705  0.4878
16361TIP3   OH270497   5.733   4.334   2.157  0.5046  0.3718 -0.1344
16361TIP3    H170498   5.755   4.309   2.247  1.3100  0.8589 -0.1811
16361TIP3    H270499   5.766   4.262   2.103  1.7898  0.9631 -0.1779
16362TIP3   OH270500   2.981   4.808   1.285 -0.1332  0.2482  0.3181
16362TIP3    H170501   3.043   4.772   1.348 -0.9219 -0.7833  0.5273
16362TIP3    H270502   3.019   4.789   1.200  0.5896  1.0140  0.4581
16363TIP3   OH270503   0.711   4.011   2.355 -0.4104  0.0435  0.0275
16363TIP3    H170504   0.710   4.067   2.433  0.1662  0.6705 -0.4015
16363TIP3    H270505   0.619   4.004   2.330 -0.5504  0.2672  0.4605
16364TIP3   OH270506   2.961   5.992   4.262 -0.0144  0.4644 -0.3715
16364TIP3    H170507   2.931   5.905   4.288  1.4002 -0.0053 -0.1933
16364TIP3    H270508   2.980   5.984   4.169 -0.5267  0.7892 -0.5087
16365TIP3   OH270509   4.606   0.452  10.956 -0.9982  0.5420  0.4797
16365TIP3    H170510   4.696   0.421  10.965 -0.6749  0.9449 -1.0135
16365TIP3    H270511   4.552   0.375  10.972 -0.4420  0.4285  2.0212
16366TIP3   OH270512   1.708   1.754   4.166  0.1653  0.1234  0.5025
16366TIP3    H170513   1.797   1.764   4.131  0.5480  2.3871  1.9132
16366TIP3    H270514   1.721   1.732   4.258 -0.6787  1.6813  1.0296
16367TIP3   OH270515   3.717   5.197   4.185  0.6064 -0.5664  0.0437
16367TIP3    H170516   3.801   5.156   4.162 -0.4071 -1.7597 -1.7733
16367TIP3    H270517   3.694   5.159   4.269  1.8609 -0.2332  0.5685
16368TIP3   OH270518   6.635   5.874   5.673 -0.6841 -0.2291  0.1814
16368TIP3    H170519   6.695   5.917   5.735 -1.1058 -0.3334  0.6629
16368TIP3    H270520   6.602   5.946   5.618  0.3496 -0.2443 -0.5037
16369TIP3   OH270521   6.645   4.298   4.232 -0.3625  0.1546 -0.8748
16369TIP3    H170522   6.565   4.279   4.183 -0.9590  1.4378 -0.4636
16369TIP3    H270523   6.623   4.280   4.323  0.7010 -2.0958 -1.0139
16370TIP3   OH270524   1.322   2.956   3.757 -0.4846 -0.1426  0.6133
16370TIP3    H170525   1.257   3.027   3.759 -0.7342 -0.2289 -1.6363
16370TIP3    H270526   1.356   2.958   3.667  0.5994 -1.9111  0.9479
16371TIP3   OH270527   1.413   5.655   1.330  0.2845 -0.4705 -0.6612
16371TIP3    H170528   1.362   5.734   1.349  0.4048 -0.7361  0.8175
16371TIP3    H270529   1.372   5.619   1.251 -0.2530  0.6437 -0.9133
16372TIP3   OH270530   2.284   4.457  12.661 -0.3210 -0.0552  0.3994
16372TIP3    H170531   2.323   4.540  12.633 -0.6037  0.1509  0.6196
16372TIP3    H270532   2.293   4.400  12.584 -1.8204  0.7584 -0.4225
16373TIP3   OH270533   0.028   2.046   5.252 -0.1441  0.2427 -0.2067
16373TIP3    H170534  -0.067   2.060   5.258 -0.4532  2.7859 -5.3808
16373TIP3    H270535   0.066   2.134   5.258  1.5071 -0.3355 -1.3648
16374TIP3   OH270536   6.106   2.365  13.549  0.0130 -0.2077 -0.0756
16374TIP3    H170537   6.097   2.460  13.551 -0.8415 -0.2875  1.1132
16374TIP3    H270538   6.016   2.332  13.545  0.3110 -0.9650 -0.6904
16375TIP3   OH270539   0.219   2.622  14.366 -0.3183  0.2151  0.1043
16375TIP3    H170540   0.215   2.528  14.382  2.0403  0.2226  1.0954
16375TIP3    H270541   0.211   2.662  14.452 -0.3289  0.8800 -0.1952
16376TIP3   OH270542   4.542   4.886  16.629 -0.7966 -0.1261 -0.4628
16376TIP3    H170543   4.613   4.851  16.682 -1.5553 -0.3011  0.4676
16376TIP3    H270544   4.503   4.809  16.588  0.0022  0.0392 -1.5858
16377TIP3   OH270545   1.135   6.023   4.831  0.6621  0.4058  0.5397
16377TIP3    H170546   1.106   6.050   4.918  0.3062  1.1573  0.1982
16377TIP3    H270547   1.195   5.950   4.847  1.5944  1.3359  1.4912
16378TIP3   OH270548   0.797   3.221  11.057  0.0353 -0.5914  0.2179
16378TIP3    H170549   0.873   3.181  11.099 -0.0147 -0.4872  0.4111
16378TIP3    H270550   0.834   3.273  10.986  0.3066  0.7326  1.2778
16379TIP3   OH270551   2.573   2.118   5.037  0.6218 -0.3488  0.0364
16379TIP3    H170552   2.645   2.177   5.060  0.5542 -0.3872  0.3505
16379TIP3    H270553   2.543   2.083   5.120 -0.5092  0.5366  0.0399
16380TIP3   OH270554   0.694   4.294  16.139  0.1996 -0.1179  0.4087
16380TIP3    H170555   0.687   4.252  16.224  0.2823  0.5613  0.7588
16380TIP3    H270556   0.781   4.334  16.139  0.7350 -1.2389 -0.5260
16381TIP3   OH270557   2.541   0.346   5.745 -0.2482  0.3528  0.1726
16381TIP3    H170558   2.612   0.285   5.766 -0.9416 -0.0811  1.3852
16381TIP3    H270559   2.561   0.425   5.796 -0.2081  0.5440 -0.1341
16382TIP3   OH270560   4.142   1.998  15.712  0.1107  0.2083 -0.1201
16382TIP3    H170561   4.145   1.903  15.695 -0.7492  0.2219 -0.4363
16382TIP3    H270562   4.205   2.012  15.782  0.6225 -0.5233 -0.4111
16383TIP3   OH270563   0.838   2.446  10.865 -0.2715 -0.4006 -0.1934
16383TIP3    H170564   0.801   2.359  10.855  0.2527 -0.5036 -1.5908
16383TIP3    H270565   0.925   2.439  10.824 -0.7643  1.0997 -1.6216
16384TIP3   OH270566   0.645   2.766   5.178  0.0790  0.0226  0.0172
16384TIP3    H170567   0.603   2.730   5.100 -0.6957  0.7379  0.0917
16384TIP3    H270568   0.739   2.760   5.159 -0.0629 -0.9613 -0.4370
16385TIP3   OH270569   1.397   4.568   5.383  0.3059  0.6878  0.4142
16385TIP3    H170570   1.351   4.611   5.311  0.7361  0.2688 -0.1270
16385TIP3    H270571   1.441   4.494   5.341  2.0381  1.4719  0.7700
16386TIP3   OH270572   4.437   5.510   0.772 -0.4831  0.3458 -0.1183
16386TIP3    H170573   4.361   5.468   0.732  0.4026 -0.2706 -1.2313
16386TIP3    H270574   4.497   5.437   0.792  1.4080  1.0044 -2.7764
16387TIP3   OH270575   4.468   1.805  15.658  0.2552  0.6723 -0.0791
16387TIP3    H170576   4.531   1.792  15.729 -0.6834  0.8129  0.7956
16387TIP3    H270577   4.484   1.895  15.628 -0.1023  1.0065  0.7191
16388TIP3   OH270578   2.138   0.824   3.560 -0.0523 -0.5279  0.5332
16388TIP3    H170579   2.148   0.850   3.652  1.4112 -0.9076  0.4956
16388TIP3    H270580   2.184   0.741   3.553 -0.7281 -0.8374 -0.4045
16389TIP3   OH270581   1.646   2.730  15.336 -0.1117 -0.2340  0.2497
16389TIP3    H170582   1.601   2.800  15.290 -2.4218 -1.9051 -0.1942
16389TIP3    H270583   1.644   2.656  15.275  0.0235 -1.4288  1.6311
16390TIP3   OH270584   6.705   5.360   4.309 -0.2708  0.0461 -0.1727
16390TIP3    H170585   6.615   5.392   4.302  0.1510  1.1062 -1.1127
16390TIP3    H270586   6.703   5.271   4.276 -1.3376 -0.6953  1.7244
16391TIP3   OH270587   1.707   3.509  16.927 -0.2872  0.4999 -0.2064
16391TIP3    H170588   1.689   3.553  16.844 -0.0208  0.2248 -0.4158
16391TIP3    H270589   1.789   3.548  16.958 -0.0066  0.0979 -0.4344
16392TIP3   OH270590   4.859   5.658   3.664  0.0513  0.1003  0.4689
16392TIP3    H170591   4.950   5.675   3.638 -0.1845 -0.2483 -0.6314
16392TIP3    H270592   4.861   5.569   3.700 -0.2950 -1.0596 -2.1179
16393TIP3   OH270593   3.607   5.669   3.148 -0.3550  0.2518  0.5899
16393TIP3    H170594   3.518   5.685   3.118  0.4198  0.6794 -1.6103
16393TIP3    H270595   3.617   5.574   3.146 -0.4128  0.2581 -0.2714
16394TIP3   OH270596   2.752   4.170  14.274 -0.0952  0.2411  0.2650
16394TIP3    H170597   2.661   4.152  14.252  0.0258 -0.6783  0.5055
16394TIP3    H270598   2.801   4.093  14.247  0.9410  1.4746 -1.6469
16395TIP3   OH270599   5.750   0.404   2.268  0.2324  0.1813  0.0352
16395TIP3    H170600   5.809   0.462   2.316  0.9318 -0.7566  0.3572
16395TIP3    H270601   5.686   0.375   2.334 -1.0022  1.6780 -0.4532
16396TIP3   OH270602   3.887   3.618  11.558 -0.1745  0.4349  0.2604
16396TIP3    H170603   3.909   3.594  11.648 -2.1648  2.0276  1.2785
16396TIP3    H270604   3.952   3.684  11.534  0.7287 -0.4368  0.3048
16397TIP3   OH270605   6.279   4.193  12.613 -0.0699 -0.4749 -0.3540
16397TIP3    H170606   6.266   4.190  12.518  1.9226 -1.5513 -0.6392
16397TIP3    H270607   6.350   4.256  12.626  1.5620 -2.3395  0.1298
16398TIP3   OH270608   5.402   2.937  16.859 -0.3481 -0.3831  0.1181
16398TIP3    H170609   5.337   3.006  16.872 -0.1552 -0.5913  2.6709
16398TIP3    H270610   5.363   2.859  16.899  0.8988 -0.8441  0.4856
16399TIP3   OH270611   1.446   5.943  12.480 -0.3527  0.3549  0.6563
16399TIP3    H170612   1.521   5.960  12.538 -1.4010 -0.9211  2.5058
16399TIP3    H270613   1.429   5.849  12.491 -2.2729  0.6377  0.3560
16400TIP3   OH270614   2.769   4.224  14.660 -0.4821  0.2775  0.0828
16400TIP3    H170615   2.766   4.306  14.709 -0.3910  1.4655 -1.7946
16400TIP3    H270616   2.679   4.194  14.657 -0.9073  1.5625 -1.1473
16401TIP3   OH270617   4.343   3.835  16.550  0.4024  0.1179  0.9789
16401TIP3    H170618   4.322   3.743  16.533  2.0486 -0.1162  0.0171
16401TIP3    H270619   4.260   3.881  16.540 -0.1276 -1.0559 -0.2155
16402TIP3   OH270620   1.460   0.942  12.657  0.0498  0.3389  0.0378
16402TIP3    H170621   1.500   0.857  12.636  1.3282  0.8410  0.3682
16402TIP3    H270622   1.370   0.920  12.682 -0.3644 -0.6954 -2.0764
16403TIP3   OH270623   3.875   2.773  15.452  0.3352 -0.0151  0.7541
16403TIP3    H170624   3.920   2.782  15.368  1.3588  0.2072  1.3173
16403TIP3    H270625   3.788   2.809  15.436  0.2712 -0.6203 -0.4013
16404TIP3   OH270626   5.935   0.170   0.013  0.3345 -0.3035 -0.2573
16404TIP3    H170627   5.872   0.164   0.084  1.2367 -0.0693  0.5784
16404TIP3    H270628   5.906   0.105  -0.051  0.6240 -1.9260  1.2065
16405TIP3   OH270629   0.185   5.647   3.306 -0.0655 -0.1352 -0.2205
16405TIP3    H170630   0.267   5.610   3.339  1.3681  1.8224 -1.3525
16405TIP3    H270631   0.117   5.599   3.351  1.7229 -1.2208  1.4647
16406TIP3   OH270632   5.095   2.027  10.481 -0.4912  0.1241  0.0882
16406TIP3    H170633   5.136   1.962  10.537  1.6133  1.3610  0.1154
16406TIP3    H270634   5.012   2.047  10.524 -0.9422 -2.0874  0.3543
16407TIP3   OH270635   5.185   4.417  11.145  0.2026 -0.0891 -0.2657
16407TIP3    H170636   5.178   4.430  11.051 -0.9838 -0.2140 -0.2186
16407TIP3    H270637   5.136   4.489  11.183 -1.6783 -1.4875  0.1429
16408TIP3   OH270638   3.345   0.661  16.927 -0.4329  0.2804 -0.6073
16408TIP3    H170639   3.289   0.605  16.980  0.6616  0.0161  0.3016
16408TIP3    H270640   3.355   0.614  16.845  0.4470 -0.8701  0.1355
16409TIP3   OH270641   3.054   6.125   2.736  0.1506  0.2399 -0.0194
16409TIP3    H170642   3.029   6.190   2.670  1.4710  0.6210 -0.1771
16409TIP3    H270643   3.038   6.168   2.820  0.7309  0.6676 -0.1226
16410TIP3   OH270644   4.032   4.848  12.780  0.1351 -0.4603 -0.1768
16410TIP3    H170645   4.030   4.846  12.875  0.4462  1.3162 -0.1060
16410TIP3    H270646   4.122   4.871  12.758 -0.7008  2.7433 -0.7359
16411TIP3   OH270647   2.101   2.386  14.531 -0.0508  0.1128  0.0601
16411TIP3    H170648   2.131   2.432  14.609 -1.0646  1.4545 -0.2907
16411TIP3    H270649   2.012   2.358  14.551 -0.8661  1.7322 -1.0568
16412TIP3   OH270650   4.444   0.674   1.407  0.5359  0.7347  0.5954
16412TIP3    H170651   4.510   0.733   1.442  0.3240  0.3542  1.6826
16412TIP3    H270652   4.487   0.589   1.405  0.0445  0.4537  1.4662
16413TIP3   OH270653   2.731   3.283  15.970  0.3431 -0.3518  0.2630
16413TIP3    H170654   2.811   3.316  16.012  0.4625  0.0004 -0.2331
16413TIP3    H270655   2.685   3.237  16.040  0.9592 -0.5221  0.5675
16414TIP3   OH270656   5.534   4.500   4.777 -0.0530  0.1827 -0.1846
16414TIP3    H170657   5.455   4.447   4.785 -0.4300  0.7471 -0.1066
16414TIP3    H270658   5.575   4.497   4.864 -0.5453  0.7356  0.0776
16415TIP3   OH270659   4.969   3.567  13.054 -0.5197  0.2722  0.1271
16415TIP3    H170660   4.969   3.590  13.147 -1.1376  0.2896  0.1237
16415TIP3    H270661   4.954   3.472  13.052  0.6545  0.0733  0.0855
16416TIP3   OH270662   6.770   3.994  13.971  0.4325 -0.4377 -0.1520
16416TIP3    H170663   6.825   3.934  14.021  0.0798  1.0544  2.2006
16416TIP3    H270664   6.826   4.070  13.955  0.0786 -0.2976 -0.7782
16417TIP3   OH270665   1.105   3.898  15.913  0.4829 -0.3484  0.1974
16417TIP3    H170666   1.032   3.865  15.861  0.5300  2.4142 -1.9374
16417TIP3    H270667   1.178   3.839  15.892  0.0716 -0.2591 -1.6896
16418TIP3   OH270668   5.012   3.663   1.946 -0.7717 -0.1003 -0.0996
16418TIP3    H170669   5.074   3.705   1.886 -0.6301  1.3137  1.0005
16418TIP3    H270670   5.041   3.572   1.950  0.5247  0.2739 -0.5131
16419TIP3   OH270671   4.508   4.018  14.842 -0.3999  0.0257  0.1544
16419TIP3    H170672   4.499   4.106  14.879 -0.0594  0.2818 -0.3602
16419TIP3    H270673   4.555   3.969  14.909  0.6663  0.6215 -0.1268
16420TIP3   OH270674   1.189   6.595   0.686 -0.0660  0.3539 -0.2533
16420TIP3    H170675   1.119   6.532   0.696  0.5547 -0.3592 -0.3222
16420TIP3    H270676   1.266   6.552   0.723  0.4740  0.8638 -0.7565
16421TIP3   OH270677   3.147   1.395   1.531 -0.2674 -0.1617 -0.0792
16421TIP3    H170678   3.055   1.373   1.520 -0.4886  0.8449 -0.4160
16421TIP3    H270679   3.170   1.441   1.450  0.2794  0.3778  0.3673
16422TIP3   OH270680   1.627   1.814  11.815 -0.2149 -0.0220  0.1311
16422TIP3    H170681   1.569   1.879  11.855 -1.0130 -0.4729 -0.2677
16422TIP3    H270682   1.712   1.830  11.855 -0.6834  0.4415  0.9798
16423TIP3   OH270683   5.860   4.339  16.575 -0.0235 -0.4596  0.0422
16423TIP3    H170684   5.781   4.285  16.583  0.2294 -0.6328  1.6840
16423TIP3    H270685   5.846   4.411  16.637  0.7531 -0.0353 -0.2621
16424TIP3   OH270686   0.830   2.592  16.274 -0.6260 -0.4749 -0.3634
16424TIP3    H170687   0.858   2.559  16.359 -3.0837 -1.6010  0.1245
16424TIP3    H270688   0.784   2.518  16.233 -2.6295  1.0663 -1.0903
16425TIP3   OH270689   1.716   3.655  14.280  0.2634  0.8661 -0.7746
16425TIP3    H170690   1.736   3.713  14.354 -0.5757  0.1987 -0.0070
16425TIP3    H270691   1.624   3.672  14.261  0.1257  0.0985 -0.8188
16426TIP3   OH270692   2.285   0.053  15.836 -0.8715 -0.0797  0.2517
16426TIP3    H170693   2.266   0.124  15.897  1.2127  0.2167  0.6507
16426TIP3    H270694   2.311   0.098  15.755 -3.0756 -0.4655 -0.7311
16427TIP3   OH270695   4.203   2.164  15.442 -0.1546 -0.1831  0.3413
16427TIP3    H170696   4.253   2.243  15.466 -0.3901  0.1209 -0.1693
16427TIP3    H270697   4.152   2.144  15.521 -0.1328  0.2008  0.4570
16428TIP3   OH270698   4.368   1.783  16.741 -0.2239 -0.2137 -0.0333
16428TIP3    H170699   4.443   1.827  16.781  0.6224 -1.1836 -0.4996
16428TIP3    H270700   4.406   1.729  16.671 -1.5815  0.9697 -1.7769
16429TIP3   OH270701   0.584   3.484  14.138 -0.4748 -0.4109  0.3129
16429TIP3    H170702   0.512   3.525  14.090 -0.0518  1.9675  1.5817
16429TIP3    H270703   0.543   3.452  14.219 -0.1161  1.1655  1.1493
16430TIP3   OH270704   3.924   4.245   1.982 -0.0511  0.0626 -0.1198
16430TIP3    H170705   3.957   4.335   1.987  2.5962 -0.7086 -1.8500
16430TIP3    H270706   3.928   4.213   2.072 -0.7799  1.5257  0.4864
16431TIP3   OH270707   3.140   1.362  17.121  0.3539 -0.0696  0.1886
16431TIP3    H170708   3.101   1.341  17.206  0.3386  0.3725  0.2911
16431TIP3    H270709   3.230   1.329  17.128 -0.3520 -2.3959 -0.5541
16432TIP3   OH270710   3.496   2.776  10.378  0.2986 -0.8155  0.6512
16432TIP3    H170711   3.526   2.711  10.441 -0.8737 -0.9007  1.1438
16432TIP3    H270712   3.400   2.774  10.385  0.1522 -0.5621 -0.8614
16433TIP3   OH270713   3.874   2.901   6.308  0.2503 -0.0813  0.3703
16433TIP3    H170714   3.918   2.894   6.392 -0.3819  0.7102  0.7781
16433TIP3    H270715   3.787   2.936   6.329  0.1750  0.3731 -0.6329
16434TIP3   OH270716   4.000   1.716  14.215 -0.5098  0.9009 -0.4105
16434TIP3    H170717   3.919   1.665  14.218 -1.6611  2.7090  0.5448
16434TIP3    H270718   4.057   1.672  14.278 -1.2112  0.3548 -0.1325
16435TIP3   OH270719   0.638   1.371  14.191  0.0078 -0.5449  0.2483
16435TIP3    H170720   0.670   1.460  14.177  1.6630 -1.3353 -1.4897
16435TIP3    H270721   0.580   1.354  14.116  1.1846 -1.5261 -0.4746
16436TIP3   OH270722   0.456   6.211   0.265  0.0407 -0.0003  0.3450
16436TIP3    H170723   0.531   6.247   0.312 -1.4830  3.8379  0.2617
16436TIP3    H270724   0.467   6.242   0.175  0.0436 -2.3964 -0.5465
16437TIP3   OH270725   5.017   5.525  16.053  0.3168  0.0960  0.3694
16437TIP3    H170726   5.069   5.591  16.007 -0.4592  1.2251  1.0638
16437TIP3    H270727   5.037   5.443  16.009  0.6563  0.9335 -1.0795
16438TIP3   OH270728   5.695   5.688  15.753  0.0379  0.1671  0.0914
16438TIP3    H170729   5.749   5.611  15.772  0.6538  0.7780  0.8376
16438TIP3    H270730   5.606   5.660  15.777  0.4084  0.0246  1.3588
16439TIP3   OH270731   6.287   4.048  13.588 -0.3808 -0.3616 -0.3569
16439TIP3    H170732   6.198   4.083  13.585 -1.0676 -1.2348  3.6450
16439TIP3    H270733   6.337   4.116  13.633  0.6068 -0.5114 -1.2132
16440TIP3   OH270734   3.243   1.909   0.507  0.1811  0.4076 -0.3345
16440TIP3    H170735   3.266   1.878   0.594 -1.1169  0.2497 -0.0390
16440TIP3    H270736   3.324   1.898   0.456  0.9750  0.5759  0.8488
16441TIP3   OH270737   1.241   4.806   5.650 -0.2083  0.3487  0.6900
16441TIP3    H170738   1.268   4.715   5.665  0.4530  0.8020  2.4464
16441TIP3    H270739   1.296   4.836   5.579 -0.8864 -0.8001 -0.3686
16442TIP3   OH270740   5.453   5.842   4.801  0.3328  0.5944 -0.6269
16442TIP3    H170741   5.409   5.903   4.861  0.5147 -0.4473  0.6223
16442TIP3    H270742   5.536   5.885   4.780  0.1771  1.0665 -0.2935
16443TIP3   OH270743   6.774   3.989  11.959  0.0943  1.1458 -0.7809
16443TIP3    H170744   6.813   4.003  11.873 -0.8684  0.1857 -1.3995
16443TIP3    H270745   6.684   4.020  11.950  0.0468  1.2514 -0.0380
16444TIP3   OH270746   4.025   3.727  10.399 -0.0932  0.3739  0.3514
16444TIP3    H170747   4.098   3.766  10.447  0.8330  0.6291 -1.2021
16444TIP3    H270748   4.056   3.640  10.375 -0.0940  0.6524 -0.7172
16445TIP3   OH270749   0.170   2.869   6.099  0.0202 -0.3014  0.3467
16445TIP3    H170750   0.243   2.831   6.146  3.0330  0.9221 -2.8810
16445TIP3    H270751   0.151   2.951   6.144  0.5527 -0.6860  1.2781
16446TIP3   OH270752   2.088   5.384  11.517  0.3773 -0.1896  0.2345
16446TIP3    H170753   2.099   5.346  11.605 -0.4528  0.4636  0.6360
16446TIP3    H270754   2.033   5.461  11.531  0.3511  0.0036 -0.8516
16447TIP3   OH270755   5.317   0.196   0.509 -0.4447  0.2553 -1.1889
16447TIP3    H170756   5.287   0.107   0.526 -0.1511  0.1471 -1.2270
16447TIP3    H270757   5.248   0.235   0.454  0.1640 -0.4749 -2.5302
16448TIP3   OH270758   2.752   0.923   0.603  0.1020  0.2960  0.5087
16448TIP3    H170759   2.767   0.829   0.594 -1.3504  0.0752  0.2542
16448TIP3    H270760   2.840   0.961   0.607  0.7419 -0.9056 -1.1410
16449TIP3   OH270761   4.725   2.040  14.927  0.0511 -0.2630 -0.0859
16449TIP3    H170762   4.812   2.002  14.938  0.5412  0.7522 -0.3358
16449TIP3    H270763   4.736   2.109  14.862 -0.4579  1.3353  1.4254
16450TIP3   OH270764   1.192   6.002  16.015 -0.3938 -0.1680 -0.1868
16450TIP3    H170765   1.278   5.984  16.052 -1.2126 -0.1968  1.8222
16450TIP3    H270766   1.191   6.097  16.002 -1.0473  0.3184  2.6673
16451TIP3   OH270767   1.382   1.674  14.714  0.0523  0.5331  0.6730
16451TIP3    H170768   1.397   1.750  14.658 -2.4226  1.1292  0.6888
16451TIP3    H270769   1.403   1.598  14.660  0.2882  1.1755 -0.1518
16452TIP3   OH270770   4.338   2.427   2.859 -0.2973 -0.0518  0.5244
16452TIP3    H170771   4.415   2.483   2.847 -0.6569  0.4517  0.5655
16452TIP3    H270772   4.348   2.359   2.792 -0.3225  0.5748 -0.1342
16453TIP3   OH270773   6.325   5.086  14.854  0.2092 -0.0474 -0.3874
16453TIP3    H170774   6.274   5.140  14.794 -0.1141  1.2963  1.0352
16453TIP3    H270775   6.282   5.097  14.939  2.5240  0.6977  0.7562
16454TIP3   OH270776   0.311   1.930  15.158  0.2593  0.3767 -0.5363
16454TIP3    H170777   0.239   1.921  15.221  2.2063 -1.4159  1.6015
16454TIP3    H270778   0.370   1.994  15.198  0.7835  0.4044 -1.3345
16455TIP3   OH270779   3.340   1.806   2.453 -0.3163 -0.5733 -0.2693
16455TIP3    H170780   3.261   1.819   2.402 -0.9570 -0.6306  0.6735
16455TIP3    H270781   3.373   1.720   2.426 -0.9878 -0.8791 -0.1415
16456TIP3   OH270782   1.640   2.657  14.475  0.3266 -0.0777 -0.0044
16456TIP3    H170783   1.702   2.695  14.412  1.6908 -1.5278  0.3982
16456TIP3    H270784   1.607   2.579  14.431 -1.7043  0.9678 -0.4396
16457TIP3   OH270785   1.157   5.784   0.789  0.0945 -0.0562  0.6365
16457TIP3    H170786   1.194   5.851   0.846 -0.6670  0.0485  1.0247
16457TIP3    H270787   1.135   5.712   0.847 -1.2410  0.2882  0.5912
16458TIP3   OH270788   2.570   0.042   0.523 -0.1223  0.2527  0.1206
16458TIP3    H170789   2.625  -0.015   0.469 -1.8452 -0.3347 -1.0884
16458TIP3    H270790   2.616   0.126   0.524  1.6007 -0.6628  0.5079
16459TIP3   OH270791   3.946   5.521  13.800 -0.4572  0.0874  0.2374
16459TIP3    H170792   4.035   5.512  13.835 -0.3975 -1.0306 -0.1564
16459TIP3    H270793   3.956   5.578  13.723 -0.0673 -0.0697  0.1671
16460TIP3   OH270794   3.769   6.201  15.035 -0.0332  0.0198  0.6599
16460TIP3    H170795   3.733   6.287  15.054  1.1315  1.8887 -4.0622
16460TIP3    H270796   3.699   6.156  14.987  0.5992 -0.0739 -0.2112
16461TIP3   OH270797   5.032   5.507   1.414 -0.1072 -0.2037  0.0197
16461TIP3    H170798   5.101   5.441   1.424 -0.0633 -0.4717 -1.8153
16461TIP3    H270799   4.992   5.513   1.501  2.0436 -0.2331  1.0711
16462TIP3   OH270800   3.434   0.436  14.778  0.3710 -1.0233 -0.0022
16462TIP3    H170801   3.410   0.345  14.761 -2.8031 -0.4014  0.5770
16462TIP3    H270802   3.461   0.437  14.870  0.3536 -1.3680  0.0077
16463TIP3   OH270803   6.439   5.469   0.463 -0.3047  0.1826  0.1427
16463TIP3    H170804   6.356   5.441   0.502 -1.6508  1.7981 -1.3931
16463TIP3    H270805   6.441   5.423   0.379  1.0294 -0.8350  0.6974
16464TIP3   OH270806   0.764   6.574  11.840 -0.1854  0.8101  0.1765
16464TIP3    H170807   0.790   6.517  11.767  1.0176 -0.8135  1.7676
16464TIP3    H270808   0.824   6.550  11.911 -1.6680  1.9149  1.8808
16465TIP3   OH270809   1.516   6.308   2.552 -1.2454 -0.2839 -0.4131
16465TIP3    H170810   1.429   6.321   2.515 -0.9424 -0.7503 -1.3253
16465TIP3    H270811   1.534   6.215   2.540 -1.6522 -0.7491  2.1216
16466TIP3   OH270812   4.276   4.307  12.537  0.3469  0.3421  0.1589
16466TIP3    H170813   4.323   4.226  12.553 -0.6612 -0.0181  1.5225
16466TIP3    H270814   4.212   4.285  12.470  0.8880  0.3537 -0.3688
16467TIP3   OH270815   2.739   3.004   0.035 -0.1516 -0.1410 -0.3102
16467TIP3    H170816   2.753   2.922  -0.013 -2.0615 -1.4207  1.1667
16467TIP3    H270817   2.763   2.983   0.125 -0.8132  0.8921  0.1207
16468TIP3   OH270818   6.146   0.444   1.993 -0.2028  0.3620 -0.4711
16468TIP3    H170819   6.058   0.444   2.031 -0.1830 -0.3023 -0.4192
16468TIP3    H270820   6.156   0.356   1.957  0.8344  0.0974  0.4301
16469TIP3   OH270821   2.411   0.582  11.134 -0.6846 -0.3323 -0.5959
16469TIP3    H170822   2.383   0.604  11.223  2.0456  2.6153 -0.2723
16469TIP3    H270823   2.350   0.629  11.077 -0.1216  1.0601 -0.0946
16470TIP3   OH270824   5.690   4.310  11.273  0.1865 -0.3545  0.3419
16470TIP3    H170825   5.599   4.281  11.278 -0.7647  2.4087  1.4094
16470TIP3    H270826   5.685   4.405  11.288  3.1117  0.1424 -1.1162
16471TIP3   OH270827   2.102   1.010  13.277 -0.1752 -0.2093  0.2030
16471TIP3    H170828   2.038   1.073  13.244 -1.3267 -0.5462  1.6761
16471TIP3    H270829   2.055   0.962  13.345  1.4382 -0.9555  0.8423
16472TIP3   OH270830   4.444   3.414  16.184 -0.1545 -0.2820  0.2673
16472TIP3    H170831   4.470   3.342  16.127 -0.2949 -0.8774  0.9333
16472TIP3    H270832   4.508   3.410  16.256  0.8338  1.2755 -0.4722
16473TIP3   OH270833   6.619   5.674  12.772  0.9349  0.1774 -0.1062
16473TIP3    H170834   6.674   5.720  12.836  0.3333 -0.5102  0.9488
16473TIP3    H270835   6.546   5.641  12.824  0.2768 -0.1691 -1.2213
16474TIP3   OH270836   2.954   5.126  10.831 -1.2180  0.7760 -0.2996
16474TIP3    H170837   2.957   5.193  10.763  0.8478  1.9359  0.8707
16474TIP3    H270838   2.981   5.045  10.786  0.1585  1.5333 -0.8956
16475TIP3   OH270839   3.313   2.335   1.503  0.4461  0.4893  0.3238
16475TIP3    H170840   3.359   2.367   1.581  0.8162 -1.0274  0.7673
16475TIP3    H270841   3.220   2.341   1.526  0.4228  2.3993 -0.1023
16476TIP3   OH270842   5.674   5.191   5.747 -0.0417  0.1111  0.8155
16476TIP3    H170843   5.657   5.278   5.709 -0.9567 -0.2345  0.3977
16476TIP3    H270844   5.730   5.209   5.822  0.5532  0.9726  0.1958
16477TIP3   OH270845   2.182   0.075   5.711 -0.1397 -0.6989  0.0919
16477TIP3    H170846   2.109   0.109   5.658  0.6092  0.4525 -0.2421
16477TIP3    H270847   2.182  -0.019   5.693 -0.8010 -0.5441 -0.8353
16478TIP3   OH270848   5.080   2.084   5.453 -0.3251 -0.3263 -0.2950
16478TIP3    H170849   5.111   1.998   5.425 -2.3010 -0.8191 -1.2100
16478TIP3    H270850   4.998   2.065   5.500 -0.4624  1.0093  0.0452
16479TIP3   OH270851   3.756   5.318  11.748  0.1262 -0.8893  0.4533
16479TIP3    H170852   3.848   5.344  11.754  0.7250 -2.6700 -0.2088
16479TIP3    H270853   3.739   5.313  11.654 -0.3604 -1.5161  0.5707
16480TIP3   OH270854   1.296   5.902  16.301  0.4589 -0.3163 -0.5085
16480TIP3    H170855   1.236   5.842  16.257  0.5775  0.2967 -1.5444
16480TIP3    H270856   1.289   5.984  16.252  0.9320  0.2655  0.3561
16481TIP3   OH270857   3.770   3.341  10.353  0.0975 -0.0622 -0.1706
16481TIP3    H170858   3.676   3.328  10.368  0.1345  0.5442  0.6607
16481TIP3    H270859   3.775   3.416  10.294  0.0856  0.9079  1.0267
16482TIP3   OH270860   5.771   5.145   5.249 -0.2347  0.2299 -0.0141
16482TIP3    H170861   5.832   5.143   5.323 -0.4222 -2.8318  0.1867
16482TIP3    H270862   5.827   5.158   5.173  0.4870 -0.6797  0.3373
16483TIP3   OH270863   6.499   2.068   0.024 -0.2674 -0.4267 -0.1937
16483TIP3    H170864   6.530   2.119  -0.050 -0.3247 -0.5619 -0.3111
16483TIP3    H270865   6.548   1.985   0.019  0.8178  0.1189  0.7627
16484TIP3   OH270866   2.986   3.338   4.510  0.1468 -0.0046  0.2943
16484TIP3    H170867   3.035   3.276   4.565  1.8395 -0.5853 -1.6998
16484TIP3    H270868   2.985   3.296   4.423 -1.6353  1.2560 -0.3458
16485TIP3   OH270869   6.732   3.450   3.757 -0.2961 -0.1421  0.2254
16485TIP3    H170870   6.762   3.360   3.745 -0.5861 -0.3433  0.9547
16485TIP3    H270871   6.810   3.498   3.784  0.3107  0.2634 -2.0440
16486TIP3   OH270872   4.677   5.191  16.081  0.1835  0.1932  0.6620
16486TIP3    H170873   4.655   5.115  16.027  0.8773 -1.0115  2.0105
16486TIP3    H270874   4.596   5.240  16.087 -0.0025  0.1945 -1.1706
16487TIP3   OH270875   3.461   2.579   2.854  0.9433 -0.0147  0.6068
16487TIP3    H170876   3.522   2.652   2.843  0.1913  1.0467  2.8031
16487TIP3    H270877   3.507   2.518   2.912  1.0770 -0.6846 -0.1949
16488TIP3   OH270878   1.992   4.262   1.643 -0.0105 -0.0688  0.1569
16488TIP3    H170879   2.003   4.170   1.666 -1.7692 -0.4550 -0.3865
16488TIP3    H270880   1.898   4.278   1.654  0.3364  1.7784  0.6571
16489TIP3   OH270881   2.809   1.383   6.408 -0.7645 -1.2887 -0.6848
16489TIP3    H170882   2.831   1.308   6.353  3.5597 -1.5247  0.9660
16489TIP3    H270883   2.832   1.460   6.356  1.1505 -1.4295 -0.0997
16490TIP3   OH270884   4.846   0.052   0.846 -0.4775  0.3097  0.6678
16490TIP3    H170885   4.802  -0.031   0.860  0.2984 -0.3137 -0.4425
16490TIP3    H270886   4.894   0.068   0.928 -0.6035 -0.3433  0.8732
16491TIP3   OH270887   2.233   1.475  14.555 -0.7071  0.5067  0.1761
16491TIP3    H170888   2.211   1.448  14.644 -2.1663  1.9484  0.2948
16491TIP3    H270889   2.290   1.551  14.566  1.7005 -1.1327 -0.1611
16492TIP3   OH270890   6.566   0.260  11.823 -0.4848  0.0448  0.0586
16492TIP3    H170891   6.660   0.279  11.816 -0.8244  1.7760 -0.1607
16492TIP3    H270892   6.561   0.165  11.815  1.2117 -0.0545 -0.3423
16493TIP3   OH270893   3.685   1.372   4.844  0.5741 -0.4827 -0.2377
16493TIP3    H170894   3.771   1.369   4.886  1.0945  1.4441 -1.0880
16493TIP3    H270895   3.702   1.351   4.752 -0.2577 -2.5495  0.0230
16494TIP3   OH270896   3.916   3.132   1.077 -0.2455 -1.4961  0.5150
16494TIP3    H170897   3.999   3.124   1.124  0.1086 -1.5187 -0.1134
16494TIP3    H270898   3.939   3.122   0.985 -0.8117 -0.6117  0.2578
16495TIP3   OH270899   6.709   6.471  13.087  0.0356  0.4794  0.6797
16495TIP3    H170900   6.765   6.539  13.125 -0.7094  1.1018  0.6837
16495TIP3    H270901   6.624   6.484  13.127 -1.2712  2.2454 -2.3152
16496TIP3   OH270902   5.415   1.584   4.611  0.4183  0.2214 -0.1862
16496TIP3    H170903   5.421   1.652   4.678  1.1144 -2.0692  2.2741
16496TIP3    H270904   5.323   1.585   4.584  0.1139  1.2377  0.8081
16497TIP3   OH270905   1.320   4.200  14.185 -0.0489 -0.1182  0.3284
16497TIP3    H170906   1.414   4.208  14.200  0.1467  0.5818 -1.0878
16497TIP3    H270907   1.311   4.126  14.125 -0.2580  0.6907 -0.6582
16498TIP3   OH270908   6.526   3.203   0.302  0.7904  0.4975 -0.3899
16498TIP3    H170909   6.438   3.240   0.305  1.3195  1.7449  1.2229
16498TIP3    H270910   6.527   3.148   0.224 -1.2383  0.8932 -0.7287
16499TIP3   OH270911   0.066   0.393   2.453 -0.2609 -0.1553  0.0362
16499TIP3    H170912  -0.026   0.419   2.456  0.3699  2.2961  1.7292
16499TIP3    H270913   0.105   0.435   2.530  2.7765  1.0534 -1.9663
16500TIP3   OH270914   6.266   0.690   5.376  0.1502 -0.4968  0.2724
16500TIP3    H170915   6.297   0.745   5.304 -0.3943  0.9620  1.1103
16500TIP3    H270916   6.191   0.737   5.411 -0.7414 -2.1301  0.6195
16501TIP3   OH270917   1.558   6.773   0.301 -0.4507  0.7518 -0.0130
16501TIP3    H170918   1.603   6.707   0.249 -0.6684  0.0679  0.6403
16501TIP3    H270919   1.479   6.794   0.251 -0.2232  0.7466 -0.3743
16502TIP3   OH270920   3.369   6.317  16.202 -0.4661 -0.0752  0.7396
16502TIP3    H170921   3.320   6.246  16.244 -0.7067 -0.3936 -0.0521
16502TIP3    H270922   3.450   6.277  16.172 -0.6649 -0.0587  0.1634
16503TIP3   OH270923   3.560   2.067  13.854  0.1673 -0.4326 -0.6827
16503TIP3    H170924   3.541   2.071  13.761 -0.7269  0.2584 -0.4824
16503TIP3    H270925   3.631   2.003  13.862  2.1302  1.4205 -2.1195
16504TIP3   OH270926   4.150   4.166   3.049  0.2698 -0.0942 -0.5184
16504TIP3    H170927   4.150   4.077   3.014  0.8096  0.2121 -1.3322
16504TIP3    H270928   4.138   4.155   3.143 -0.6351 -0.9714 -0.7211
16505TIP3   OH270929   5.757   0.267   0.555 -0.2227  0.5228  0.4459
16505TIP3    H170930   5.696   0.333   0.589 -0.1280  0.5547  0.5511
16505TIP3    H270931   5.705   0.187   0.548  0.1780  0.0802  2.2158
16506TIP3   OH270932   0.559   4.718  12.709  0.3898 -0.0403 -0.3206
16506TIP3    H170933   0.481   4.773  12.699  1.3578  2.1160  2.5392
16506TIP3    H270934   0.541   4.664  12.786  1.9965  1.1752  0.9749
16507TIP3   OH270935   3.354   4.679   6.498 -0.3022 -0.0044  0.2286
16507TIP3    H170936   3.366   4.750   6.562  2.7394 -1.1219  1.0959
16507TIP3    H270937   3.436   4.679   6.447 -1.7137 -0.6073 -2.2227
16508TIP3   OH270938   1.725   3.382   5.315 -0.3318  0.2483  0.1417
16508TIP3    H170939   1.644   3.374   5.366 -0.3045  0.1486  0.1694
16508TIP3    H270940   1.726   3.305   5.259  0.3506 -0.4103  1.0178
16509TIP3   OH270941   6.649   6.457   5.313  0.1018  0.2824  0.5041
16509TIP3    H170942   6.620   6.444   5.403 -0.5909  1.0581  0.4116
16509TIP3    H270943   6.723   6.517   5.320 -0.1199  0.5535  0.5429
16510TIP3   OH270944   1.274   6.243  16.724  0.3072 -0.0582 -0.3079
16510TIP3    H170945   1.329   6.321  16.712 -1.6889  1.1564 -2.3813
16510TIP3    H270946   1.196   6.261  16.671 -2.1976 -1.5834  2.5502
16511TIP3   OH270947   5.375   4.006   2.405 -0.6549 -0.5705  0.3913
16511TIP3    H170948   5.399   3.951   2.480  2.5717 -0.3830 -0.3514
16511TIP3    H270949   5.389   3.950   2.329  2.4720  0.9702 -0.3676
16512TIP3   OH270950   4.003   5.870   0.094  0.2072 -0.2055  0.5153
16512TIP3    H170951   3.980   5.793   0.147 -0.3671  0.5824  1.4362
16512TIP3    H270952   4.095   5.886   0.115  0.7053 -1.3732 -0.6406
16513TIP3   OH270953   3.539   0.857   4.145  0.4524  0.9711  0.2928
16513TIP3    H170954   3.585   0.832   4.065  0.2915  2.2169 -0.2122
16513TIP3    H270955   3.607   0.893   4.202  0.1001  3.3507 -0.6764
16514TIP3   OH270956   5.696   2.090  13.398  1.0405  0.1169  0.2745
16514TIP3    H170957   5.702   1.998  13.423  0.9804  0.1408  0.3805
16514TIP3    H270958   5.718   2.092  13.305 -0.0948 -0.1531 -0.0108
16515TIP3   OH270959   5.967   3.684   5.469 -0.6560 -0.5281 -0.1159
16515TIP3    H170960   5.971   3.609   5.528 -0.7839 -0.4927 -0.0614
16515TIP3    H270961   5.970   3.760   5.527  0.5203 -0.4753 -0.2256
16516TIP3   OH270962   4.887   0.061   1.965  0.4311  0.5418  0.3130
16516TIP3    H170963   4.880  -0.034   1.978  1.3348  0.4291  0.0316
16516TIP3    H270964   4.821   0.098   2.024  0.9244 -0.1974  1.3605
16517TIP3   OH270965   3.219   2.482  16.874  0.3817 -0.2691 -0.0656
16517TIP3    H170966   3.196   2.529  16.794  0.9665  0.1584  0.0137
16517TIP3    H270967   3.146   2.421  16.887 -0.4318  0.6531 -0.1313
16518TIP3   OH270968   5.319   4.577  11.718  0.0399  0.0384  0.5304
16518TIP3    H170969   5.405   4.551  11.684  0.6629  1.1363  1.2244
16518TIP3    H270970   5.273   4.494  11.731  1.0825 -0.5844  0.3785
16519TIP3   OH270971   1.397   5.863   4.185 -0.6774 -0.6496 -0.5063
16519TIP3    H170972   1.350   5.849   4.267 -2.6639 -2.5540 -1.8274
16519TIP3    H270973   1.364   5.947   4.153  0.0722  0.0776  0.5679
16520TIP3   OH270974   5.114   1.547  15.194  0.3336  0.3593 -0.1179
16520TIP3    H170975   5.130   1.608  15.122 -0.3883 -0.1015 -0.6970
16520TIP3    H270976   5.197   1.540  15.239  1.2410 -0.4498 -1.8052
16521TIP3   OH270977   6.255   1.893   1.743  0.0458  0.0077 -0.7319
16521TIP3    H170978   6.349   1.876   1.734  0.0723  0.1068 -0.6471
16521TIP3    H270979   6.227   1.919   1.655 -0.2269 -1.5608 -1.1343
16522TIP3   OH270980   2.574   4.916  17.174 -0.3846 -0.0752 -0.5371
16522TIP3    H170981   2.628   4.989  17.145  0.4525 -0.3517  0.2647
16522TIP3    H270982   2.493   4.923  17.123 -0.0876  1.0772 -0.8652
16523TIP3   OH270983   3.410   5.407  10.799  0.2130  0.1193  0.1242
16523TIP3    H170984   3.483   5.367  10.847  0.7768  1.3936  0.3492
16523TIP3    H270985   3.395   5.491  10.842 -2.2243 -0.6143  0.8685
16524TIP3   OH270986   3.907   5.517  12.080 -0.0043 -0.2750 -0.6466
16524TIP3    H170987   3.813   5.523  12.065 -0.2426 -1.0227  0.3954
16524TIP3    H270988   3.922   5.564  12.162  0.2460 -1.5930  0.0970
16525TIP3   OH270989   4.909   0.088   4.834  0.6697 -0.0338  0.6114
16525TIP3    H170990   4.906   0.160   4.897 -0.2026  0.6058 -0.1444
16525TIP3    H270991   4.828   0.096   4.784  0.4055 -1.7289  0.7134
16526TIP3   OH270992   1.723   0.890  14.430  0.2884  0.5244  0.0157
16526TIP3    H170993   1.812   0.866  14.406  0.1337 -1.4969  1.2085
16526TIP3    H270994   1.733   0.963  14.490  1.1284  0.4742 -0.0569
16527TIP3   OH270995   0.125   2.835  14.954 -0.2510  0.3342  0.0725
16527TIP3    H170996   0.067   2.905  14.985 -0.9318  0.3391 -1.1699
16527TIP3    H270997   0.072   2.755  14.963  0.3776  0.0205  1.0972
16528TIP3   OH270998   4.249   4.385   2.020 -0.0249  0.8132  0.4587
16528TIP3    H170999   4.228   4.321   1.952 -0.9019  2.5560 -0.9775
16528TIP3    H271000   4.345   4.387   2.022  0.0191  0.6443 -0.6596
16529TIP3   OH271001   1.267   1.683  12.973 -0.3699 -0.0075  0.1273
16529TIP3    H171002   1.301   1.610  12.921 -0.3406 -0.9251  1.3882
16529TIP3    H271003   1.297   1.762  12.927  1.1810 -0.7852 -0.2608
16530TIP3   OH271004   6.732   2.852  14.355 -0.3840  0.1523  0.0301
16530TIP3    H171005   6.704   2.813  14.272  3.3892  0.6872 -1.7257
16530TIP3    H271006   6.798   2.917  14.329  3.9793 -2.3441  3.4961
16531TIP3   OH271007   1.253   4.200  12.836  0.3883 -0.4220 -0.8739
16531TIP3    H171008   1.346   4.212  12.816  1.0144  1.6191  2.5299
16531TIP3    H271009   1.250   4.122  12.892 -0.1253 -1.0134 -1.6955
16532TIP3   OH271010   2.444   2.047  16.689  0.0455  0.3917  0.2350
16532TIP3    H171011   2.467   2.120  16.632 -1.1253 -1.0290 -2.2770
16532TIP3    H271012   2.348   2.048  16.691  0.0343 -0.5861  0.8039
16533TIP3   OH271013   4.211   6.432  14.463  0.1327 -0.3885  0.2022
16533TIP3    H171014   4.249   6.414  14.377 -1.8690 -1.5218 -0.4960
16533TIP3    H271015   4.125   6.468  14.445 -0.2359 -0.4089  1.7346
16534TIP3   OH271016   3.841   1.213  15.231 -0.0380  0.3399 -0.3254
16534TIP3    H171017   3.789   1.242  15.156 -0.4846  0.0123 -0.1534
16534TIP3    H271018   3.841   1.288  15.291  2.4335  1.5335 -1.6969
16535TIP3   OH271019   1.047   2.641   0.239  0.6434  0.0496  0.4333
16535TIP3    H171020   1.135   2.603   0.234  0.6861  0.3080 -1.9201
16535TIP3    H271021   0.988   2.565   0.236  0.7709 -0.0869  1.2843
16536TIP3   OH271022   4.667   4.528  16.923 -0.9508  0.4639 -0.0115
16536TIP3    H171023   4.734   4.579  16.877  0.4919 -0.8007  0.6307
16536TIP3    H271024   4.654   4.451  16.869 -1.5727  0.4831  0.1037
16537TIP3   OH271025   1.668   3.685   1.030 -0.4721 -0.2830  0.1316
16537TIP3    H171026   1.763   3.690   1.016 -0.3955  1.1744  0.9427
16537TIP3    H271027   1.659   3.641   1.115 -0.4828  0.1791  0.3731
16538TIP3   OH271028   5.324   2.712  11.525  0.4266  0.1659  0.2754
16538TIP3    H171029   5.304   2.789  11.472 -0.8163  1.3568  2.3236
16538TIP3    H271030   5.282   2.639  11.479  0.0417  1.0135 -0.7475
16539TIP3   OH271031   0.495   4.540   4.113  0.2078 -0.5516 -0.0890
16539TIP3    H171032   0.471   4.628   4.143 -2.6417 -0.6255 -1.7249
16539TIP3    H271033   0.562   4.510   4.174 -1.1846  1.4286  2.5962
16540TIP3   OH271034   5.994   0.226   0.383  0.0407 -0.3923  0.0333
16540TIP3    H171035   5.982   0.215   0.288  0.3950 -3.3353  0.2314
16540TIP3    H271036   5.904   0.233   0.417 -0.1736 -1.0275 -0.3809
16541TIP3   OH271037   0.803   1.224  13.261  0.6860 -0.4770 -0.1272
16541TIP3    H171038   0.716   1.257  13.283  0.2762 -1.7380  0.2608
16541TIP3    H271039   0.858   1.302  13.257  0.0927  0.1644  2.2110
16542TIP3   OH271040   0.779   2.228  17.192  0.3925 -1.0638 -0.0666
16542TIP3    H171041   0.778   2.291  17.264 -1.3229 -1.0194 -0.0833
16542TIP3    H271042   0.771   2.143  17.235  0.2206 -1.0935 -0.1557
16543TIP3   OH271043   6.474   0.995  15.919 -0.1619  0.6004 -0.4450
16543TIP3    H171044   6.526   0.929  15.872 -0.5249  0.4517 -0.6395
16543TIP3    H271045   6.537   1.064  15.940  0.0284  0.6280 -1.0779
16544TIP3   OH271046   2.366   1.038  16.848 -0.0112  0.0545  0.0723
16544TIP3    H171047   2.371   0.946  16.824 -0.4262  0.1614 -0.4298
16544TIP3    H271048   2.304   1.076  16.787  2.0730  1.2307 -1.4542
16545TIP3   OH271049   1.494   6.670  14.031  0.0339  0.6403  0.0563
16545TIP3    H171050   1.452   6.664  13.945  1.1852  1.1559 -0.5665
16545TIP3    H271051   1.509   6.579  14.056 -0.6107  0.4763 -0.1382
16546TIP3   OH271052   3.055   2.907  15.627  0.7159  0.2362  0.0840
16546TIP3    H171053   3.032   2.814  15.626 -0.9160  0.5659  1.4563
16546TIP3    H271054   3.143   2.911  15.591  0.7548 -1.8201 -0.1563
16547TIP3   OH271055   1.681   6.005  15.666  0.0120  0.0348 -0.3023
16547TIP3    H171056   1.691   6.073  15.733 -1.4596 -0.1664  0.1600
16547TIP3    H271057   1.766   6.001  15.624  1.0197  0.1153  1.6135
16548TIP3   OH271058   3.835   3.202   5.963  0.4688 -0.1878  0.5406
16548TIP3    H171059   3.911   3.210   6.021  2.0557  1.3275 -1.5470
16548TIP3    H271060   3.814   3.109   5.964  2.8690 -0.8161  0.6659
16549TIP3   OH271061   5.526   2.570   4.246  0.3051  0.4161  1.2646
16549TIP3    H171062   5.507   2.526   4.329  0.0926 -1.8140  0.1372
16549TIP3    H271063   5.620   2.556   4.232 -0.0152 -1.0070  0.2477
16550TIP3   OH271064   4.153   3.624  11.522  0.1360  0.7766 -0.1549
16550TIP3    H171065   4.148   3.532  11.495  4.1526  1.0614 -2.9082
16550TIP3    H271066   4.172   3.621  11.615 -1.0739 -1.0633  0.0911
16551TIP3   OH271067   2.229   5.297  13.155  0.0340  0.1384  0.6253
16551TIP3    H171068   2.201   5.283  13.246 -1.3462  0.0545  0.2114
16551TIP3    H271069   2.180   5.232  13.105 -1.4377  2.0282 -0.5201
16552TIP3   OH271070   4.702   0.802   2.425  0.4943  0.3163 -0.3906
16552TIP3    H171071   4.761   0.790   2.499 -1.3021  2.1993  1.4898
16552TIP3    H271072   4.617   0.821   2.465 -0.2619  2.8214 -2.8977
16553TIP3   OH271073   6.146   4.290   2.859 -0.1681 -0.1187  0.1202
16553TIP3    H171074   6.115   4.263   2.773 -0.4502 -0.9023  0.4614
16553TIP3    H271075   6.241   4.273   2.856 -0.2132 -0.3691  0.0407
16554TIP3   OH271076   6.153   3.530   2.956 -0.5016  0.2960 -0.0285
16554TIP3    H171077   6.134   3.437   2.969  3.5744 -0.6448  0.4903
16554TIP3    H271078   6.188   3.535   2.868  2.2500  0.6187  0.9809
16555TIP3   OH271079   5.435   2.756  15.686 -0.0756  0.7525 -0.2181
16555TIP3    H171080   5.458   2.844  15.656  2.6146  0.5550  0.9958
16555TIP3    H271081   5.463   2.754  15.778 -0.1144 -1.3823 -0.2063
16556TIP3   OH271082   2.643   4.628  14.404 -0.2163 -0.1437 -0.7966
16556TIP3    H171083   2.681   4.654  14.319  0.3358  2.9088  0.2510
16556TIP3    H271084   2.718   4.615  14.461 -0.6195 -1.1078 -0.4585
16557TIP3   OH271085   5.780   4.299  12.246 -0.4061  0.4113 -0.3045
16557TIP3    H171086   5.763   4.379  12.295  0.6216  0.3821  0.1303
16557TIP3    H271087   5.731   4.231  12.292  0.5578  0.3835  0.7195
16558TIP3   OH271088   4.661   2.912  11.823  0.1217 -0.3631 -0.2294
16558TIP3    H171089   4.617   2.884  11.743  2.2968 -0.6036 -1.4359
16558TIP3    H271090   4.752   2.884  11.811  0.6407  0.1478  2.0759
16559TIP3   OH271091   4.252   4.572   3.943 -0.0960  0.4739 -0.4449
16559TIP3    H171092   4.251   4.580   3.848  0.9602  1.5492 -0.3996
16559TIP3    H271093   4.201   4.646   3.975 -0.2124  0.2780 -0.1653
16560TIP3   OH271094   2.857   3.607  16.427  0.3131  0.1347  0.1624
16560TIP3    H171095   2.798   3.584  16.355  0.0070  0.3207  0.3535
16560TIP3    H271096   2.799   3.617  16.503  0.7097 -0.7674  0.5985
16561TIP3   OH271097   2.405   6.732   0.716 -0.6087  0.6599 -0.1810
16561TIP3    H171098   2.329   6.782   0.745 -1.1384  0.3186 -0.9430
16561TIP3    H271099   2.453   6.792   0.660 -2.3423 -0.2544 -2.8162
16562TIP3   OH271100   4.500   0.301  13.435  0.5718 -0.2412  0.4931
16562TIP3    H171101   4.568   0.365  13.454  0.3484 -0.0672  0.6946
16562TIP3    H271102   4.543   0.238  13.376  0.8441 -0.0155  0.4498
16563TIP3   OH271103   2.484   4.808  15.662 -0.0068 -0.1507 -0.7545
16563TIP3    H171104   2.392   4.836  15.658  0.1016  0.2062 -0.7915
16563TIP3    H271105   2.532   4.887  15.686  0.2600 -0.3994 -0.4561
16564TIP3   OH271106   3.890   6.621  13.204  0.4998 -0.4059  0.7795
16564TIP3    H171107   3.807   6.668  13.199  1.6487  1.6205 -1.6397
16564TIP3    H271108   3.947   6.678  13.257  0.7638 -1.0803  1.2322
16565TIP3   OH271109   6.432   6.589   5.699 -0.5652  0.3693  0.0108
16565TIP3    H171110   6.346   6.628   5.714 -0.6346  0.3969 -0.4273
16565TIP3    H271111   6.489   6.629   5.765 -0.8776  0.3853  0.2710
16566TIP3   OH271112   5.473   3.654  13.817  0.0830  0.0669 -0.1914
16566TIP3    H171113   5.403   3.595  13.845 -1.2293  1.2527 -0.8502
16566TIP3    H271114   5.545   3.596  13.793  0.1529 -1.1147  2.5523
16567TIP3   OH271115   6.727   3.113   2.127  0.1007 -0.0588  0.3967
16567TIP3    H171116   6.651   3.143   2.177 -0.5594 -1.1400  0.0497
16567TIP3    H271117   6.788   3.082   2.194  0.3541  1.0114  0.6911
16568TIP3   OH271118   6.523   6.563   2.259  0.0266 -0.8323 -0.6637
16568TIP3    H171119   6.457   6.511   2.213 -0.9080 -1.4392  1.2617
16568TIP3    H271120   6.586   6.499   2.292 -0.5861 -0.6878  0.8649
16569TIP3   OH271121   1.038   1.528   1.465  0.9967 -0.7767  0.2433
16569TIP3    H171122   1.105   1.511   1.531  1.4288  1.4162  0.4340
16569TIP3    H271123   0.999   1.611   1.492 -0.7429 -1.2424 -0.7375
16570TIP3   OH271124   3.310   6.079  11.247  0.5958 -0.2545  0.4850
16570TIP3    H171125   3.344   6.098  11.159  1.7059 -1.6553  0.5762
16570TIP3    H271126   3.252   6.004  11.235  2.7275 -2.1192  1.2519
16571TIP3   OH271127   5.115   1.603   1.228 -0.0025  0.3641 -0.1013
16571TIP3    H171128   5.030   1.623   1.190 -0.4634 -1.1287  0.0677
16571TIP3    H271129   5.149   1.688   1.258 -2.1505  0.8130  1.3117
16572TIP3   OH271130   5.853   3.608  15.891  0.8175 -0.3411  0.6068
16572TIP3    H171131   5.924   3.553  15.857  0.3577 -0.2728 -0.5024
16572TIP3    H271132   5.888   3.643  15.973  2.4244  0.3845 -0.3344
16573TIP3   OH271133   2.291   1.323  12.162  0.0971  0.3919 -0.6335
16573TIP3    H171134   2.247   1.327  12.077 -1.9715  1.6278  0.4020
16573TIP3    H271135   2.270   1.236  12.196  0.5790  0.0502 -1.2094
16574TIP3   OH271136   4.455   3.574   2.686 -0.4673 -0.1022 -0.1086
16574TIP3    H171137   4.405   3.575   2.605 -0.0216  0.8396 -0.3941
16574TIP3    H271138   4.533   3.522   2.666  0.0828  0.8715 -0.5825
16575TIP3   OH271139   6.438   0.556  13.524  0.3561  0.0850 -0.3162
16575TIP3    H171140   6.446   0.491  13.454  0.5217  0.5250 -0.7088
16575TIP3    H271141   6.525   0.560  13.564  0.6558  0.8590 -1.0109
16576TIP3   OH271142   6.069   4.044  16.797  0.2226  0.3704 -0.1229
16576TIP3    H171143   6.066   3.996  16.880  1.8427  0.0366 -0.2366
16576TIP3    H271144   6.023   3.988  16.735 -0.7590  0.4980  0.4662
16577TIP3   OH271145   1.833   3.290  12.211 -0.1990  0.1534 -0.3908
16577TIP3    H171146   1.892   3.294  12.286 -0.2608 -1.2851 -0.2284
16577TIP3    H271147   1.846   3.373  12.165  2.2655 -0.2762 -0.5995
16578TIP3   OH271148   4.342   2.091   3.010 -0.1031 -0.4871 -0.2744
16578TIP3    H171149   4.326   2.112   2.918  1.2363  0.9292 -0.2420
16578TIP3    H271150   4.274   2.138   3.058 -0.5071 -0.8289 -0.5107
16579TIP3   OH271151   4.265   1.970   2.710 -0.4602 -0.1730 -1.2088
16579TIP3    H171152   4.328   1.910   2.671  0.1069 -0.1304 -0.3887
16579TIP3    H271153   4.185   1.957   2.660 -0.0783 -0.9350 -1.6396
16580TIP3   OH271154   3.761   4.138   5.493  0.1595  0.3080  0.4794
16580TIP3    H171155   3.802   4.223   5.473 -0.2640  0.1882 -1.0894
16580TIP3    H271156   3.668   4.151   5.473  0.3745 -1.0150 -1.6808
16581TIP3   OH271157   0.588   4.682  14.577 -0.7239  0.4962 -0.1433
16581TIP3    H171158   0.519   4.643  14.632  0.7822  0.5450  1.8812
16581TIP3    H271159   0.544   4.701  14.494 -3.2916  0.9880  1.2214
16582TIP3   OH271160   0.364   4.832  15.786 -0.0295 -0.2668 -0.2242
16582TIP3    H171161   0.418   4.813  15.863 -1.7706  1.0209  1.4264
16582TIP3    H271162   0.289   4.773  15.795 -0.9067  0.8243 -0.1604
16583TIP3   OH271163   4.835   2.351  11.407 -0.1645  0.3712  0.2022
16583TIP3    H171164   4.918   2.371  11.365  0.2031  0.1023  0.7841
16583TIP3    H271165   4.769   2.368  11.340  0.3964  0.0462 -0.4459
16584TIP3   OH271166   5.279   4.563   5.358  0.5923  0.3058 -0.0181
16584TIP3    H171167   5.234   4.522   5.284 -2.0757  1.7733  0.6536
16584TIP3    H271168   5.264   4.657   5.346 -0.6619  0.5639  2.7236
16585TIP3   OH271169   3.572   2.038  11.590 -0.2020 -0.0609  0.0422
16585TIP3    H171170   3.649   2.035  11.533  0.1492 -2.2062  0.5356
16585TIP3    H271171   3.606   2.068  11.675 -0.0572 -0.2010  0.0343
16586TIP3   OH271172   0.250   6.269   4.395  0.6295  0.5111  0.1219
16586TIP3    H171173   0.240   6.200   4.461 -1.4379 -0.1324 -0.7941
16586TIP3    H271174   0.219   6.348   4.439 -1.0370  0.0264 -0.1170
16587TIP3   OH271175   0.927   2.161   3.869  0.7702  0.8372  0.1568
16587TIP3    H171176   0.935   2.068   3.889  0.9142  1.1251  1.5207
16587TIP3    H271177   1.017   2.195   3.877  0.7409  1.0805 -0.4562
16588TIP3   OH271178   0.274   1.104  12.387  0.0646  0.0848  0.1240
16588TIP3    H171179   0.288   1.167  12.458  1.4002 -1.5869  1.4259
16588TIP3    H271180   0.362   1.072  12.366 -0.7140 -3.0215  1.1412
16589TIP3   OH271181   3.353   4.285   0.748  0.8230  0.0804  0.0953
16589TIP3    H171182   3.409   4.208   0.758 -0.8984 -1.4388 -1.1044
16589TIP3    H271183   3.400   4.341   0.686  2.6034  0.5703  1.7897
16590TIP3   OH271184   5.249   0.768  14.559  0.0904 -0.0400 -0.2935
16590TIP3    H171185   5.279   0.848  14.517  1.6015 -0.8142 -0.7754
16590TIP3    H271186   5.298   0.764  14.642 -1.2725  0.3887  0.5648
16591TIP3   OH271187   0.901   3.041  14.500 -0.3286  0.0215  0.0720
16591TIP3    H171188   0.828   2.998  14.454 -0.6840 -0.6796  1.2407
16591TIP3    H271189   0.859   3.083  14.575 -0.1075  3.0984 -1.3922
16592TIP3   OH271190   4.885   5.337  17.037 -0.3522  0.0423 -0.1929
16592TIP3    H171191   4.832   5.259  17.022 -0.1957  0.2266 -1.9079
16592TIP3    H271192   4.974   5.304  17.044 -0.1556  0.1184 -1.9429
16593TIP3   OH271193   2.664   2.301  16.965 -0.1562  0.3127  0.3824
16593TIP3    H171194   2.587   2.307  17.022 -0.3978 -1.0940  0.2599
16593TIP3    H271195   2.650   2.220  16.915  0.9871  0.4925 -0.2705
16594TIP3   OH271196   0.916   5.616   1.986 -0.0556 -0.3724  0.0258
16594TIP3    H171197   0.973   5.542   1.962  0.3433 -0.6450  1.6803
16594TIP3    H271198   0.839   5.574   2.023  0.2308  0.0213  1.1011
16595TIP3   OH271199   3.131   5.642  14.055 -0.2525  0.5794  0.0107
16595TIP3    H171200   3.135   5.593  13.972  0.2156 -0.5572  0.6748
16595TIP3    H271201   3.041   5.674  14.060 -0.5495 -0.1410 -0.4937
16596TIP3   OH271202   1.263   1.630   5.327 -0.4532  0.0995 -0.1336
16596TIP3    H171203   1.182   1.623   5.277 -1.1921  2.1797  0.6479
16596TIP3    H271204   1.332   1.632   5.260 -1.0799 -0.9213 -0.8442
16597TIP3   OH271205   5.880   0.829  11.346  0.1464 -0.3475 -0.4898
16597TIP3    H171206   5.909   0.762  11.283  0.4777 -0.3660 -0.3215
16597TIP3    H271207   5.961   0.856  11.390 -0.4467 -3.0117  2.6036
16598TIP3   OH271208   0.704   2.157  16.743 -0.1297 -0.1258 -0.0129
16598TIP3    H171209   0.759   2.104  16.801  0.0475  1.4279  1.3126
16598TIP3    H271210   0.615   2.143  16.775 -0.1192  0.0950  0.1160
16599TIP3   OH271211   5.880   5.882   2.185  0.2411 -0.5340 -0.0124
16599TIP3    H171212   5.952   5.938   2.213  1.4940 -1.1694 -1.7725
16599TIP3    H271213   5.891   5.802   2.235  0.3846 -0.3874  0.1920
16600TIP3   OH271214   3.978   0.649   4.677 -0.1415  0.0320 -0.3635
16600TIP3    H171215   3.897   0.671   4.632 -0.3857 -1.3967 -0.6833
16600TIP3    H271216   3.994   0.558   4.653  2.1695  0.6039 -1.2349
16601TIP3   OH271217   1.438   5.938  17.090  0.1724  0.3717  0.5180
16601TIP3    H171218   1.494   5.907  17.161  0.3125 -1.9850 -0.5259
16601TIP3    H271219   1.457   5.879  17.017 -0.4838  2.2508 -1.2769
16602TIP3   OH271220   2.411   5.169  14.641  0.3823  0.0811 -0.4209
16602TIP3    H171221   2.413   5.081  14.679 -0.7152 -0.0549 -0.6466
16602TIP3    H271222   2.360   5.221  14.704 -1.3038 -0.1066 -1.5643
16603TIP3   OH271223   3.017   1.658   5.875  0.0006  0.3105  0.4535
16603TIP3    H171224   2.995   1.700   5.958 -2.3715 -0.6581  0.3912
16603TIP3    H271225   3.070   1.583   5.899 -1.7912 -0.7479  1.2874
16604TIP3   OH271226   5.174   3.688   6.406  0.9594 -0.0266  0.0377
16604TIP3    H171227   5.133   3.770   6.435  1.3191  0.8665 -1.7970
16604TIP3    H271228   5.152   3.624   6.473 -1.1784  1.0623  0.4445
16605TIP3   OH271229   2.598   5.091  16.502 -0.1181 -0.4575  0.4062
16605TIP3    H171230   2.559   5.005  16.486 -0.4410 -0.0775 -1.0470
16605TIP3    H271231   2.641   5.113  16.419 -1.1861  1.3533  0.2685
16606TIP3   OH271232   3.468   2.123  13.084  0.2255 -0.6066 -0.3082
16606TIP3    H171233   3.456   2.204  13.035 -0.6003 -0.0839  0.7176
16606TIP3    H271234   3.423   2.057  13.032 -0.7279 -0.0415 -0.2333
16607TIP3   OH271235   6.781   3.754  15.231  0.9407 -0.2591  0.1914
16607TIP3    H171236   6.804   3.838  15.191  0.1049 -0.3506 -0.5312
16607TIP3    H271237   6.687   3.745  15.214  0.7806 -0.8064  1.2733
16608TIP3   OH271238   1.279   0.212   5.219 -0.6510 -0.0223  0.5982
16608TIP3    H171239   1.292   0.302   5.250 -0.8985 -0.0544  0.8053
16608TIP3    H271240   1.246   0.166   5.296 -4.5989  0.6687 -0.4748
16609TIP3   OH271241   2.988   2.062  11.698  0.5694 -0.2214  0.4637
16609TIP3    H171242   3.045   2.037  11.770  0.8150  0.7203  0.6161
16609TIP3    H271243   2.901   2.071  11.738  1.0656  2.3405  1.1436
16610TIP3   OH271244   6.506   3.001  13.369 -0.1325 -0.0534  0.1009
16610TIP3    H171245   6.501   2.905  13.366  0.5662 -0.0842 -1.5373
16610TIP3    H271246   6.417   3.030  13.356 -0.7507 -0.4294  2.8498
16611TIP3   OH271247   5.483   0.529  13.547  0.5422 -0.1048 -0.6728
16611TIP3    H171248   5.567   0.508  13.505  1.0133 -0.8201  0.5865
16611TIP3    H271249   5.491   0.621  13.572  0.7523 -0.0307 -1.0046
16612TIP3   OH271250   3.020   4.988   5.279 -0.1559  0.2332 -0.5914
16612TIP3    H171251   3.031   4.944   5.364 -1.5675  0.7672 -0.0867
16612TIP3    H271252   2.979   4.922   5.224  1.6944 -0.4506 -1.2172
16613TIP3   OH271253   6.119   4.585   5.113  0.7197 -0.1198  0.1137
16613TIP3    H171254   6.196   4.530   5.123 -0.1885 -1.4632  0.0912
16613TIP3    H271255   6.092   4.606   5.202  0.8966  0.0348  0.1304
16614TIP3   OH271256   5.967   1.217  12.621 -0.0858  0.1482  0.1778
16614TIP3    H171257   6.004   1.223  12.533 -1.6306  1.9120 -0.4107
16614TIP3    H271258   5.880   1.257  12.614 -1.0733 -1.4551  2.0812
16615TIP3   OH271259   1.274   1.753  11.541 -0.1279 -0.1628  0.5481
16615TIP3    H171260   1.202   1.739  11.479  0.8128 -0.3848 -0.5252
16615TIP3    H271261   1.305   1.665  11.561  0.2802 -0.0318  0.4829
16616TIP3   OH271262   6.051   5.264  12.257 -0.0323  0.1141  0.4299
16616TIP3    H171263   6.068   5.199  12.189  2.1525  0.6461  0.4049
16616TIP3    H271264   6.103   5.235  12.331  0.3312  1.3754  0.6936
16617TIP3   OH271265   0.264   6.374  12.083  0.0874  0.4216 -0.3628
16617TIP3    H171266   0.353   6.341  12.077  0.1691  0.4199  0.6147
16617TIP3    H271267   0.225   6.356  11.998  1.1196  0.7221 -0.9074
16618TIP3   OH271268   1.201   6.758   1.490  0.1551 -0.1147  0.0712
16618TIP3    H171269   1.150   6.687   1.528 -0.1437  0.1074  0.0825
16618TIP3    H271270   1.137   6.824   1.466  0.2804 -0.4407 -1.2619
16619TIP3   OH271271   5.614   3.707   4.144  0.1504 -0.2210 -0.4958
16619TIP3    H171272   5.625   3.628   4.198  2.2524 -0.4436 -1.1447
16619TIP3    H271273   5.669   3.690   4.067 -1.9657  0.5241 -2.2441
16620TIP3   OH271274   5.043   0.840  13.886  0.1755  0.8905  0.1436
16620TIP3    H171275   4.948   0.832  13.890  0.1959  0.9962  0.8943
16620TIP3    H271276   5.070   0.778  13.818 -0.4998  1.4668 -0.6702
16621TIP3   OH271277   3.676   0.136   1.165  0.2211 -0.2398  0.6049
16621TIP3    H171278   3.581   0.127   1.172 -0.1500  2.3388 -0.1099
16621TIP3    H271279   3.707   0.136   1.256 -0.6826  0.5704  0.9264
16622TIP3   OH271280   4.239   3.887  15.778  0.5021 -0.0376  0.5675
16622TIP3    H171281   4.329   3.917  15.791  0.3911  0.4404  0.2671
16622TIP3    H271282   4.216   3.919  15.690 -0.7995  2.0083  1.5882
16623TIP3   OH271283   4.492   6.544  12.369 -0.2730 -0.2173 -0.2631
16623TIP3    H171284   4.419   6.605  12.358  0.1486  0.5498  0.9092
16623TIP3    H271285   4.465   6.488  12.442 -0.2220 -0.7566 -0.6564
16624TIP3   OH271286   4.236   1.854   2.420  0.5533  0.5042 -0.3914
16624TIP3    H171287   4.172   1.784   2.412  1.1048 -0.0700  0.1171
16624TIP3    H271288   4.183   1.933   2.434 -0.2762  0.8824 -4.4971
16625TIP3   OH271289   1.880   0.593   2.092 -0.3797  0.5603  0.2722
16625TIP3    H171290   1.794   0.551   2.085 -0.7402  0.9710  1.7492
16625TIP3    H271291   1.937   0.524   2.127 -0.2829  0.5059  0.0111
16626TIP3   OH271292   1.919   3.591  12.969  0.7225 -0.2203 -0.1808
16626TIP3    H171293   1.861   3.556  13.037  1.1829  0.3040  0.4929
16626TIP3    H271294   1.859   3.629  12.904  0.2959 -0.0302  0.3162
16627TIP3   OH271295   1.382   4.388   4.859  0.2233 -0.4921  0.6739
16627TIP3    H171296   1.433   4.469   4.852 -1.4294  0.5775  0.2646
16627TIP3    H271297   1.373   4.374   4.953 -0.8869  0.7835  0.7849
16628TIP3   OH271298   5.756   0.953   6.051 -0.6860 -0.4652  0.3140
16628TIP3    H171299   5.809   1.029   6.075 -0.5266 -0.8738  1.2649
16628TIP3    H271300   5.730   0.971   5.960  0.2059  0.2313  0.1753
16629TIP3   OH271301   3.786   1.265   4.295 -0.5949 -0.0088  0.1762
16629TIP3    H171302   3.841   1.327   4.248 -0.5432 -0.9886 -1.1182
16629TIP3    H271303   3.705   1.313   4.313 -0.5020  0.4954 -0.6964
16630TIP3   OH271304   4.039   5.642  15.722  0.0172 -0.2176  0.3208
16630TIP3    H171305   4.007   5.685  15.801  1.3077 -1.2282  1.4490
16630TIP3    H271306   4.010   5.551  15.731 -0.0985 -0.2722 -0.5357
16631TIP3   OH271307   1.148   4.621   6.253 -0.1745 -0.0113 -0.2081
16631TIP3    H171308   1.200   4.578   6.185  0.7650  0.1090  0.4216
16631TIP3    H271309   1.207   4.686   6.291 -1.5102  1.8396 -1.0834
16632TIP3   OH271310   6.120   2.358   4.177 -0.1635  0.2497  0.3404
16632TIP3    H171311   6.089   2.443   4.209 -1.0152  0.6434 -1.3919
16632TIP3    H271312   6.205   2.378   4.137  0.4806 -0.0741  1.5071
16633TIP3   OH271313   2.788   1.554  17.146  0.1839 -0.3276 -0.0634
16633TIP3    H171314   2.812   1.500  17.071  1.5534 -0.5733  0.5186
16633TIP3    H271315   2.871   1.570  17.191 -0.6152 -0.2327  1.4266
16634TIP3   OH271316   5.457   3.618  15.187  0.0536 -0.0018  0.4843
16634TIP3    H171317   5.427   3.676  15.118 -1.5900  0.0807  1.2091
16634TIP3    H271318   5.538   3.657  15.219  0.1068  0.6870 -0.4757
16635TIP3   OH271319   1.602   3.051  13.733  0.1237  0.1214 -0.3772
16635TIP3    H171320   1.594   3.062  13.638  0.6938 -0.2780 -0.4755
16635TIP3    H271321   1.571   2.962  13.749  0.7817 -0.0986 -0.2945
16636TIP3   OH271322   6.660   3.413  14.971  0.1100  0.2467  0.4821
16636TIP3    H171323   6.705   3.427  14.887 -0.6832  2.2666  0.3451
16636TIP3    H271324   6.578   3.461  14.963  0.9295  2.3860  3.1485
16637TIP3   OH271325   3.718   0.325  15.446  0.4551  0.3666 -0.6774
16637TIP3    H171326   3.741   0.365  15.529  0.4394  0.8666 -0.9125
16637TIP3    H271327   3.643   0.374  15.414 -0.7439 -1.0158 -0.1018
16638TIP3   OH271328   6.005   3.952   0.222  0.0450 -0.6458  0.3546
16638TIP3    H171329   5.973   3.863   0.235  0.6364 -0.6254  2.2079
16638TIP3    H271330   6.007   3.990   0.310  1.2557  0.6810 -0.2049
16639TIP3   OH271331   1.234   0.673  14.224 -0.3439 -0.1870  0.3138
16639TIP3    H171332   1.234   0.710  14.135 -0.3103  1.8203  1.0844
16639TIP3    H271333   1.175   0.598  14.219  1.4936 -1.6427 -1.9582
16640TIP3   OH271334   1.447   6.429  14.551  0.5140 -0.2260 -0.5438
16640TIP3    H171335   1.415   6.508  14.594 -2.4550 -1.9015  0.6208
16640TIP3    H271336   1.438   6.446  14.458 -0.5811  0.6431 -0.2950
16641TIP3   OH271337   1.719   2.199  16.512  0.5353 -0.3759 -0.0064
16641TIP3    H171338   1.668   2.194  16.432  2.2502  0.1798 -1.1814
16641TIP3    H271339   1.723   2.293  16.533 -1.8564 -0.6209  2.1224
16642TIP3   OH271340   5.239   2.092   1.340  0.4371 -0.2187 -0.3087
16642TIP3    H171341   5.280   2.097   1.254 -0.0070 -1.4259 -0.6213
16642TIP3    H271342   5.164   2.151   1.335  0.2258 -0.5236 -0.8782
16643TIP3   OH271343   3.555   1.380   3.588 -0.1055 -0.1955  0.6490
16643TIP3    H171344   3.571   1.285   3.595 -0.4587 -0.5229 -2.0408
16643TIP3    H271345   3.460   1.389   3.594 -0.1408 -0.1334  0.0809
16644TIP3   OH271346   5.147   3.298  12.176 -0.1392  0.3546  0.0525
16644TIP3    H171347   5.225   3.257  12.214  0.4814  0.1364 -1.4181
16644TIP3    H271348   5.087   3.224  12.159 -0.9782  0.5842  1.7922
16645TIP3   OH271349   0.112   1.050  16.667 -0.0897 -0.0369  0.2718
16645TIP3    H171350   0.066   1.112  16.611  0.2590  1.2828  1.4059
16645TIP3    H271351   0.044   1.009  16.719 -0.1472  0.7850  0.8561
16646TIP3   OH271352   0.691   2.336  14.945  0.6127 -0.2203 -0.0324
16646TIP3    H171353   0.631   2.393  14.896  0.8077  0.5681  0.6210
16646TIP3    H271354   0.740   2.396  15.001  1.6122 -0.9210 -0.1354
16647TIP3   OH271355   4.028   2.325  12.992 -0.0733  0.4679 -0.4785
16647TIP3    H171356   3.970   2.364  12.926 -1.9142 -0.5907  0.4254
16647TIP3    H271357   4.045   2.396  13.054 -3.1660  0.0704  1.0113
16648TIP3   OH271358   1.561   5.095   4.118 -0.1453 -0.6932  0.6055
16648TIP3    H171359   1.557   5.157   4.191  0.2981 -1.3162  1.1768
16648TIP3    H271360   1.599   5.146   4.046  1.3102 -0.5780  1.4033
16649TIP3   OH271361   2.997   5.418  15.437  0.2772  0.4109  0.0546
16649TIP3    H171362   2.984   5.431  15.343 -1.6938  0.2714  0.2637
16649TIP3    H271363   2.991   5.505  15.474  1.9616  0.5808 -0.0070
16650TIP3   OH271364   6.392   0.976  14.477 -0.5329  0.1281  0.2354
16650TIP3    H171365   6.378   1.058  14.524 -1.9604 -0.4076  0.7833
16650TIP3    H271366   6.478   0.946  14.506 -0.8646  0.4207  1.5802
16651TIP3   OH271367   2.118   3.571   4.121 -0.9043 -0.1516 -0.1621
16651TIP3    H171368   2.059   3.646   4.127 -0.7983 -0.1383  0.8784
16651TIP3    H271369   2.202   3.608   4.094 -0.6660  0.2173  1.0400
16652TIP3   OH271370   4.882   3.622  15.043  0.3087 -0.8450 -0.0728
16652TIP3    H171371   4.816   3.610  14.975 -0.4816 -0.6111  0.6221
16652TIP3    H271372   4.910   3.534  15.066  0.4355 -0.9331 -0.5692
16653TIP3   OH271373   3.068   3.263   3.260  0.3072 -0.0150 -0.1746
16653TIP3    H171374   3.151   3.312   3.254 -1.1434  2.7332  0.4288
16653TIP3    H271375   3.017   3.293   3.185 -0.4444 -1.0875 -0.1170
16654TIP3   OH271376   6.280   1.798  15.771 -0.2813 -0.0971 -0.7663
16654TIP3    H171377   6.273   1.870  15.708  1.1449  0.3396 -0.4692
16654TIP3    H271378   6.219   1.821  15.840  0.3801  1.0243 -0.5252
16655TIP3   OH271379   4.461   4.376  15.894  0.2320 -0.1938 -0.6087
16655TIP3    H171380   4.449   4.471  15.891 -0.5997 -0.2871 -0.6408
16655TIP3    H271381   4.555   4.364  15.906  0.3306  0.6362 -0.4445
16656TIP3   OH271382   5.627   2.597  15.155  0.3156  0.4042 -0.0284
16656TIP3    H171383   5.583   2.681  15.166 -2.6705 -1.2137  1.4559
16656TIP3    H271384   5.563   2.532  15.184  2.8667 -2.3535 -0.1226
16657TIP3   OH271385   6.368   6.476  12.112 -0.0025  0.0142  0.0126
16657TIP3    H171386   6.364   6.489  12.017  1.1217  2.2494  0.2043
16657TIP3    H271387   6.461   6.468  12.131 -0.2320 -0.6313  0.9236
16658TIP3   OH271388   4.487   5.434   3.040  0.2166  0.5842 -0.1765
16658TIP3    H171389   4.489   5.475   3.127 -0.6577  1.9247 -0.7604
16658TIP3    H271390   4.579   5.423   3.017  0.4831  1.9202  0.1561
16659TIP3   OH271391   2.359   2.706   0.075  0.0600  0.5567 -0.1318
16659TIP3    H171392   2.308   2.731   0.152  0.8500  0.8970  0.2992
16659TIP3    H271393   2.298   2.712   0.002 -0.1052  2.6505  0.1110
16660TIP3   OH271394   1.755   0.862  11.473  0.1901  0.0727 -0.1547
16660TIP3    H171395   1.758   0.862  11.568 -0.0129 -0.9681 -0.1378
16660TIP3    H271396   1.683   0.803  11.451  0.6972 -0.2659 -0.9582
16661TIP3   OH271397   5.902   1.551   5.412  0.1431 -0.4694  0.8112
16661TIP3    H171398   5.851   1.532   5.490  2.0405  0.5839  2.4054
16661TIP3    H271399   5.905   1.469   5.364 -1.5053 -0.9965  1.5700
16662TIP3   OH271400   1.691   5.630  15.421  0.1102 -0.2480  0.1360
16662TIP3    H171401   1.650   5.706  15.379 -0.2145 -0.4109  0.1524
16662TIP3    H271402   1.622   5.593  15.476  0.7783  0.4514  1.4881
16663TIP3   OH271403   1.546   6.193   0.753 -0.0484 -0.2107  0.4782
16663TIP3    H171404   1.556   6.281   0.791 -0.9938  0.0101  0.2312
16663TIP3    H271405   1.493   6.207   0.674 -0.3224 -1.0237  0.5128
16664TIP3   OH271406   5.926   2.029  14.338 -0.6695  0.6192  0.5612
16664TIP3    H171407   5.900   1.969  14.268 -0.0059 -0.2433  1.0369
16664TIP3    H271408   5.857   2.020  14.404  0.2381 -0.8574  1.3452
16665TIP3   OH271409   4.330   3.229  11.771 -0.0345 -0.7677  0.0027
16665TIP3    H171410   4.315   3.182  11.689 -0.5527  1.0428 -0.9910
16665TIP3    H271411   4.244   3.265  11.794 -0.1657 -2.1953  2.0075
16666TIP3   OH271412   1.600   3.226   1.222  0.3805  0.3334 -0.5209
16666TIP3    H171413   1.517   3.181   1.203  2.1133 -2.9207 -1.0630
16666TIP3    H271414   1.640   3.175   1.292  2.2039  1.4871 -0.6462
16667TIP3   OH271415   3.909   4.506   2.300  0.7837 -0.8232 -0.0611
16667TIP3    H171416   3.886   4.550   2.382 -0.1040 -0.2724 -0.5828
16667TIP3    H271417   3.842   4.438   2.290  0.7460 -0.7333 -0.4390
16668TIP3   OH271418   3.456   0.061   3.834 -0.4441 -0.0573  0.7701
16668TIP3    H171419   3.365   0.068   3.864 -0.7664  0.4298 -0.2454
16668TIP3    H271420   3.485  -0.024   3.866 -0.1255  1.1299  3.9772
16669TIP3   OH271421   1.518   5.061   5.618  0.7849 -0.0234 -0.0655
16669TIP3    H171422   1.586   5.121   5.586  0.5248  0.6220  0.5682
16669TIP3    H271423   1.509   4.997   5.548  2.3642 -0.3943  0.0165
16670TIP3   OH271424   5.343   6.544   5.453 -0.0442  0.7207 -0.0689
16670TIP3    H171425   5.438   6.550   5.455 -0.1479  2.2911  1.1447
16670TIP3    H271426   5.324   6.458   5.491  0.8476  0.8790  0.7661
16671TIP3   OH271427   0.889   1.755   3.122 -0.7550  0.4421 -0.5759
16671TIP3    H171428   0.824   1.688   3.098 -0.4671  0.6165 -1.9035
16671TIP3    H271429   0.948   1.760   3.047  1.2830 -0.2417  0.8904
16672TIP3   OH271430   1.272   4.742  12.704 -0.7783  0.8822 -0.0364
16672TIP3    H171431   1.206   4.754  12.635 -2.5671  2.4261  1.8043
16672TIP3    H271432   1.254   4.655  12.740  0.1957  0.0478 -1.4692
16673TIP3   OH271433   1.790   1.907  13.325  0.1327 -0.0834 -0.3673
16673TIP3    H171434   1.766   1.994  13.293  0.9969  0.1631 -0.3719
16673TIP3    H271435   1.715   1.879  13.377 -0.2097  0.6059 -0.4791
16674TIP3   OH271436   2.142   3.288   4.850 -0.2797 -0.4166 -0.0003
16674TIP3    H171437   2.105   3.207   4.884  0.4741 -0.9773 -0.5087
16674TIP3    H271438   2.122   3.286   4.756 -1.2477  0.5292  0.1620
16675TIP3   OH271439   4.386   4.251   5.315 -0.2554  0.0131  0.2826
16675TIP3    H171440   4.417   4.187   5.250 -1.2766 -0.1549 -0.0679
16675TIP3    H271441   4.396   4.207   5.399  0.4720 -0.0226  0.1791
16676TIP3   OH271442   0.268   4.716   6.411  0.9107  0.3525  0.4023
16676TIP3    H171443   0.359   4.685   6.414  1.1484  1.0715  0.8501
16676TIP3    H271444   0.271   4.791   6.352  0.5552  0.2207  0.2182
16677TIP3   OH271445   6.693   4.391  16.767  0.2130 -0.3277 -0.4354
16677TIP3    H171446   6.682   4.331  16.693 -0.8629 -1.5655  0.6907
16677TIP3    H271447   6.682   4.336  16.845  1.6843  0.8643  0.6782
16678TIP3   OH271448   2.215   5.568   5.437  0.0894  0.2513 -0.0526
16678TIP3    H171449   2.228   5.663   5.436 -1.5002  0.4965 -0.3659
16678TIP3    H271450   2.152   5.552   5.368 -2.0711 -0.6077  1.9833
16679TIP3   OH271451   4.080   5.027   2.409 -0.4472  0.3081  0.7382
16679TIP3    H171452   4.163   4.993   2.376 -0.3698  0.7832  0.4296
16679TIP3    H271453   4.041   5.072   2.333  0.8889  3.6480  1.8124
16680TIP3   OH271454   5.205   0.249   2.612  0.2807  0.8676 -0.3801
16680TIP3    H171455   5.126   0.208   2.648 -0.3441  1.9511 -0.4766
16680TIP3    H271456   5.245   0.180   2.559 -0.5165  0.2569 -0.2154
16681TIP3   OH271457   4.944   2.909   3.579  0.0866 -0.3653 -0.3446
16681TIP3    H171458   4.873   2.920   3.516 -0.9010 -2.6238  0.2621
16681TIP3    H271459   5.024   2.910   3.526 -0.5706 -0.1536 -1.3527
16682TIP3   OH271460   3.720   3.168  15.477 -0.4202  0.7499  0.1972
16682TIP3    H171461   3.808   3.144  15.507 -0.3081  0.1891 -0.5535
16682TIP3    H271462   3.735   3.224  15.401 -0.7053  2.1603  1.1342
16683TIP3   OH271463   3.974   1.057   4.972  0.2354 -0.3096  0.7149
16683TIP3    H171464   4.022   0.981   5.005  0.8776 -0.2282  0.0086
16683TIP3    H271465   3.949   1.032   4.883  0.9916  0.5359  0.2543
16684TIP3   OH271466   3.018   2.872  10.379 -0.4263  0.3877  0.0194
16684TIP3    H171467   3.105   2.906  10.358 -0.8505  2.9908  1.9931
16684TIP3    H271468   2.958   2.937  10.342 -1.5038 -0.6977 -0.1909
16685TIP3   OH271469   4.039   1.468  14.850 -0.3677 -0.2987 -0.2200
16685TIP3    H171470   4.013   1.425  14.932  0.3509 -1.8753 -0.7790
16685TIP3    H271471   4.058   1.395  14.790  1.8955  0.7668 -0.9062
16686TIP3   OH271472   3.610   1.482   5.076 -0.2210 -0.1265 -0.4352
16686TIP3    H171473   3.552   1.427   5.129  0.7814 -0.8810 -0.0944
16686TIP3    H271474   3.635   1.427   5.002 -0.7314  0.5464 -1.1161
16687TIP3   OH271475   3.673   3.777   6.023  0.8302  0.0618 -0.1624
16687TIP3    H171476   3.608   3.844   6.043 -0.5779 -1.4114  0.3444
16687TIP3    H271477   3.628   3.694   6.037  1.9912 -1.0434 -2.4162
16688TIP3   OH271478   3.076   6.776  10.613 -0.5739  0.2215 -0.3236
16688TIP3    H171479   3.152   6.734  10.655 -0.1103  0.6900 -0.6746
16688TIP3    H271480   3.048   6.843  10.675  0.5799  1.4262 -1.0433
16689TIP3   OH271481   5.778   4.674  13.842 -0.9423  0.4292 -0.4809
16689TIP3    H171482   5.800   4.744  13.782 -0.4172  0.3014 -0.4457
16689TIP3    H271483   5.841   4.605  13.822 -1.3679  0.0176 -0.4272
16690TIP3   OH271484   5.637   2.652   2.260  0.1872  0.0663 -0.6246
16690TIP3    H171485   5.620   2.688   2.173  0.8760 -2.5948 -1.9605
16690TIP3    H271486   5.733   2.649   2.265  0.1486  0.1395  0.2163
16691TIP3   OH271487   5.664   5.588   0.423 -0.4125 -0.3570 -0.0522
16691TIP3    H171488   5.590   5.635   0.462  0.2010 -0.1164  0.8614
16691TIP3    H271489   5.623   5.519   0.371 -1.2795 -0.1895  0.3801
16692TIP3   OH271490   5.081   3.420   2.072 -0.3931  0.0414 -0.2245
16692TIP3    H171491   5.159   3.419   2.128 -0.9633  3.8254  0.8810
16692TIP3    H271492   5.012   3.382   2.126 -0.2066  0.5792  0.4011
16693TIP3   OH271493   3.658   3.239  10.815  0.5872 -0.5122  0.4412
16693TIP3    H171494   3.747   3.203  10.814  0.7687 -0.1352 -1.3671
16693TIP3    H271495   3.602   3.162  10.826  1.0829 -1.0652 -0.6531
16694TIP3   OH271496   6.156   6.173  15.904 -0.1493 -0.7595 -0.1074
16694TIP3    H171497   6.220   6.103  15.890  0.3966 -0.2848 -0.0049
16694TIP3    H271498   6.082   6.148  15.849  1.0141 -0.1551 -2.0361
16695TIP3   OH271499   5.516   3.638  15.695  0.1301 -0.1739 -0.5776
16695TIP3    H171500   5.457   3.646  15.621 -0.2282 -1.8183 -0.4990
16695TIP3    H271501   5.585   3.578  15.666 -0.2001 -1.1204  0.5011
16696TIP3   OH271502   0.246   4.923  10.350  0.0439  0.3298 -0.1070
16696TIP3    H171503   0.256   4.854  10.416 -1.7444 -0.0810 -0.2113
16696TIP3    H271504   0.171   4.974  10.380  1.3870  2.3285 -0.0032
16697TIP3   OH271505   5.492   0.863  13.387  0.6746  0.0547  0.4253
16697TIP3    H171506   5.567   0.803  13.384 -0.7145 -1.7602  0.7916
16697TIP3    H271507   5.425   0.820  13.334  0.1537  2.0872 -0.6722
16698TIP3   OH271508   3.118   3.592   3.254 -0.2161  0.5660 -0.1501
16698TIP3    H171509   3.163   3.514   3.223 -0.3318  0.3339  0.2556
16698TIP3    H271510   3.158   3.664   3.206 -0.1337  0.2539 -0.5548
16699TIP3   OH271511   2.009   2.886   2.630 -0.1727  0.0280 -0.4018
16699TIP3    H171512   2.100   2.857   2.636 -0.5799 -1.0375  1.9731
16699TIP3    H271513   1.963   2.814   2.587 -0.1867 -0.2389  0.0560
16700TIP3   OH271514   5.865   0.430  12.674  0.4400 -0.5923 -0.5769
16700TIP3    H171515   5.823   0.506  12.714 -0.5566 -1.2046 -0.4407
16700TIP3    H271516   5.939   0.467  12.625  0.7101  0.3356  0.4822
16701TIP3   OH271517   5.015   5.983   0.140  0.4162  0.3375  0.2576
16701TIP3    H171518   4.964   5.923   0.195  1.6871  1.1874  2.4884
16701TIP3    H271519   4.949   6.041   0.101 -0.6712 -1.3828 -0.6053
16702TIP3   OH271520   1.114   6.235   4.668 -0.8538  0.4404 -0.0234
16702TIP3    H171521   1.092   6.308   4.725 -0.6291  0.5945 -0.1344
16702TIP3    H271522   1.149   6.168   4.727 -0.8074  0.5237  0.0420
16703TIP3   OH271523   2.617   4.849  11.743 -0.2504 -0.2704 -0.2216
16703TIP3    H171524   2.706   4.874  11.767 -0.2495  0.5568 -1.0558
16703TIP3    H271525   2.627   4.793  11.666 -0.4305 -0.5029 -0.0785
16704TIP3   OH271526   4.753   0.056   3.501  0.7039  0.3192 -0.3076
16704TIP3    H171527   4.833   0.103   3.522  0.5724  0.6321 -0.5069
16704TIP3    H271528   4.746   0.061   3.405  1.2966 -1.0926 -0.4659
16705TIP3   OH271529   0.345   3.128   3.906  0.4814  0.7974  0.0529
16705TIP3    H171530   0.348   3.093   3.995 -0.3539  0.4239 -0.0486
16705TIP3    H271531   0.325   3.221   3.916  2.0377  1.1227  0.3040
16706TIP3   OH271532   3.893   0.859   1.352 -0.0429  0.0946 -0.3139
16706TIP3    H171533   3.823   0.854   1.417  0.0914  0.9508 -0.0947
16706TIP3    H271534   3.931   0.771   1.352 -0.7230 -0.2071  0.0045
16707TIP3   OH271535   1.785   1.729  13.567 -0.6327 -0.3511 -0.0837
16707TIP3    H171536   1.848   1.728  13.496  0.4098  1.7745  0.7213
16707TIP3    H271537   1.720   1.794  13.542 -1.1550 -0.7492  0.2001
16708TIP3   OH271538   6.207   3.813  12.871 -0.4555  0.1284  0.3416
16708TIP3    H171539   6.289   3.767  12.891  0.2049  0.5416 -1.1891
16708TIP3    H271540   6.163   3.822  12.955 -0.2317 -2.5249  0.8315
16709TIP3   OH271541   5.336   6.005  16.282  0.2245 -0.0515 -0.3113
16709TIP3    H171542   5.333   5.926  16.337  4.8329  0.1415  0.6839
16709TIP3    H271543   5.295   6.073  16.335 -1.8684 -1.2632 -0.2654
16710TIP3   OH271544   6.293   0.434  12.242  0.0365 -0.5335 -0.2241
16710TIP3    H171545   6.374   0.435  12.191  1.2445 -0.4382  1.6019
16710TIP3    H271546   6.278   0.525  12.266  0.7222 -0.8160  1.3956
16711TIP3   OH271547   1.732   5.147  13.201  0.0761  0.2454  0.0422
16711TIP3    H171548   1.796   5.083  13.230  0.3370  0.4597 -0.0631
16711TIP3    H271549   1.677   5.162  13.278 -0.7388 -0.9994 -0.2595
16712TIP3   OH271550   3.420   2.942  13.712  0.6046  0.4135  0.1063
16712TIP3    H171551   3.389   2.860  13.672  0.3423  0.6898 -0.2565
16712TIP3    H271552   3.343   2.978  13.755  0.8474  0.2004  0.7284
16713TIP3   OH271553   2.876   3.707   4.084 -0.7765  0.1309  0.1383
16713TIP3    H171554   2.933   3.781   4.061 -1.2003  0.6025  0.5869
16713TIP3    H271555   2.869   3.711   4.179  2.2162 -2.7187  0.6573
16714TIP3   OH271556   1.795   3.059   1.352 -0.7937  0.0312 -0.6889
16714TIP3    H171557   1.806   2.969   1.322 -1.3287 -0.4814  0.5887
16714TIP3    H271558   1.831   3.060   1.441 -1.6506  0.8365 -0.3341
16715TIP3   OH271559   1.644   4.417  14.323 -0.0386  0.7014 -0.6508
16715TIP3    H171560   1.679   4.370  14.398 -1.5604 -1.1618 -1.0394
16715TIP3    H271561   1.647   4.353  14.251  0.6712  2.1867 -2.0256
16716TIP3   OH271562   6.701   2.462  12.708 -0.0391 -0.0462  0.3802
16716TIP3    H171563   6.614   2.491  12.734 -0.0344  0.3433 -0.0313
16716TIP3    H271564   6.745   2.441  12.790 -0.6691 -0.6747  0.5668
16717TIP3   OH271565   2.866   0.729  16.014  0.5962  0.0655  0.0874
16717TIP3    H171566   2.896   0.709  16.102  1.0343  0.0002 -0.0766
16717TIP3    H271567   2.911   0.666  15.958  2.7048  2.0090 -0.5539
16718TIP3   OH271568   2.515   4.161   2.262  0.0997  0.2517 -0.5953
16718TIP3    H171569   2.477   4.247   2.243  0.0396  0.0185 -1.5769
16718TIP3    H271570   2.595   4.158   2.211 -0.0508 -0.3944 -0.7968
16719TIP3   OH271571   2.923   2.150  16.406  0.2033  0.1407 -0.0226
16719TIP3    H171572   2.887   2.097  16.335 -1.5240 -1.5684  1.9980
16719TIP3    H271573   2.847   2.193  16.446  1.0599  0.6748  1.1106
16720TIP3   OH271574   2.632   0.138  11.230  0.3834 -0.0159 -0.1401
16720TIP3    H171575   2.554   0.133  11.173 -0.6660  0.8163  1.1655
16720TIP3    H271576   2.662   0.047  11.236 -1.5294 -0.6592  0.6928
16721TIP3   OH271577   4.640   5.769  15.644  0.0073  0.1314 -0.3012
16721TIP3    H171578   4.672   5.812  15.723 -1.1574 -0.7407  0.6731
16721TIP3    H271579   4.720   5.748  15.595  0.6705  2.1840 -0.2103
16722TIP3   OH271580   6.562   5.348  13.459 -0.8146 -0.3326  0.6040
16722TIP3    H171581   6.550   5.442  13.469 -2.3248 -0.3486 -0.6176
16722TIP3    H271582   6.537   5.312  13.544  0.3991  0.3871  1.2849
16723TIP3   OH271583   1.975   5.778   2.800  0.0622  0.0769  0.5596
16723TIP3    H171584   2.067   5.804   2.802  0.2055 -0.4761  1.6675
16723TIP3    H271585   1.941   5.801   2.886 -0.7688  0.0083  0.2638
16724TIP3   OH271586   6.313   0.404   0.941 -0.6236 -0.1708 -0.5884
16724TIP3    H171587   6.244   0.439   0.996 -0.3641 -0.1409 -0.2809
16724TIP3    H271588   6.362   0.480   0.910 -0.3313 -0.2309 -0.2789
16725TIP3   OH271589   1.443   5.019   0.559 -0.4422  0.0550  0.0161
16725TIP3    H171590   1.498   4.955   0.514 -0.7154 -0.6151  0.6192
16725TIP3    H271591   1.354   5.000   0.528 -0.4413  0.5831 -0.3134
16726TIP3   OH271592   1.888   5.446   1.161  0.1396 -0.4267 -0.8198
16726TIP3    H171593   1.893   5.463   1.067 -0.6307 -2.1823 -1.2061
16726TIP3    H271594   1.815   5.501   1.192 -0.1694 -0.4974 -1.4170
16727TIP3   OH271595   0.547   4.510  16.037 -0.2357  0.0209 -0.3566
16727TIP3    H171596   0.554   4.557  16.120  1.8979  1.5199 -1.2956
16727TIP3    H271597   0.607   4.436  16.046 -1.7955 -1.2259  0.2438
16728TIP3   OH271598   1.167   0.104  14.915  0.0449 -0.0110 -0.2416
16728TIP3    H171599   1.242   0.053  14.943  0.1541  0.6434  0.7206
16728TIP3    H271600   1.204   0.189  14.890 -0.3113  0.1684 -0.1695
16729TIP3   OH271601   5.470   2.441   2.389 -0.8088 -0.0111 -0.1848
16729TIP3    H171602   5.473   2.522   2.440 -0.9651 -0.0024 -0.1890
16729TIP3    H271603   5.417   2.464   2.312 -0.2648  0.0837 -0.5383
16730TIP3   OH271604   5.481   1.406   0.825  0.0588  0.3401  0.3735
16730TIP3    H171605   5.545   1.418   0.755 -0.4650  1.1517  0.0128
16730TIP3    H271606   5.491   1.484   0.880  1.3666 -0.8926  1.9661
16731TIP3   OH271607   0.644   5.041  11.602 -0.9921 -0.2396 -0.4074
16731TIP3    H171608   0.567   5.092  11.577  0.4875  1.9488 -0.7605
16731TIP3    H271609   0.709   5.060  11.534  0.6841 -0.0247  1.1864
16732TIP3   OH271610   5.682   2.677   4.605 -0.2406  0.3136 -0.3838
16732TIP3    H171611   5.673   2.728   4.685 -2.4406 -1.0562  0.3497
16732TIP3    H271612   5.661   2.738   4.535  0.9144  1.3294  0.1211
16733TIP3   OH271613   4.880   6.255  16.725  0.3299 -0.3429  0.2785
16733TIP3    H171614   4.918   6.323  16.669  0.8273  0.7375  1.8629
16733TIP3    H271615   4.786   6.276  16.726  0.1026 -1.1260 -1.0957
16734TIP3   OH271616   4.531   2.122  11.743  0.0495 -0.0674  0.0589
16734TIP3    H171617   4.498   2.167  11.821  0.2087 -0.3244  0.2740
16734TIP3    H271618   4.607   2.173  11.716  0.6266 -0.5849  0.6868
16735TIP3   OH271619   5.938   2.146   6.400  0.3134  0.1147 -0.1559
16735TIP3    H171620   5.972   2.057   6.389 -0.7467 -0.1938 -1.1126
16735TIP3    H271621   5.925   2.154   6.495  0.8214 -0.5900 -0.0136
16736TIP3   OH271622   4.836   3.842  13.118 -0.2136  0.3864 -0.2022
16736TIP3    H171623   4.897   3.821  13.048 -1.4155  0.8822 -1.4682
16736TIP3    H271624   4.798   3.758  13.144 -0.3856  0.2922 -0.7570
16737TIP3   OH271625   0.557   4.664   1.782 -0.1722 -0.7568 -0.0012
16737TIP3    H171626   0.548   4.640   1.690  1.5265  0.1614 -0.4483
16737TIP3    H271627   0.473   4.706   1.804 -0.8557 -1.6086 -0.9055
16738TIP3   OH271628   3.650   4.808  12.390 -0.5479  0.0656  0.5800
16738TIP3    H171629   3.716   4.821  12.459 -0.8357  1.1914  0.6608
16738TIP3    H271630   3.636   4.713  12.388 -0.3328 -0.0148  1.8851
16739TIP3   OH271631   2.445   4.488   1.518 -0.0468 -0.7396  0.1619
16739TIP3    H171632   2.363   4.453   1.553  0.1090 -0.3605  0.9083
16739TIP3    H271633   2.514   4.438   1.563  0.1458 -0.5568  0.0717
16740TIP3   OH271634   3.934   0.435  14.620 -0.5540 -0.0320  0.2977
16740TIP3    H171635   3.868   0.393  14.564  1.0745 -3.0479  0.4555
16740TIP3    H271636   3.973   0.364  14.669  3.4025  1.4428 -0.3435
16741TIP3   OH271637   4.125   6.785  12.740 -0.2759  0.1954 -0.0691
16741TIP3    H171638   4.087   6.792  12.827 -0.5200 -1.4990 -0.0051
16741TIP3    H271639   4.051   6.796  12.681 -0.6885 -1.6668  0.0316
16742TIP3   OH271640   2.311   4.911  13.152  0.0878  0.4698  0.0625
16742TIP3    H171641   2.246   4.964  13.106  0.0061  0.4083  0.1067
16742TIP3    H271642   2.393   4.927  13.105 -0.4373 -1.4917 -1.7139
16743TIP3   OH271643   1.422   4.950   1.808 -0.1544 -0.3794  1.0581
16743TIP3    H171644   1.364   4.969   1.881  1.5043  1.2282  2.0250
16743TIP3    H271645   1.453   5.035   1.779  1.8651 -1.1850  0.7128
16744TIP3   OH271646   4.462   5.077  16.974 -0.5243  0.0936  0.1084
16744TIP3    H171647   4.444   5.112  16.887  0.3773 -0.3098 -0.2502
16744TIP3    H271648   4.380   5.035  17.001 -0.1596 -1.8660 -1.5571
16745TIP3   OH271649   4.683   0.889   0.357  0.1265 -0.2791 -0.9067
16745TIP3    H171650   4.683   0.812   0.300 -0.3281 -0.1387 -1.1011
16745TIP3    H271651   4.699   0.854   0.444 -0.6395 -0.6679 -0.9103
16746TIP3   OH271652   0.684   2.456   1.721  0.4236  0.3365  0.4627
16746TIP3    H171653   0.689   2.394   1.649 -0.4143 -0.3254  0.9576
16746TIP3    H271654   0.593   2.452   1.750  0.6237  0.9866  1.2125
16747TIP3   OH271655   5.481   1.518   1.652  0.7585  0.3186 -0.1551
16747TIP3    H171656   5.505   1.604   1.618 -0.0687  0.6907  0.1731
16747TIP3    H271657   5.494   1.458   1.579 -0.4598  1.0126 -0.9844
16748TIP3   OH271658   4.300   0.859   3.976  0.3773 -0.3444 -0.3851
16748TIP3    H171659   4.229   0.920   3.958 -1.1779 -2.6773 -3.0841
16748TIP3    H271660   4.276   0.817   4.059 -0.5636 -0.0017 -0.4739
16749TIP3   OH271661   6.754   2.153  13.927  0.0312 -0.4245  0.3456
16749TIP3    H171662   6.738   2.059  13.919 -1.0879 -0.2654  0.6100
16749TIP3    H271663   6.758   2.169  14.021  1.9330 -0.4607  0.3104
16750TIP3   OH271664   5.700   0.816   1.902 -0.0930 -0.5558 -0.0051
16750TIP3    H171665   5.761   0.885   1.877  0.6928 -1.5594 -0.9703
16750TIP3    H271666   5.755   0.750   1.943 -0.4876 -1.5103 -0.9676
16751TIP3   OH271667   2.501   3.499   0.257  0.6310  0.0254 -0.4731
16751TIP3    H171668   2.461   3.423   0.215 -0.0180 -0.1135  0.3749
16751TIP3    H271669   2.574   3.463   0.307 -1.0141 -0.3951  1.7454
16752TIP3   OH271670   2.540   0.106  14.072 -0.0204 -0.1318 -0.4541
16752TIP3    H171671   2.559   0.086  13.980 -1.2965 -1.1628 -0.5381
16752TIP3    H271672   2.567   0.027  14.120  0.2465  0.2307 -0.0030
16753TIP3   OH271673   2.236   6.628  12.679  0.1076 -0.0758 -0.7508
16753TIP3    H171674   2.282   6.622  12.595 -1.8622  1.8771 -2.1169
16753TIP3    H271675   2.146   6.601  12.658 -0.3688  0.2654  0.7854
16754TIP3   OH271676   2.602   2.756   2.068  0.0015 -0.1578  0.4444
16754TIP3    H171677   2.579   2.711   1.986  0.6104 -1.3256  0.9003
16754TIP3    H271678   2.695   2.736   2.081  0.4323  1.6365  0.4296
16755TIP3   OH271679   3.063   6.110  16.134 -0.7964 -0.1807  0.4758
16755TIP3    H171680   3.106   6.125  16.218  0.0190 -2.3168  0.5148
16755TIP3    H271681   2.997   6.043  16.152 -1.9512  0.7279 -0.2368
16756TIP3   OH271682   5.137   3.386  16.535  0.1350 -0.7134  0.2146
16756TIP3    H171683   5.219   3.355  16.497 -0.4704 -0.8867 -1.0322
16756TIP3    H271684   5.129   3.476  16.505 -0.7888 -1.1322 -0.8942
16757TIP3   OH271685   5.452   3.476   3.917 -0.1162  0.7843 -0.0916
16757TIP3    H171686   5.449   3.494   3.823 -1.1725  2.4619  0.2399
16757TIP3    H271687   5.375   3.520   3.953  1.1206  1.5305  1.7785
16758TIP3   OH271688   4.448   3.685  12.214  0.5120  0.0834 -0.4696
16758TIP3    H171689   4.459   3.659  12.306 -0.0639 -0.0354 -0.4289
16758TIP3    H271690   4.398   3.613  12.175  1.0351 -0.0235 -0.9600
16759TIP3   OH271691   0.322   4.277  13.093  0.7072 -0.2152  0.2580
16759TIP3    H171692   0.230   4.279  13.066  0.1232  1.9245  2.1093
16759TIP3    H271693   0.330   4.346  13.158  4.0582  0.8659 -1.0579
16760TIP3   OH271694   6.589   3.572   2.584 -0.0281  0.3534 -0.1221
16760TIP3    H171695   6.499   3.550   2.561 -0.1514  0.7734 -0.0562
16760TIP3    H271696   6.638   3.490   2.573 -0.4475  0.0827  0.0068
16761TIP3   OH271697   4.974   2.146  15.263  0.2655  0.0660  0.1699
16761TIP3    H171698   5.046   2.173  15.206  0.5254  0.2688  0.5937
16761TIP3    H271699   4.916   2.222  15.266  0.5963  0.2993  0.7240
16762TIP3   OH271700   0.136   4.483   4.913  0.0747 -0.3568  0.1111
16762TIP3    H171701   0.060   4.538   4.933  0.8883 -0.3207  3.7910
16762TIP3    H271702   0.197   4.541   4.869 -1.0450  0.2738 -0.6453
16763TIP3   OH271703   4.214   3.263  15.501 -0.0189 -0.3902  0.2108
16763TIP3    H171704   4.235   3.202  15.430 -0.2383 -0.5164  0.2524
16763TIP3    H271705   4.291   3.320  15.507 -1.2149  1.6576 -2.2275
16764TIP3   OH271706   4.790   0.639   2.057 -0.0331  0.2800  0.5201
16764TIP3    H171707   4.844   0.716   2.041 -0.5782  0.3826 -0.9773
16764TIP3    H271708   4.845   0.565   2.030 -0.1528  0.2875  0.2500
16765TIP3   OH271709   6.747   0.747  13.550 -0.4919  0.3310 -0.1339
16765TIP3    H171710   6.817   0.684  13.570 -0.3863  0.6035  0.3728
16765TIP3    H271711   6.758   0.766  13.457  0.3223  0.6239  0.0130
16766TIP3   OH271712   5.473   2.457   5.589 -0.5165  0.1970 -0.3873
16766TIP3    H171713   5.455   2.507   5.669 -2.2934  0.3046 -0.8235
16766TIP3    H271714   5.487   2.367   5.619 -0.5300  0.3541  0.0966
16767TIP3   OH271715   3.711   3.334   1.094 -0.6482 -0.2440  0.3337
16767TIP3    H171716   3.773   3.261   1.092 -0.8041 -0.3777  0.4329
16767TIP3    H271717   3.638   3.306   1.040 -0.5513 -0.0209  0.0838
16768TIP3   OH271718   4.391   2.856   4.503 -0.6412  0.2067 -0.0106
16768TIP3    H171719   4.420   2.772   4.468 -0.8185 -0.2551  0.9282
16768TIP3    H271720   4.426   2.858   4.592 -2.7404 -0.0103  0.8880
16769TIP3   OH271721   4.700   2.547   5.203 -0.7517  0.2263 -0.8181
16769TIP3    H171722   4.622   2.508   5.165 -1.4618 -0.3940  1.1422
16769TIP3    H271723   4.674   2.635   5.228  0.0781  1.0893 -2.8238
16770TIP3   OH271724   2.096   6.033  13.578  0.1638 -0.6927  0.2683
16770TIP3    H171725   2.076   5.955  13.630 -1.1578 -0.0654  0.7492
16770TIP3    H271726   2.010   6.072  13.560  0.8496  1.2433  0.9383
16771TIP3   OH271727   0.277   1.643  13.966  0.4194 -0.0094  0.6528
16771TIP3    H171728   0.316   1.723  14.000 -0.9926  0.7016  0.6623
16771TIP3    H271729   0.202   1.672  13.914  0.4446 -1.2760 -0.1508
16772TIP3   OH271730   3.000   3.344   2.342 -0.1155 -0.3575 -0.4934
16772TIP3    H171731   3.039   3.258   2.357 -2.5952 -1.5703 -0.5226
16772TIP3    H271732   3.031   3.397   2.416  1.8235 -1.0942 -0.7135
16773TIP3   OH271733   6.717   0.335   3.652 -0.5724  0.5069 -0.0500
16773TIP3    H171734   6.680   0.294   3.574  0.4846 -1.0139  0.1784
16773TIP3    H271735   6.718   0.265   3.717  0.3664  1.1798  0.7009
16774TIP3   OH271736   5.701   3.708  15.443 -0.6726  0.2540 -0.9138
16774TIP3    H171737   5.781   3.743  15.481  0.1751 -2.1061 -0.3358
16774TIP3    H271738   5.652   3.785  15.414  1.6040  1.7818 -0.9291
16775TIP3   OH271739   4.610   0.138   6.615 -0.7445  0.0551  0.3345
16775TIP3    H171740   4.569   0.131   6.529  0.9872 -0.5403 -0.5128
16775TIP3    H271741   4.612   0.048   6.647  0.5458 -0.0609 -0.0055
16776TIP3   OH271742   0.360   1.031   0.658  0.1051  0.3176  0.1088
16776TIP3    H171743   0.298   1.094   0.696  0.0902  1.0674 -1.0965
16776TIP3    H271744   0.308   0.985   0.592  0.1055 -1.0266  1.0043
16777TIP3   OH271745   6.151   5.686   4.561 -0.0817 -0.4713 -0.1740
16777TIP3    H171746   6.242   5.714   4.552  0.5052 -1.6720  1.4680
16777TIP3    H271747   6.125   5.719   4.647 -0.6932 -1.3788 -0.0000
16778TIP3   OH271748   5.344   5.016   2.399 -1.2708 -0.5601  0.3844
16778TIP3    H171749   5.305   4.939   2.440  1.0573 -2.1902 -0.3059
16778TIP3    H271750   5.416   4.982   2.347 -0.3027  2.0793 -0.1492
16779TIP3   OH271751   0.253   6.502   4.723 -0.3842 -0.3208 -0.9342
16779TIP3    H171752   0.177   6.472   4.674 -1.1360 -0.5456  0.3097
16779TIP3    H271753   0.226   6.496   4.815  1.2016 -0.5872 -0.4528
16780TIP3   OH271754   0.572   2.731   4.910 -0.1248  0.0148 -0.4209
16780TIP3    H171755   0.556   2.636   4.915 -0.4720  0.1325  2.4108
16780TIP3    H271756   0.619   2.743   4.828  0.0200 -2.6321 -0.8211
16781TIP3   OH271757   5.984   2.256  16.285 -0.4368 -0.2073 -0.1159
16781TIP3    H171758   5.934   2.324  16.240  0.4977  0.5249 -0.0778
16781TIP3    H271759   5.918   2.192  16.313 -1.3469  0.7419 -0.0354
16782TIP3   OH271760   4.081   1.370  12.585  0.5818 -0.2702 -0.1162
16782TIP3    H171761   4.157   1.385  12.528 -0.0856  1.2667 -0.6652
16782TIP3    H271762   4.035   1.297  12.545  0.3300  0.5399 -1.3675
16783TIP3   OH271763   1.023   1.414  13.285  0.3976 -0.5062  0.2188
16783TIP3    H171764   0.974   1.478  13.234 -0.1290 -0.1412  1.1740
16783TIP3    H271765   1.111   1.451  13.291 -0.0812  0.5146  1.3857
16784TIP3   OH271766   4.307   5.631  15.814 -0.0743  0.3457 -0.0699
16784TIP3    H171767   4.262   5.679  15.745 -0.0027 -0.0037 -0.3620
16784TIP3    H271768   4.301   5.688  15.891  0.7642  1.2152 -0.6244
16785TIP3   OH271769   6.639   0.802   3.767 -0.0130 -0.3325 -0.1160
16785TIP3    H171770   6.727   0.821   3.735  0.3494 -0.4576  0.7885
16785TIP3    H271771   6.648   0.721   3.818 -1.3423 -2.5017 -3.0448
16786TIP3   OH271772   1.290   2.814   5.179 -0.5071  0.5021 -0.3672
16786TIP3    H171773   1.355   2.861   5.231 -1.0717 -0.7669  1.5965
16786TIP3    H271774   1.239   2.766   5.243 -2.3008  0.1130 -2.0120
16787TIP3   OH271775   4.591   3.672  11.721 -0.0112 -0.0382  0.1375
16787TIP3    H171776   4.612   3.642  11.809 -0.0306 -0.0705  0.1307
16787TIP3    H271777   4.663   3.640  11.666 -0.9839 -1.7354 -0.2028
16788TIP3   OH271778   0.135   3.560  14.985  0.3728 -0.1035 -0.2096
16788TIP3    H171779   0.089   3.476  14.988  2.6007 -1.4900 -1.8214
16788TIP3    H271780   0.212   3.547  15.041  1.3290  0.4341 -1.3634
16789TIP3   OH271781   5.110   1.214  15.411  0.2955  0.1177 -1.0140
16789TIP3    H171782   5.112   1.160  15.490  0.2006  1.8422  0.2168
16789TIP3    H271783   5.096   1.303  15.443 -0.5518  0.7665 -3.0389
16790TIP3   OH271784   3.391   3.320   5.754  0.6876 -0.1331  0.2334
16790TIP3    H171785   3.426   3.255   5.815 -0.0465  0.9777  1.9387
16790TIP3    H271786   3.360   3.391   5.811  1.4684  1.7244 -1.5275
16791TIP3   OH271787   4.429   6.304  15.142  0.3751  0.1035  0.0084
16791TIP3    H171788   4.361   6.294  15.209  0.7518  0.2256  0.4141
16791TIP3    H271789   4.392   6.262  15.064 -1.1138  2.1057 -0.4597
16792TIP3   OH271790   6.030   3.580  14.294  0.0069 -0.5041  0.3115
16792TIP3    H171791   5.989   3.645  14.350  0.6960  0.1062  0.1268
16792TIP3    H271792   6.003   3.495  14.331 -3.4896 -0.2666 -1.2594
16793TIP3   OH271793   0.173   2.796   2.360  0.1470  0.2180 -0.0200
16793TIP3    H171794   0.166   2.891   2.362  0.9445  0.3650 -1.8814
16793TIP3    H271795   0.264   2.779   2.335 -0.3736 -0.9610 -1.2444
16794TIP3   OH271796   4.367   0.276   0.928 -0.0853 -0.0105 -0.3578
16794TIP3    H171797   4.437   0.244   0.985  0.1277 -0.2254 -0.7368
16794TIP3    H271798   4.289   0.272   0.982  0.1284 -0.1323 -0.0516
16795TIP3   OH271799   3.346   2.964  12.980 -0.3726 -0.2795  0.1138
16795TIP3    H171800   3.434   2.943  12.950 -0.7385 -1.7103 -0.0029
16795TIP3    H271801   3.293   2.964  12.901 -0.3021  1.7820  0.0039
16796TIP3   OH271802   3.712   5.218  15.496  0.2802  0.3282  0.0123
16796TIP3    H171803   3.685   5.204  15.586  1.9796  1.2020  0.6942
16796TIP3    H271804   3.631   5.207  15.445 -0.6879 -0.2559  1.6046
16797TIP3   OH271805   3.193   5.730   0.313 -0.2076 -0.2364 -0.4611
16797TIP3    H171806   3.185   5.821   0.339 -1.4424 -0.0222 -1.4454
16797TIP3    H271807   3.103   5.698   0.312  0.1618 -1.3131 -0.6529
16798TIP3   OH271808   1.558   4.742  16.073  0.1423  0.4378  0.0321
16798TIP3    H171809   1.490   4.747  16.006  1.8971 -0.6127 -1.9584
16798TIP3    H271810   1.549   4.654  16.110 -0.8840  1.0490  1.3171
16799TIP3   OH271811   0.586   0.803   0.171 -0.1983  0.4437 -0.7406
16799TIP3    H171812   0.554   0.893   0.182 -2.3687 -0.4688  1.1649
16799TIP3    H271813   0.517   0.760   0.120 -0.5179 -0.7849  0.6868
16800TIP3   OH271814   1.286   3.123  13.300  0.6439 -0.5445 -0.6525
16800TIP3    H171815   1.317   3.033  13.307  2.4395  0.0783 -0.0216
16800TIP3    H271816   1.215   3.119  13.236  1.8193 -2.1336 -1.9501
16801TIP3   OH271817   4.822   3.403  11.314 -0.1393  0.1955  0.5529
16801TIP3    H171818   4.899   3.349  11.328 -0.1482  0.1982  0.6148
16801TIP3    H271819   4.787   3.374  11.230 -0.8757 -0.7832  1.1754
16802TIP3   OH271820   0.753   3.156   5.800 -0.3154  0.0764 -0.3606
16802TIP3    H171821   0.722   3.210   5.873  2.3381  0.7789  0.3573
16802TIP3    H271822   0.686   3.165   5.733 -1.1163  2.3692  0.6452
16803TIP3   OH271823   1.947   0.524  11.800 -0.2748  0.2426  0.3590
16803TIP3    H171824   1.869   0.483  11.763  0.4511 -0.2765 -0.6358
16803TIP3    H271825   2.011   0.523  11.729  0.8266  0.1583  1.3202
16804TIP3   OH271826   5.128   1.116   2.326 -0.3581  0.5037  0.8839
16804TIP3    H171827   5.223   1.100   2.322 -0.8064 -3.2035  1.3559
16804TIP3    H271828   5.106   1.106   2.419 -1.3735 -0.0279  0.6009
16805TIP3   OH271829   1.252   5.870   1.392  0.4830 -0.0304  0.3290
16805TIP3    H171830   1.213   5.926   1.325 -0.6164 -1.2196 -0.0608
16805TIP3    H271831   1.256   5.926   1.470  0.4148  0.9176 -0.3245
16806TIP3   OH271832   0.723   3.273  13.984  0.6319 -0.2935 -0.1146
16806TIP3    H171833   0.708   3.218  14.061  1.6394 -0.8044 -0.2714
16806TIP3    H271834   0.698   3.361  14.012  1.1642 -0.4436  0.8585
16807TIP3   OH271835   3.388   3.470   1.534 -0.1536 -0.2935 -0.9011
16807TIP3    H171836   3.404   3.469   1.628  3.5129 -1.1575 -1.3686
16807TIP3    H271837   3.333   3.392   1.518  0.6913 -1.1767  0.3520
16808TIP3   OH271838   5.098   2.297  12.536 -0.6895 -0.2360 -0.0545
16808TIP3    H171839   5.098   2.252  12.452  0.8329 -0.0889 -0.1564
16808TIP3    H271840   5.020   2.264  12.581 -0.7070 -1.4297 -0.9266
16809TIP3   OH271841   6.350   4.705   5.869  0.3833 -0.6566 -0.3534
16809TIP3    H171842   6.340   4.770   5.800 -0.3747  0.0504  0.3959
16809TIP3    H271843   6.260   4.687   5.899  0.6827 -1.0583  0.3457
16810TIP3   OH271844   2.846   0.632   4.834 -0.9141  0.3104 -0.5004
16810TIP3    H171845   2.759   0.594   4.850 -0.9191 -0.3250 -1.8768
16810TIP3    H271846   2.871   0.670   4.918 -2.3764  0.2079  0.0189
16811TIP3   OH271847   0.132   4.984  13.528 -0.1016 -0.4164 -0.0938
16811TIP3    H171848   0.065   4.916  13.523 -0.0555 -0.4211 -0.7085
16811TIP3    H271849   0.213   4.938  13.550 -0.0748 -0.5657 -0.4913
16812TIP3   OH271850   0.114   0.870  11.287  0.6882  0.1641 -0.0281
16812TIP3    H171851   0.067   0.884  11.205  1.6212  3.0346 -0.2045
16812TIP3    H271852   0.204   0.852  11.260  1.0487  1.3430  0.2976
16813TIP3   OH271853   1.948   5.499   0.524  0.3002 -0.6707 -0.0045
16813TIP3    H171854   2.014   5.563   0.501  1.6065 -1.3871  1.5439
16813TIP3    H271855   1.878   5.550   0.565 -0.1649  0.0847 -1.6532
16814TIP3   OH271856   2.449   4.665   2.319 -0.0045  0.3464  0.0247
16814TIP3    H171857   2.411   4.726   2.255  1.1151 -0.1736 -1.1660
16814TIP3    H271858   2.543   4.680   2.314  0.1152  0.4282  1.7324
16815TIP3   OH271859   0.791   4.795   4.667 -0.1982 -0.4297  0.1915
16815TIP3    H171860   0.777   4.882   4.704 -0.2399  0.7362 -2.2879
16815TIP3    H271861   0.721   4.786   4.602 -0.5778 -2.6301  0.8289
16816TIP3   OH271862   1.775   3.847  12.838  0.7851  0.0196  0.0893
16816TIP3    H171863   1.776   3.836  12.743  0.2263  1.1592 -0.0613
16816TIP3    H271864   1.846   3.909  12.856  0.4039  0.3877  0.3358
16817TIP3   OH271865   3.288   1.163  15.725 -0.1091  0.5183 -0.1519
16817TIP3    H171866   3.237   1.220  15.782  0.2712 -0.0508  0.7918
16817TIP3    H271867   3.254   1.075  15.743  2.2714 -0.1136  1.7966
16818TIP3   OH271868   1.219   0.432  12.203  0.1205  0.2549  0.1393
16818TIP3    H171869   1.166   0.401  12.276  0.2886  0.0349  0.1711
16818TIP3    H271870   1.156   0.448  12.133 -0.1138  1.0955  0.5322
16819TIP3   OH271871   5.051   6.757   3.077 -0.2956  0.3084  0.0569
16819TIP3    H171872   4.957   6.761   3.057 -0.1993 -2.2919 -1.4479
16819TIP3    H271873   5.055   6.710   3.160 -0.3493 -0.2118 -0.2247
16820TIP3   OH271874   1.448   3.083  16.366  0.2156 -0.1116 -0.0012
16820TIP3    H171875   1.356   3.103  16.382  0.3019 -0.7739  1.4895
16820TIP3    H271876   1.491   3.169  16.364  0.0525  0.1003  2.7378
16821TIP3   OH271877   1.323   0.887   4.846  0.0579 -0.5275  0.0071
16821TIP3    H171878   1.303   0.938   4.768 -0.7900 -2.2308 -0.9580
16821TIP3    H271879   1.409   0.849   4.827  0.9789  0.9784  0.9936
16822TIP3   OH271880   5.010   1.475   1.636 -0.2159 -0.5317  0.1745
16822TIP3    H171881   5.027   1.568   1.649  1.4913 -0.3190 -2.5694
16822TIP3    H271882   5.091   1.432   1.665  1.0540 -0.5759 -2.9900
16823TIP3   OH271883   1.727   0.911   2.773 -0.8897 -0.5612 -0.0857
16823TIP3    H171884   1.690   0.928   2.860  1.0876 -1.4688  0.9972
16823TIP3    H271885   1.677   0.836   2.740 -1.2030 -0.6485  0.5708
16824TIP3   OH271886   2.077   2.771  14.669 -0.0783 -0.3688  0.2295
16824TIP3    H171887   2.160   2.815  14.652  0.1599 -0.7146  0.4791
16824TIP3    H271888   2.101   2.681  14.689 -0.6339 -0.8485 -1.1789
16825TIP3   OH271889   3.873   3.616   2.029  0.2132 -0.6695  0.1125
16825TIP3    H171890   3.812   3.631   2.100  0.4382  0.6685  0.0605
16825TIP3    H271891   3.960   3.625   2.069  0.3457 -0.3826 -0.2268
16826TIP3   OH271892   0.944   4.660   5.633  1.1573  0.3810  0.2237
16826TIP3    H171893   1.023   4.611   5.612  0.4159 -0.6129 -0.3526
16826TIP3    H271894   0.906   4.616   5.709  0.7547  0.3700  0.0218
16827TIP3   OH271895   6.396   3.696   0.897 -0.8313  0.2705 -0.1012
16827TIP3    H171896   6.312   3.736   0.919 -0.2325  1.7252 -0.3691
16827TIP3    H271897   6.438   3.758   0.837  0.9432  0.1619  0.9494
16828TIP3   OH271898   5.546   6.251  16.289 -0.1586 -0.1076 -0.4895
16828TIP3    H171899   5.564   6.202  16.369 -1.4810 -0.4796 -0.3826
16828TIP3    H271900   5.503   6.331  16.320  0.3585  0.2786 -0.7628
16829TIP3   OH271901   2.606   1.781  11.178  0.4230 -0.2405  0.4459
16829TIP3    H171902   2.600   1.687  11.200 -1.1607 -0.6260 -1.3890
16829TIP3    H271903   2.517   1.806  11.155  1.1178  1.3070 -0.7429
16830TIP3   OH271904   3.108   5.600   4.179 -0.0813  0.3833 -0.0448
16830TIP3    H171905   3.181   5.538   4.175 -0.1464  0.3571 -1.1550
16830TIP3    H271906   3.034   5.552   4.143 -0.6156  0.4632  0.9261
16831TIP3   OH271907   5.877   5.376  13.778  0.1873 -0.0035  0.1029
16831TIP3    H171908   5.816   5.410  13.712  0.8420  1.1537  0.0710
16831TIP3    H271909   5.964   5.388  13.740  0.4999 -0.9148  0.4779
16832TIP3   OH271910   0.976   3.736   3.050 -0.3258 -0.1842 -0.4597
16832TIP3    H171911   0.976   3.642   3.068 -0.9046 -0.1847 -0.4420
16832TIP3    H271912   1.067   3.757   3.030  0.0415 -0.5117  0.8039
16833TIP3   OH271913   5.363   4.161  16.031 -0.0276 -0.3908  0.4178
16833TIP3    H171914   5.309   4.088  16.004  2.4090 -1.4592 -2.0556
16833TIP3    H271915   5.453   4.126  16.031  1.0209  2.0566  1.2434
16834TIP3   OH271916   4.383   2.073   3.758  0.1210  0.0240 -0.2341
16834TIP3    H171917   4.398   2.020   3.836 -0.9315  0.5736  0.3598
16834TIP3    H271918   4.451   2.140   3.762 -0.3361  0.4598  0.5959
16835TIP3   OH271919   3.374   2.425   0.460  0.7479 -0.6660 -0.1416
16835TIP3    H171920   3.335   2.338   0.471  1.7324 -0.9519  1.4234
16835TIP3    H271921   3.317   2.469   0.397 -0.5944 -1.9413  0.1270
16836TIP3   OH271922   0.717   3.847  12.622  0.0753  0.5395  0.3782
16836TIP3    H171923   0.712   3.796  12.541 -1.7217  1.1971  0.0175
16836TIP3    H271924   0.798   3.819  12.664  0.7348 -0.2476 -1.3595
16837TIP3   OH271925   0.498   2.801  11.549  0.0554  0.7402 -0.0243
16837TIP3    H171926   0.566   2.801  11.481 -0.7372  1.4430 -0.8573
16837TIP3    H271927   0.497   2.712  11.582 -0.0307  0.1664 -1.4808
16838TIP3   OH271928   2.877   4.581  14.552 -0.4254  0.1922  0.0487
16838TIP3    H171929   2.913   4.493  14.552  1.8804  1.0644  0.3428
16838TIP3    H271930   2.950   4.637  14.579 -2.5575  1.9288  2.8585
16839TIP3   OH271931   1.845   0.260   1.670  0.1625  0.2193 -0.3755
16839TIP3    H171932   1.936   0.252   1.699  0.8549  1.1217 -2.1790
16839TIP3    H271933   1.850   0.271   1.576 -1.9561 -1.5989 -0.7871
16840TIP3   OH271934   1.113   2.697  11.948  1.1100  0.7412  0.6274
16840TIP3    H171935   1.208   2.694  11.937  1.2735  2.4618  1.1681
16840TIP3    H271936   1.081   2.726  11.862  0.9030 -1.2632 -0.0151
16841TIP3   OH271937   2.875   0.373   0.756 -0.0233  0.3884  0.2241
16841TIP3    H171938   2.966   0.401   0.750  0.2761 -0.8905 -3.7316
16841TIP3    H271939   2.873   0.309   0.827  3.2410 -2.8092 -2.2473
16842TIP3   OH271940   1.174   3.308   0.617 -0.1949 -0.0411  0.3417
16842TIP3    H171941   1.133   3.338   0.698 -2.4616 -0.2762 -0.6344
16842TIP3    H271942   1.130   3.225   0.597  1.1934 -0.6035 -0.5005
16843TIP3   OH271943   2.113   4.237   4.136  0.5226 -0.0511  0.0035
16843TIP3    H171944   2.123   4.270   4.047  0.2699 -0.9519 -0.3692
16843TIP3    H271945   2.018   4.232   4.150  0.5591 -0.2243  0.2045
16844TIP3   OH271946   3.785   5.389   5.293 -0.3849 -0.1494  0.0393
16844TIP3    H171947   3.855   5.445   5.325  1.7333 -0.8849 -2.8687
16844TIP3    H271948   3.814   5.300   5.313 -0.8827 -0.4344 -0.4756
16845TIP3   OH271949   0.283   2.179   3.169 -0.4655 -0.5567  0.0357
16845TIP3    H171950   0.289   2.164   3.075  1.6448 -1.3153  0.2322
16845TIP3    H271951   0.273   2.274   3.177  3.7344  0.1863 -0.9866
16846TIP3   OH271952   0.053   3.575  14.492  0.3870  0.2864 -0.0103
16846TIP3    H171953  -0.007   3.648  14.510  1.0306  0.7999  0.0833
16846TIP3    H271954   0.084   3.590  14.403  1.6222  0.9407  0.5042
16847TIP3   OH271955   4.431   0.365  11.647 -0.3793  0.1289  0.0932
16847TIP3    H171956   4.348   0.407  11.623 -0.2226 -0.2613 -1.2378
16847TIP3    H271957   4.483   0.368  11.566  0.6832 -0.1580  0.7476
16848TIP3   OH271958   5.326   4.173   3.063 -0.9121 -0.0123 -0.0548
16848TIP3    H171959   5.376   4.251   3.088 -0.0437 -1.1571  1.9733
16848TIP3    H271960   5.387   4.122   3.010 -1.4960  0.6333 -1.4219
16849TIP3   OH271961   0.385   5.200  12.638 -0.6670 -0.2848 -0.3111
16849TIP3    H171962   0.305   5.162  12.602 -0.7633  0.5069 -0.9429
16849TIP3    H271963   0.354   5.254  12.711 -0.9895  1.8031 -1.9048
16850TIP3   OH271964   0.992   5.265  10.760  0.4873 -0.2411  0.6458
16850TIP3    H171965   0.974   5.171  10.764  0.7324 -0.2512  2.5232
16850TIP3    H271966   0.943   5.301  10.834  2.1880  0.7805  1.3172
16851TIP3   OH271967   6.708   3.195   1.062  0.0271 -0.0593  0.1993
16851TIP3    H171968   6.746   3.233   1.141 -0.9420  0.7250  0.3047
16851TIP3    H271969   6.663   3.269   1.019  0.0220 -0.6053 -0.7618
16852TIP3   OH271970   4.765   6.729   0.335 -0.1624 -0.3521 -0.6855
16852TIP3    H171971   4.792   6.805   0.284 -0.4108  1.2895  1.4716
16852TIP3    H271972   4.713   6.766   0.407 -2.2912 -2.7726 -0.8319
16853TIP3   OH271973   2.839   1.532  16.544  0.8310 -0.4574  0.4285
16853TIP3    H171974   2.795   1.480  16.477  1.2285 -1.1667  0.7195
16853TIP3    H271975   2.768   1.584  16.583  0.7494  0.8013 -1.2651
16854TIP3   OH271976   3.591   2.351   3.957 -0.3801 -0.0333  0.5134
16854TIP3    H171977   3.547   2.409   3.895 -0.8577 -0.9192 -0.0048
16854TIP3    H271978   3.522   2.290   3.985  0.3873 -1.1828  0.0060
16855TIP3   OH271979   2.018   3.166   1.875  0.4513  0.2544 -0.0802
16855TIP3    H171980   2.009   3.260   1.860  0.1042  0.7597  2.6669
16855TIP3    H271981   2.104   3.145   1.841 -0.1362  1.1641 -2.2935
16856TIP3   OH271982   5.173   2.907   3.096 -0.1833 -0.6432 -0.6507
16856TIP3    H171983   5.141   2.988   3.135  1.4652 -0.1119 -0.3135
16856TIP3    H271984   5.215   2.935   3.015 -0.8344 -1.3507 -1.2400
16857TIP3   OH271985   2.550   0.803  10.685 -0.0412  0.2343 -0.4274
16857TIP3    H171986   2.558   0.840  10.597 -0.2393  1.5288  0.0783
16857TIP3    H271987   2.615   0.850  10.737  0.1152 -0.5628  0.1227
16858TIP3   OH271988   1.012   1.648   5.892  0.5299 -0.2459  0.3680
16858TIP3    H171989   1.106   1.634   5.899  0.6396  0.6100  0.7149
16858TIP3    H271990   0.997   1.669   5.800  0.6497 -0.5662  0.2754
16859TIP3   OH271991   6.755   6.643  14.206  0.1872 -0.0838  0.2447
16859TIP3    H171992   6.837   6.626  14.160 -0.4236 -2.0780 -0.1989
16859TIP3    H271993   6.754   6.581  14.279 -0.5635  0.4967  0.7562
16860TIP3   OH271994   3.515   4.378  10.513 -0.6450 -1.0341  0.1061
16860TIP3    H171995   3.430   4.391  10.471 -0.6843 -0.9988  0.1985
16860TIP3    H271996   3.558   4.311  10.459 -0.6347 -0.8775 -0.0809
16861TIP3   OH271997   0.409   2.555  10.606 -0.7205  0.3325  0.2753
16861TIP3    H171998   0.393   2.500  10.682 -2.5456  0.7948  0.2603
16861TIP3    H271999   0.372   2.506  10.533 -0.5472  0.6786 -0.0483
16862TIP3   OH272000   2.421   0.885   4.517  0.0196  0.0372  0.2568
16862TIP3    H172001   2.483   0.815   4.540 -0.7111 -0.3000  1.2730
16862TIP3    H272002   2.402   0.870   4.425  0.9887 -0.2144  0.0857
16863TIP3   OH272003   1.412   2.918  13.115 -0.1616  0.1400 -0.2485
16863TIP3    H172004   1.340   2.855  13.110 -0.4558  0.4053  0.4489
16863TIP3    H272005   1.459   2.908  13.033 -1.2809  0.2910 -0.9295
16864TIP3   OH272006   0.275   3.204   2.863 -0.2084  0.6050  0.3812
16864TIP3    H172007   0.280   3.235   2.953 -3.2980 -0.9103  1.2231
16864TIP3    H272008   0.354   3.152   2.850 -0.6646 -0.8923  3.0056
16865TIP3   OH272009   6.186   5.683   0.191  0.2539  0.4523  0.0460
16865TIP3    H172010   6.280   5.699   0.183 -0.0512  2.0224 -0.7475
16865TIP3    H272011   6.145   5.749   0.135 -1.2797 -1.3832 -1.1364
16866TIP3   OH272012   1.082   6.531   1.565  0.2452  0.3439 -0.0671
16866TIP3    H172013   0.996   6.502   1.533 -0.4067  1.4215  0.6719
16866TIP3    H272014   1.087   6.496   1.654  0.8716 -0.2836 -0.3415
16867TIP3   OH272015   6.393   4.836   2.945 -0.0252 -0.0545  0.5933
16867TIP3    H172016   6.311   4.838   2.995  0.1346  2.3845  0.8547
16867TIP3    H272017   6.451   4.897   2.991  0.7328  0.9524 -1.5672
16868TIP3   OH272018   3.225   6.083  14.720  0.0834  0.3845 -0.2718
16868TIP3    H172019   3.207   6.008  14.664  1.2540 -1.1655  1.3095
16868TIP3    H272020   3.312   6.112  14.694  0.5214 -0.1785  0.4870
16869TIP3   OH272021   4.465   5.393  16.740 -0.1381  0.1688  0.8827
16869TIP3    H172022   4.435   5.307  16.712  0.7906  0.3866 -0.9453
16869TIP3    H272023   4.536   5.376  16.801 -1.0399 -0.3295  1.8256
16870TIP3   OH272024   5.945   1.977  11.016  0.3748 -0.4245 -0.0353
16870TIP3    H172025   5.948   1.882  11.011  0.0514 -0.4492  0.1775
16870TIP3    H272026   6.019   2.007  10.964 -0.9905 -0.7365 -2.2529
16871TIP3   OH272027   5.247   5.342   1.373 -0.1724 -0.1735 -0.1561
16871TIP3    H172028   5.243   5.255   1.334  0.5268  0.6087 -2.1345
16871TIP3    H272029   5.301   5.332   1.451  2.4690 -1.0386 -1.9371
16872TIP3   OH272030   3.031   1.162  15.419 -0.4776 -0.0586 -0.1449
16872TIP3    H172031   3.027   1.210  15.502 -0.7766  1.3549 -0.9372
16872TIP3    H272032   3.114   1.115  15.422  0.2902  1.2648  0.3063
16873TIP3   OH272033   1.997   5.622   5.267 -0.0888  0.3983  0.6216
16873TIP3    H172034   1.983   5.665   5.183 -1.1128 -0.4377  0.3533
16873TIP3    H272035   1.949   5.540   5.261  1.7475 -0.7933  1.1380
16874TIP3   OH272036   5.841   4.695  10.929  0.1026 -0.4525  0.5143
16874TIP3    H172037   5.870   4.662  10.844 -0.9881  0.7366 -0.3633
16874TIP3    H272038   5.886   4.779  10.939 -0.4845 -0.1465  0.6660
16875TIP3   OH272039   3.900   0.117  11.845 -0.2946  0.4626 -0.2300
16875TIP3    H172040   3.807   0.140  11.851 -0.9149 -0.7343 -3.1582
16875TIP3    H272041   3.905   0.058  11.769  2.8755  0.5547 -0.2305
16876TIP3   OH272042   5.852   1.751   5.778 -0.1975 -0.1892  0.4047
16876TIP3    H172043   5.805   1.707   5.849  0.2098 -0.3043  0.6052
16876TIP3    H272044   5.901   1.681   5.734 -1.1462 -0.2766 -0.5607
16877TIP3   OH272045   2.054   6.653  12.398  0.1007 -0.1098 -0.0978
16877TIP3    H172046   2.018   6.566  12.380 -0.7435  0.3180 -0.5262
16877TIP3    H272047   2.142   6.650  12.362 -0.0179 -0.7032 -0.3616
16878TIP3   OH272048   4.393   6.725  11.188 -0.8517  0.4830  0.4456
16878TIP3    H172049   4.355   6.648  11.231 -3.1393  1.6592  0.7008
16878TIP3    H272050   4.466   6.751  11.245  0.6154 -1.9869 -0.1530
16879TIP3   OH272051   6.166   4.194  15.549 -0.4780  0.7101 -0.5323
16879TIP3    H172052   6.124   4.170  15.467 -0.7488  0.4133 -0.3104
16879TIP3    H272053   6.196   4.284  15.536 -2.6190  1.5298 -0.1533
16880TIP3   OH272054   2.741   5.489  16.127 -0.2130 -0.0152  0.0971
16880TIP3    H172055   2.790   5.424  16.078 -0.5321 -0.6923  0.6614
16880TIP3    H272056   2.807   5.552  16.156 -0.0371  0.4590 -1.2713
16881TIP3   OH272057   6.001   6.381   1.662  0.7803  0.2276 -0.3015
16881TIP3    H172058   5.976   6.363   1.572 -0.9138  0.6899  0.0226
16881TIP3    H272059   6.005   6.477   1.666 -0.7559  0.2913  0.4605
16882TIP3   OH272060   1.718   0.536  15.556  0.0167 -0.7820 -0.1870
16882TIP3    H172061   1.641   0.590  15.537 -0.0201 -1.0949 -0.9427
16882TIP3    H272062   1.792   0.596  15.549 -0.1658 -0.4280  0.7650
16883TIP3   OH272063   4.949   0.313  13.771  0.3716 -0.1157  0.2030
16883TIP3    H172064   4.891   0.366  13.825  0.2739 -0.6206  0.5996
16883TIP3    H272065   4.912   0.224  13.775 -0.7431  0.1549 -2.2238
16884TIP3   OH272066   3.156   1.291  16.378  0.2726 -0.2951  0.1216
16884TIP3    H172067   3.222   1.235  16.419 -0.6957 -1.3089  0.3354
16884TIP3    H272068   3.130   1.352  16.447  0.0940 -0.7050  0.4234
16885TIP3   OH272069   4.071   4.588   1.074 -0.0220 -0.7808  0.5175
16885TIP3    H172070   4.154   4.618   1.113  0.5140 -0.1915 -0.9933
16885TIP3    H272071   4.098   4.540   0.995 -1.1250  0.1795 -0.4914
16886TIP3   OH272072   0.120   4.863  16.475 -0.3971  0.1932 -0.5514
16886TIP3    H172073   0.038   4.814  16.478 -0.5221  0.4398  0.9476
16886TIP3    H272074   0.097   4.945  16.431 -1.1556  0.5724  0.5091
16887TIP3   OH272075   5.147   5.459  12.621 -0.1766  0.4432 -0.4393
16887TIP3    H172076   5.087   5.524  12.656 -0.7487 -0.5447  0.4953
16887TIP3    H272077   5.232   5.481  12.661 -0.5818  0.0280  0.6996
16888TIP3   OH272078   0.495   3.537   5.009  0.5207  0.2827 -0.4592
16888TIP3    H172079   0.503   3.629   4.983 -0.5598  0.2406 -0.9685
16888TIP3    H272080   0.533   3.534   5.097 -0.4132  1.4395  0.0119
16889TIP3   OH272081   5.219   1.132   6.112 -0.9259 -0.1547  0.5729
16889TIP3    H172082   5.149   1.197   6.115 -1.7578 -0.7062 -2.7488
16889TIP3    H272083   5.175   1.049   6.132 -0.6810 -0.2059  0.9131
16890TIP3   OH272084   6.366   4.406  11.928 -0.6074 -0.7268 -0.3908
16890TIP3    H172085   6.433   4.341  11.953 -0.1255 -0.3038 -0.5637
16890TIP3    H272086   6.392   4.486  11.974 -1.1104 -0.6090 -0.3062
16891TIP3   OH272087   2.050   1.979  15.221 -0.1628 -0.0986  0.8349
16891TIP3    H172088   2.014   2.066  15.203 -2.4306 -1.1066  0.1860
16891TIP3    H272089   2.040   1.931  15.139 -0.3059 -1.4073  1.5838
16892TIP3   OH272090   0.202   0.287  10.691 -0.4407 -0.0583  0.3923
16892TIP3    H172091   0.148   0.212  10.665 -0.6793 -0.5175  2.1190
16892TIP3    H272092   0.144   0.339  10.747  0.3847  0.3399  0.8818
16893TIP3   OH272093   5.735   6.726   3.766 -0.4232 -0.7073  0.4687
16893TIP3    H172094   5.662   6.667   3.747 -0.1788 -1.3770  1.5117
16893TIP3    H272095   5.739   6.784   3.691 -3.4866  0.8489  1.3513
16894TIP3   OH272096   4.443   4.733   2.214  0.2287  0.4115 -0.2217
16894TIP3    H172097   4.427   4.657   2.270 -1.4325  1.3646  0.6714
16894TIP3    H272098   4.418   4.704   2.127  0.9275 -0.4740 -0.1441
16895TIP3   OH272099   6.412   5.564  15.958  0.5189 -0.3816 -0.3118
16895TIP3    H172100   6.496   5.599  15.929  0.8766  0.2889  1.4187
16895TIP3    H272101   6.362   5.641  15.985 -0.4710 -0.8192 -0.8721
16896TIP3   OH272102   5.526   1.918   3.727 -0.7302 -0.4708 -0.0897
16896TIP3    H172103   5.440   1.959   3.733 -0.5634  0.2350 -1.8435
16896TIP3    H272104   5.514   1.844   3.668 -0.1491 -0.3636 -0.3542
16897TIP3   OH272105   4.041   6.145  13.176 -0.2854 -0.2182  0.1214
16897TIP3    H172106   3.963   6.187  13.212 -1.5661 -1.0270 -1.6115
16897TIP3    H272107   4.084   6.214  13.126  0.4122  0.3504  1.4318
16898TIP3   OH272108   5.168   4.633  14.242 -0.7525 -0.0406  0.0092
16898TIP3    H172109   5.181   4.566  14.175  0.7955 -1.5597  1.7218
16898TIP3    H272110   5.212   4.599  14.319 -1.3074  2.2537  1.4459
16899TIP3   OH272111   2.197   0.928  11.705  0.1334  0.4033  0.0055
16899TIP3    H172112   2.198   0.937  11.800 -1.0124  0.6690  0.0141
16899TIP3    H272113   2.250   0.851  11.687  0.7856  0.6513  0.8159
16900TIP3   OH272114   4.748   4.677  11.810 -0.0797 -0.0538 -0.0485
16900TIP3    H172115   4.808   4.716  11.874 -1.7482  0.4485  1.3008
16900TIP3    H272116   4.722   4.750  11.754  0.5568 -0.2731 -0.6388
16901TIP3   OH272117   0.357   0.342   3.812 -0.2777 -0.6912 -0.2070
16901TIP3    H172118   0.336   0.251   3.788  1.1918 -0.9682 -0.5348
16901TIP3    H272119   0.390   0.336   3.902  0.5660 -0.6072 -0.5030
16902TIP3   OH272120   1.650   1.805   3.009  0.2298  0.0581  0.0178
16902TIP3    H172121   1.576   1.821   3.068 -0.1760  0.0269 -0.4721
16902TIP3    H272122   1.631   1.860   2.932  1.9588  2.0017  0.8760
16903TIP3   OH272123   0.018   5.110  11.428  0.1203  0.6318  0.4901
16903TIP3    H172124   0.089   5.056  11.393  1.5465  1.1535  2.3922
16903TIP3    H272125  -0.042   5.048  11.469 -0.7047  0.1667 -1.2985
16904TIP3   OH272126   0.048   3.578   2.717  0.0328  0.4813  0.5103
16904TIP3    H172127  -0.037   3.585   2.674  0.1417  0.6983  0.3287
16904TIP3    H272128   0.028   3.575   2.810 -0.0817  2.4542  0.5881
16905TIP3   OH272129   5.516   3.055  13.793 -0.5684  0.4439  0.1110
16905TIP3    H172130   5.534   3.108  13.870 -2.5524  0.4578  0.6254
16905TIP3    H272131   5.602   3.028  13.761  0.3322 -1.0434  3.3495
16906TIP3   OH272132   4.156   4.739   2.676 -0.1699  0.7137  0.2849
16906TIP3    H172133   4.183   4.662   2.626  1.2213  1.6484 -0.4631
16906TIP3    H272134   4.073   4.765   2.636  0.7107  1.1920 -1.3064
16907TIP3   OH272135   5.187   5.346   3.762  0.2739 -0.2935  0.1918
16907TIP3    H172136   5.250   5.369   3.694  0.7341 -0.1234  0.6668
16907TIP3    H272137   5.223   5.268   3.803 -0.9500 -1.5354 -0.9758
16908TIP3   OH272138   0.518   6.343   4.340  0.0015  0.1762 -0.5677
16908TIP3    H172139   0.427   6.326   4.316 -0.6049  0.1264  1.5526
16908TIP3    H272140   0.513   6.411   4.407  1.6977  1.5537 -1.7818
16909TIP3   OH272141   0.913   6.551  12.566 -0.7817  0.3855  0.1880
16909TIP3    H172142   0.854   6.568  12.640 -0.6411 -0.5297  0.5259
16909TIP3    H272143   1.001   6.559  12.603 -0.7040  0.7905 -0.0860
16910TIP3   OH272144   4.188   5.874   1.381  0.3435  0.0743  0.0101
16910TIP3    H172145   4.100   5.884   1.344 -0.6390 -3.1751  1.1440
16910TIP3    H272146   4.177   5.892   1.474  1.0371  0.2974  0.0538
16911TIP3   OH272147   4.098   4.115   1.189 -0.4475 -0.4654  0.4924
16911TIP3    H172148   4.072   4.206   1.209 -0.9332 -0.5233  0.1395
16911TIP3    H272149   4.058   4.063   1.259 -1.2992 -0.5540 -0.0489
16912TIP3   OH272150   3.513   0.422   1.054 -0.1830 -0.0446 -0.7082
16912TIP3    H172151   3.549   0.511   1.062 -0.3263 -0.1134  0.8522
16912TIP3    H272152   3.516   0.404   0.960  1.6919  0.8459 -0.8626
16913TIP3   OH272153   6.700   5.801   5.994  0.0698  0.5115 -0.2261
16913TIP3    H172154   6.763   5.729   5.985 -1.6670 -0.9450 -1.3684
16913TIP3    H272155   6.621   5.760   6.028 -0.6123  2.1225  0.2283
16914TIP3   OH272156   3.236   2.933   2.755 -0.1910  0.9502  0.6413
16914TIP3    H172157   3.263   2.879   2.680  0.8049 -1.0918  2.3622
16914TIP3    H272158   3.268   3.021   2.734 -0.0448  0.4673 -1.3555
16915TIP3   OH272159   0.463   2.141  12.549  0.0387 -0.2904  0.3749
16915TIP3    H172160   0.439   2.176  12.464 -2.4054 -1.1080  0.6592
16915TIP3    H272161   0.540   2.087  12.533 -1.6469 -2.2327 -1.7844
16916TIP3   OH272162   5.786   0.966  12.417  0.0772 -0.3792 -0.3392
16916TIP3    H172163   5.824   0.951  12.504  1.0190  0.3595 -0.6105
16916TIP3    H272164   5.807   0.886  12.369 -1.0263 -1.0750  0.2892
16917TIP3   OH272165   1.235   6.137  15.502  0.1675  0.3769  0.7570
16917TIP3    H172166   1.154   6.104  15.541  0.6611 -0.3023  1.2099
16917TIP3    H272167   1.205   6.189  15.427 -0.7969  1.6665  1.9790
16918TIP3   OH272168   2.073   6.241  14.196 -0.1875 -0.0844 -0.4481
16918TIP3    H172169   2.155   6.194  14.205 -0.2600  0.0002  0.9419
16918TIP3    H272170   2.046   6.227  14.105  0.4686 -1.5730 -0.4370
16919TIP3   OH272171   2.492   4.203  11.425 -0.4906  0.4911  0.1157
16919TIP3    H172172   2.469   4.247  11.344  1.2539  0.6045 -0.3557
16919TIP3    H272173   2.541   4.125  11.398 -0.7101  0.0063  1.0371
16920TIP3   OH272174   3.864   0.446  11.383 -0.0831 -0.1838 -0.7287
16920TIP3    H172175   3.915   0.376  11.423 -1.7748 -0.4664  1.1257
16920TIP3    H272176   3.797   0.400  11.332 -1.3660  0.0045  0.7110
16921TIP3   OH272177   6.185   3.240   5.153  0.2257  0.3404 -0.1000
16921TIP3    H172178   6.188   3.178   5.226  0.0646  1.1494  0.6055
16921TIP3    H272179   6.231   3.196   5.082  0.7931 -0.2700  0.6334
16922TIP3   OH272180   6.533   3.876   2.931  0.3853  0.4607  0.1330
16922TIP3    H172181   6.497   3.920   2.854  0.4313  2.7120  1.3042
16922TIP3    H272182   6.515   3.936   3.004  0.9604 -1.2577  1.7789
16923TIP3   OH272183   1.107   4.222   4.066 -0.1458 -0.0717 -0.4858
16923TIP3    H172184   1.117   4.205   3.973 -3.5393 -1.5602 -0.7223
16923TIP3    H272185   1.097   4.136   4.106 -2.3439  0.6112  0.6569
16924TIP3   OH272186   1.534   6.545  14.873 -0.0116 -0.8389  0.3050
16924TIP3    H172187   1.607   6.581  14.924  0.6213 -3.1351  1.1792
16924TIP3    H272188   1.496   6.479  14.930 -2.0668 -0.5127 -0.6099
16925TIP3   OH272189   3.708   4.041  12.323  0.4152 -0.0722 -0.2018
16925TIP3    H172190   3.650   4.062  12.396 -1.9964 -0.6465 -1.8385
16925TIP3    H272191   3.738   4.126  12.291 -1.2107  0.3885 -0.5820
16926TIP3   OH272192   4.482   4.290   6.492 -0.0289 -0.1883  0.4861
16926TIP3    H172193   4.578   4.288   6.493 -0.0397 -0.6797  1.1430
16926TIP3    H272194   4.457   4.309   6.583 -0.5847 -3.1196  1.0462
16927TIP3   OH272195   4.096   5.068   5.764  0.1311 -0.4000 -0.1862
16927TIP3    H172196   4.122   5.141   5.820 -1.0170  0.3303 -0.5840
16927TIP3    H272197   4.003   5.056   5.781 -0.4139  0.2764 -2.4005
16928TIP3   OH272198   5.771   4.104  14.310  0.4317  0.0088  0.3389
16928TIP3    H172199   5.680   4.134  14.317  0.1234 -0.8050 -0.0855
16928TIP3    H272200   5.800   4.137  14.224 -0.9285 -3.4562 -1.6361
16929TIP3   OH272201   4.141   3.411   1.023  0.2085  0.4954 -0.3106
16929TIP3    H172202   4.204   3.411   1.096 -0.8519 -0.3562  0.6503
16929TIP3    H272203   4.162   3.332   0.973 -1.2504 -0.8800  1.1183
16930TIP3   OH272204   4.947   1.735  11.677  0.0839  0.1974 -0.2303
16930TIP3    H172205   4.923   1.671  11.610 -1.4562  0.1923  0.2710
16930TIP3    H272206   5.006   1.688  11.736  0.2125 -0.2760 -0.7288
16931TIP3   OH272207   1.391   3.214  11.366 -0.6281  0.1904 -0.2144
16931TIP3    H172208   1.360   3.124  11.352  0.1888 -0.3789  1.3094
16931TIP3    H272209   1.319   3.257  11.412 -0.3303 -0.2510  0.6904
16932TIP3   OH272210   3.530   3.475   0.626  0.2521  0.2191 -0.2433
16932TIP3    H172211   3.447   3.480   0.673  0.6039  0.3931  0.3666
16932TIP3    H272212   3.597   3.477   0.694  0.7434 -1.8185 -0.5811
16933TIP3   OH272213   6.320   4.870   6.159 -0.1606  0.2910  0.0229
16933TIP3    H172214   6.296   4.778   6.162  1.3744 -0.1102  1.7446
16933TIP3    H272215   6.288   4.906   6.242 -0.2616  1.1715 -0.3885
16934TIP3   OH272216   5.446   3.045  13.062  0.0337  0.3042  0.5943
16934TIP3    H172217   5.430   3.131  13.022  1.1882  0.0298 -0.5110
16934TIP3    H272218   5.380   2.988  13.022  1.1928  0.0262 -1.0141
16935TIP3   OH272219   3.041   4.785  12.261 -0.2957  0.5144 -0.4147
16935TIP3    H172220   3.124   4.739  12.278  1.4277  1.4374 -4.9629
16935TIP3    H272221   2.988   4.721  12.214 -1.0584  0.8578 -0.0341
16936TIP3   OH272222   1.014   0.573  13.785  0.5509  0.2649 -0.0003
16936TIP3    H172223   1.041   0.618  13.705  1.5223  2.1987  1.3436
16936TIP3    H272224   0.937   0.622  13.815 -0.8865 -1.5011 -0.5810
16937TIP3   OH272225   6.333   3.982  10.960  0.2802 -0.0138  0.3493
16937TIP3    H172226   6.299   4.058  10.914  0.3332  1.6113  2.8272
16937TIP3    H272227   6.292   3.907  10.915 -0.6376  1.4736 -1.4587
16938TIP3   OH272228   2.008   1.367  10.245 -0.1576 -0.1494  0.4173
16938TIP3    H172229   2.072   1.430  10.277  0.9358 -0.7020 -0.5857
16938TIP3    H272230   1.959   1.415  10.177 -0.6995  0.2108  1.0468
16939TIP3   OH272231   2.653   0.227   3.186 -0.2436 -0.1474 -0.3617
16939TIP3    H172232   2.701   0.306   3.210  0.6869 -1.0271  0.8059
16939TIP3    H272233   2.707   0.155   3.219 -1.7090 -1.2393 -0.2269
16940TIP3   OH272234   5.273   4.435   4.052  0.0991  0.0505  0.0796
16940TIP3    H172235   5.335   4.399   3.989  0.8089  1.2783  0.0537
16940TIP3    H272236   5.328   4.466   4.125 -0.6036 -0.1390  0.7039
16941TIP3   OH272237   0.780   3.493   4.903  0.1568  0.4415  0.2846
16941TIP3    H172238   0.817   3.420   4.854  1.5264  1.2364  0.1051
16941TIP3    H272239   0.750   3.454   4.985  1.5197 -0.2274  0.4906
16942TIP3   OH272240   2.051   4.101   3.259  0.0523 -0.0069  0.1777
16942TIP3    H172241   1.989   4.057   3.317 -0.2639 -0.0569 -0.1928
16942TIP3    H272242   2.019   4.191   3.253  0.8416  0.3637  1.1382
16943TIP3   OH272243   3.341   5.638   0.713  0.0965  0.0682  0.1790
16943TIP3    H172244   3.385   5.703   0.768 -0.1690 -0.5247  1.1178
16943TIP3    H272245   3.356   5.669   0.624 -1.5810  2.4407  0.6174
16944TIP3   OH272246   5.776   1.542  15.214 -0.2355  0.1147  0.7579
16944TIP3    H172247   5.783   1.622  15.266  0.6948 -0.0231  0.8646
16944TIP3    H272248   5.809   1.473  15.272  2.1335  0.1421 -0.4275
16945TIP3   OH272249   1.890   4.453   2.076  0.2511  0.4094 -0.3441
16945TIP3    H172250   1.948   4.412   2.011  0.9788 -0.4777  0.8135
16945TIP3    H272251   1.806   4.461   2.032 -0.0498 -2.7146 -0.5820
16946TIP3   OH272252   3.014   6.412  16.261 -0.5446 -0.3028 -0.2921
16946TIP3    H172253   2.946   6.415  16.194 -0.8328  0.8059  0.0265
16946TIP3    H272254   3.050   6.501  16.263  1.1661 -0.9483 -0.6874
16947TIP3   OH272255   6.748   2.591   3.366  0.0120  0.2279  0.0897
16947TIP3    H172256   6.768   2.516   3.421 -1.2477  0.5579  1.0256
16947TIP3    H272257   6.828   2.643   3.366  0.3982 -0.3621  0.6543
16948TIP3   OH272258   5.008   0.347  12.163  0.5446 -0.3444 -0.2441
16948TIP3    H172259   5.001   0.430  12.211 -0.7329 -1.3784  1.4997
16948TIP3    H272260   5.102   0.329  12.160  0.7168 -0.0552  1.6566
16949TIP3   OH272261   6.104   5.494  16.314 -0.5876 -0.3419  0.3147
16949TIP3    H172262   6.123   5.583  16.343 -0.7774 -0.0518 -0.4334
16949TIP3    H272263   6.025   5.469  16.363 -1.1023  0.2661 -0.1827
16950TIP3   OH272264   1.857   3.617   0.262 -0.4123 -0.2870  0.0631
16950TIP3    H172265   1.791   3.548   0.252 -1.2923  0.5790 -0.2132
16950TIP3    H272266   1.893   3.629   0.174 -1.0307  0.3617 -0.1008
16951TIP3   OH272267   6.286   6.655  16.830 -0.2458  0.2352 -0.4524
16951TIP3    H172268   6.259   6.680  16.742 -0.4573  0.9304 -0.2029
16951TIP3    H272269   6.245   6.721  16.887 -2.7430 -1.9523  0.4957
16952TIP3   OH272270   5.884   5.096   2.140  0.6644  0.3681 -0.5803
16952TIP3    H172271   5.801   5.076   2.097 -0.2507 -0.1930  1.3262
16952TIP3    H272272   5.944   5.117   2.069 -0.7726 -0.4560 -2.0927
16953TIP3   OH272273   4.765   2.800   1.830  0.2053 -0.1606  0.2351
16953TIP3    H172274   4.774   2.823   1.923 -0.0884  3.0066 -0.4147
16953TIP3    H272275   4.855   2.795   1.798  0.3235  2.5136 -0.0440
16954TIP3   OH272276   0.530   2.976   0.905  0.2666 -0.0087  0.3756
16954TIP3    H172277   0.447   3.003   0.944  1.8781  2.6465  2.2869
16954TIP3    H272278   0.560   2.904   0.961  0.2543  0.4878  1.0355
16955TIP3   OH272279   3.594   1.904  11.984  0.4128  0.6630 -0.2183
16955TIP3    H172280   3.637   1.951  11.912  0.2634 -0.8716 -1.3626
16955TIP3    H272281   3.508   1.881  11.950  0.2685  0.0821  0.5090
16956TIP3   OH272282   2.838   5.356   1.961  0.2693 -0.2378  0.5699
16956TIP3    H172283   2.796   5.313   1.886 -2.0420  1.4922  0.7708
16956TIP3    H272284   2.902   5.415   1.922  0.1266 -0.4310  0.0319
16957TIP3   OH272285   6.735   4.820   3.991  0.5175 -0.1324  0.1650
16957TIP3    H172286   6.825   4.852   3.993  0.2786  0.5635  2.4228
16957TIP3    H272287   6.741   4.728   4.017  0.4435  0.4613  2.4786
16958TIP3   OH272288   3.099   5.042   5.620  0.1040  0.5078  0.1145
16958TIP3    H172289   3.078   4.953   5.592 -0.0905  0.9613 -1.2889
16958TIP3    H272290   3.190   5.037   5.651 -0.5009 -0.5322  1.8353
16959TIP3   OH272291   0.969   3.001  12.725  0.4873 -0.0170 -0.4925
16959TIP3    H172292   1.000   2.928  12.778  0.6515  0.4829  0.1173
16959TIP3    H272293   0.895   3.037  12.774 -0.6713 -0.7947 -1.6171
16960TIP3   OH272294   3.848   3.918   0.700  0.3924  0.0078 -0.2722
16960TIP3    H172295   3.805   3.885   0.621  0.9888 -0.9691 -0.1995
16960TIP3    H272296   3.941   3.907   0.683  0.5128 -1.2496  0.9859
16961TIP3   OH272297   0.032   2.721   4.726 -0.0997 -0.8955  0.1937
16961TIP3    H172298   0.118   2.742   4.690 -0.1932  0.6328  0.8004
16961TIP3    H272299   0.038   2.743   4.819 -1.3577 -0.0250  0.0938
16962TIP3   OH272300   0.754   3.947   2.639  0.0107 -0.4099 -0.0612
16962TIP3    H172301   0.819   3.922   2.705  1.4053  1.2114 -0.7376
16962TIP3    H272302   0.769   4.041   2.626 -1.9251 -0.1803 -0.8704
16963TIP3   OH272303   3.658   6.005   2.790 -0.4457 -0.1720  0.0709
16963TIP3    H172304   3.621   5.984   2.875  0.3433  1.7020  0.9463
16963TIP3    H272305   3.744   6.043   2.809 -0.5430  0.9685 -1.4756
16964TIP3   OH272306   5.881   2.569  10.800  0.2754  1.0675  0.1829
16964TIP3    H172307   5.971   2.600  10.808  0.4721  0.5254  0.1107
16964TIP3    H272308   5.862   2.572  10.706 -0.2523  2.4682  0.3120
16965TIP3   OH272309   4.221   2.632  11.622  0.0205  0.3557  0.0760
16965TIP3    H172310   4.208   2.727  11.619  0.4810  0.4002 -0.5087
16965TIP3    H272311   4.132   2.597  11.629 -0.1291  0.8405  0.7546
16966TIP3   OH272312   6.399   0.243   2.857  0.2105  0.2470  0.3065
16966TIP3    H172313   6.409   0.188   2.780 -0.8885 -2.1958  1.8103
16966TIP3    H272314   6.401   0.333   2.823 -0.1970 -0.7298 -2.5157
16967TIP3   OH272315   3.773   2.557   3.039  0.1665 -0.6299 -0.3417
16967TIP3    H172316   3.846   2.495   3.043 -0.4674 -1.3809  0.0724
16967TIP3    H272317   3.697   2.505   3.066 -0.5104  0.1474 -0.7082
16968TIP3   OH272318   0.451   0.807  16.864  0.0445 -0.0971  0.1522
16968TIP3    H172319   0.485   0.861  16.793 -0.3448  2.0281  1.4820
16968TIP3    H272320   0.358   0.796  16.843 -0.1026  0.6487  0.3762
16969TIP3   OH272321   1.698   1.580   2.850  0.0767  0.3813 -0.2718
16969TIP3    H172322   1.660   1.587   2.762 -1.7275  1.5284  0.5487
16969TIP3    H272323   1.668   1.658   2.896  1.1548 -0.0845  1.3314
16970TIP3   OH272324   1.348   2.005   2.265  0.2108  0.3867  0.5032
16970TIP3    H172325   1.356   1.950   2.187  0.6099  0.4463  0.5005
16970TIP3    H272326   1.387   2.089   2.239  0.0620  0.5095  0.6686
16971TIP3   OH272327   4.436   4.555  10.466 -0.1423  0.0868 -0.0193
16971TIP3    H172328   4.483   4.605  10.533  2.5777 -1.4816 -0.6046
16971TIP3    H272329   4.361   4.611  10.442  0.7277  2.2033  1.8378
16972TIP3   OH272330   5.924   6.780  14.385  0.0788 -0.7901 -0.3104
16972TIP3    H172331   6.007   6.823  14.361  0.9095  0.0813  3.4753
16972TIP3    H272332   5.947   6.687  14.391  0.6403 -0.6281  0.1497
16973TIP3   OH272333   1.755   3.440  16.602  0.0044  0.1995  0.6689
16973TIP3    H172334   1.850   3.427  16.592 -0.1328 -0.1903 -0.1812
16973TIP3    H272335   1.747   3.528  16.638  0.7503 -0.3037  2.1835
16974TIP3   OH272336   0.597   0.913   1.194 -0.4513  0.4082  0.3778
16974TIP3    H172337   0.589   0.874   1.282 -1.1306 -2.9121 -0.9865
16974TIP3    H272338   0.691   0.912   1.176 -0.4863 -2.5009 -0.2255
16975TIP3   OH272339   5.482   4.910  10.589  0.0823  0.4519  0.0358
16975TIP3    H172340   5.428   4.832  10.598 -0.9958  1.2171  0.4412
16975TIP3    H272341   5.569   4.877  10.565 -0.7619 -0.7554 -1.5346
16976TIP3   OH272342   1.060   0.365  16.706  0.0125  0.7127  0.5329
16976TIP3    H172343   1.148   0.398  16.691  0.1976  0.0309  0.0411
16976TIP3    H272344   1.055   0.285  16.652 -0.7388  0.4883  0.9182
16977TIP3   OH272345   1.727   3.291   4.166 -0.6084 -0.4062  0.1722
16977TIP3    H172346   1.795   3.343   4.123  0.6928 -2.2486 -0.1122
16977TIP3    H272347   1.749   3.200   4.144 -1.8506 -1.2001  1.9982
16978TIP3   OH272348   6.260   5.565  12.045  0.0416  0.2007 -0.8602
16978TIP3    H172349   6.211   5.579  12.126 -1.2050 -0.5787 -1.4494
16978TIP3    H272350   6.352   5.576  12.070 -0.2304 -1.2072  0.9034
16979TIP3   OH272351   0.430   4.163  16.117 -0.1574 -0.1942 -0.1782
16979TIP3    H172352   0.519   4.194  16.128  0.3493  0.5654 -4.4829
16979TIP3    H272353   0.440   4.074  16.081 -1.1488 -0.2267 -0.3979
16980TIP3   OH272354   1.542   6.613  13.774  0.1327 -0.2787  0.3494
16980TIP3    H172355   1.610   6.669  13.813  0.5634 -1.0114  0.6625
16980TIP3    H272356   1.591   6.543  13.731 -0.3813  0.0000 -0.7079
16981TIP3   OH272357   4.304   3.162  16.752 -0.4503 -0.7182 -0.0447
16981TIP3    H172358   4.312   3.247  16.795 -2.8034 -1.9120  3.0969
16981TIP3    H272359   4.387   3.117  16.772 -0.7098 -0.5014  1.6267
16982TIP3   OH272360   2.557   1.912   3.518  0.3958 -0.4591  0.0953
16982TIP3    H172361   2.618   1.921   3.591  2.0021 -2.9555 -0.8189
16982TIP3    H272362   2.588   1.976   3.453 -1.4282  2.2364  1.6863
16983TIP3   OH272363   5.837   6.666  12.423  0.2552  0.2222  0.2913
16983TIP3    H172364   5.910   6.676  12.483  2.0476 -1.8651 -1.3240
16983TIP3    H272365   5.792   6.750  12.423  1.1472  0.7804  3.2189
16984TIP3   OH272366   2.022   5.079   1.624 -0.0713  0.4331  0.0878
16984TIP3    H172367   1.949   5.139   1.609 -0.1789  0.0151 -1.2112
16984TIP3    H272368   2.039   5.041   1.538 -0.1249 -1.5340  0.8981
16985TIP3   OH272369   4.117   1.575  14.416 -0.6416 -0.6071 -0.0782
16985TIP3    H172370   4.198   1.623  14.399 -0.2385 -1.8567 -2.0817
16985TIP3    H272371   4.146   1.491  14.452 -0.9981 -1.0648 -0.8139
16986TIP3   OH272372   4.926   0.736   0.941  0.1312 -0.1686  0.5428
16986TIP3    H172373   4.871   0.808   0.973  1.2142  1.0486 -0.2523
16986TIP3    H272374   4.899   0.724   0.850 -0.3290 -1.0728  0.7849
16987TIP3   OH272375   5.019   5.149   5.159 -0.1653  0.5644 -0.2286
16987TIP3    H172376   5.092   5.115   5.107  0.1460  1.1093 -0.1475
16987TIP3    H272377   5.054   5.157   5.248 -1.2514 -2.3002  0.5794
16988TIP3   OH272378   1.094   0.777   4.937 -0.1953  0.2245 -0.0117
16988TIP3    H172379   1.021   0.800   4.880 -0.5177 -1.6767 -0.4161
16988TIP3    H272380   1.167   0.831   4.906 -0.2497 -1.0240 -2.5018
16989TIP3   OH272381   1.765   0.861   5.034  0.2099 -0.2970 -0.6025
16989TIP3    H172382   1.826   0.934   5.047  1.4392 -1.3720 -0.1899
16989TIP3    H272383   1.742   0.833   5.123 -1.8945  0.8747 -0.7223
16990TIP3   OH272384   2.762   1.109   5.746  0.1342 -0.0451 -0.4198
16990TIP3    H172385   2.833   1.173   5.750 -0.8719  1.0314  0.6672
16990TIP3    H272386   2.796   1.032   5.793  0.0191  1.0579  1.5667
16991TIP3   OH272387   1.513   1.380  13.807 -0.5476 -0.0433 -0.2621
16991TIP3    H172388   1.497   1.308  13.747  0.0776 -0.4682  0.0676
16991TIP3    H272389   1.581   1.347  13.866 -0.4117  0.7385  0.0271
16992TIP3   OH272390   4.320   3.169  13.397  0.2112  0.2636  0.3472
16992TIP3    H172391   4.367   3.235  13.346  0.5897  0.8544  1.4384
16992TIP3    H272392   4.385   3.099  13.410 -0.3121 -0.5537 -1.1624
16993TIP3   OH272393   4.898   4.692  14.137 -0.4924  0.4027  0.0965
16993TIP3    H172394   4.984   4.662  14.163 -0.5748  0.2061  0.1408
16993TIP3    H272395   4.901   4.787  14.146  0.5067  0.6663 -2.1780
16994TIP3   OH272396   0.694   5.483   3.799 -0.4775  0.2475 -0.7483
16994TIP3    H172397   0.721   5.559   3.850 -1.0837  0.4525 -0.7223
16994TIP3    H272398   0.760   5.416   3.818  0.6902  1.0932 -1.6221
16995TIP3   OH272399   2.999   2.494  11.505 -0.1541 -0.7034  0.1479
16995TIP3    H172400   2.925   2.439  11.481 -1.7078  0.9601  0.9733
16995TIP3    H272401   2.987   2.575  11.457 -0.5581  0.7308  2.4946
16996TIP3   OH272402   1.035   6.760  11.101 -0.7321 -0.4008  0.3654
16996TIP3    H172403   1.108   6.806  11.060 -0.7818 -0.3571  0.3275
16996TIP3    H272404   1.015   6.688  11.041  0.2330 -1.2874  1.0677
16997TIP3   OH272405   2.983   2.927   2.900 -0.6153 -0.0353  0.0719
16997TIP3    H172406   2.943   2.842   2.880 -2.4299  0.7718  0.0651
16997TIP3    H272407   3.076   2.915   2.881 -0.9038 -1.8837 -0.3569
16998TIP3   OH272408   1.080   3.974   2.181 -0.2212  0.6213  0.0469
16998TIP3    H172409   1.164   3.957   2.223 -0.9616  1.8055  2.1454
16998TIP3    H272410   1.040   3.888   2.172  1.3622 -0.0225 -1.4344
16999TIP3   OH272411   6.209   2.990   1.780  0.4052 -0.4477  0.2325
16999TIP3    H172412   6.257   2.909   1.800  0.0723 -0.0708  2.8648
16999TIP3    H272413   6.127   2.960   1.741  1.2242 -1.2325 -0.9872
17000TIP3   OH272414   5.929   2.858   3.721 -0.1371 -0.4396 -0.5693
17000TIP3    H172415   6.011   2.825   3.684 -0.5756 -2.4594  0.1642
17000TIP3    H272416   5.868   2.784   3.715 -1.1556  0.1965  1.2147
17001TIP3   OH272417   5.607   0.479  12.089 -0.0729 -0.0627 -0.0736
17001TIP3    H172418   5.659   0.411  12.048 -1.9063 -0.8318 -1.2326
17001TIP3    H272419   5.650   0.561  12.064  0.8566 -0.6821 -0.5447
17002TIP3   OH272420   1.599   2.134  14.793 -0.2006  0.3955  0.1328
17002TIP3    H172421   1.566   2.117  14.705 -1.4739 -1.5965  0.9330
17002TIP3    H272422   1.529   2.185  14.835  0.0609  0.6763  0.2294
17003TIP3   OH272423   4.977   5.655  13.564 -0.1353  0.0541  0.0614
17003TIP3    H172424   5.036   5.645  13.489 -0.7661  0.0165 -0.4366
17003TIP3    H272425   5.000   5.582  13.622 -0.6094 -0.7586 -0.7559
17004TIP3   OH272426   1.002   1.122  11.614 -0.1098  0.1934 -0.4575
17004TIP3    H172427   1.042   1.182  11.551  2.1459 -0.1680  0.5318
17004TIP3    H272428   1.037   1.036  11.591  0.4424  0.0006  0.9980
17005TIP3   OH272429   5.754   6.254  12.210  0.5859  0.0066 -0.4165
17005TIP3    H172430   5.734   6.215  12.295  2.4306 -0.9343 -0.3819
17005TIP3    H272431   5.732   6.186  12.146  0.9182  0.0444 -0.5722
17006TIP3   OH272432   0.461   2.728  13.149 -0.0987 -0.0064  0.2065
17006TIP3    H172433   0.414   2.689  13.075  0.5443 -1.8742  0.7386
17006TIP3    H272434   0.450   2.666  13.221  2.5370 -0.1883  0.5559
17007TIP3   OH272435   0.480   2.039   3.294 -0.3533  0.4046  0.2225
17007TIP3    H172436   0.434   2.107   3.244 -0.7431  0.0230  0.0515
17007TIP3    H272437   0.523   1.985   3.228 -0.0175  0.5072  0.3594
17008TIP3   OH272438   3.084   0.502   4.790 -0.2943  0.0145  0.5338
17008TIP3    H172439   3.004   0.550   4.810 -0.6560 -0.3448 -0.0243
17008TIP3    H272440   3.058   0.410   4.795 -0.6451 -0.1287 -2.4050
17009TIP3   OH272441   1.511   1.444  15.967 -0.6673  0.0869 -0.5176
17009TIP3    H172442   1.444   1.375  15.965  1.5014 -2.2289  1.0191
17009TIP3    H272443   1.560   1.431  15.886 -0.3659 -0.0366 -0.3129
17010TIP3   OH272444   2.299   5.423  12.861  0.2290 -0.3566  0.5175
17010TIP3    H172445   2.286   5.339  12.817 -1.2549  1.6283 -3.2603
17010TIP3    H272446   2.212   5.460  12.869  0.9523  1.2710  1.2542
17011TIP3   OH272447   3.746   2.410   0.760  0.2535  0.0471 -0.0102
17011TIP3    H172448   3.742   2.499   0.724 -1.2623  0.0782  0.1492
17011TIP3    H272449   3.837   2.383   0.748  0.6050  1.4002 -0.5930
17012TIP3   OH272450   1.060   4.967  11.657  0.8091 -0.2391 -0.4436
17012TIP3    H172451   1.061   4.908  11.582 -0.2113 -0.1196 -0.5655
17012TIP3    H272452   1.032   4.913  11.730  0.0838  0.0359 -0.5117
17013TIP3   OH272453   1.527   3.929  13.625 -0.1135  0.7205 -0.3755
17013TIP3    H172454   1.481   3.997  13.575  1.2136  1.3228 -0.8546
17013TIP3    H272455   1.596   3.899  13.565  0.0486 -0.2250  0.2669
17014TIP3   OH272456   1.759   2.617  11.712  0.1527  0.0270 -0.7660
17014TIP3    H172457   1.848   2.586  11.729  0.3514  1.0813  0.2505
17014TIP3    H272458   1.741   2.679  11.783 -2.1735 -1.6530  0.2291
17015TIP3   OH272459   0.572   6.750  11.044  0.0648  0.1911  0.2374
17015TIP3    H172460   0.560   6.842  11.020 -0.6422  0.0546  0.0313
17015TIP3    H272461   0.522   6.741  11.125  2.0041  0.5251  1.5255
17016TIP3   OH272462   2.807   5.618   3.785 -0.3616 -0.3616 -0.0312
17016TIP3    H172463   2.755   5.698   3.771  0.8211  0.5875  0.7635
17016TIP3    H272464   2.744   5.555   3.819 -1.1039  0.6406  0.5258
17017TIP3   OH272465   4.347   5.809   3.644  0.2718 -0.0186 -0.0550
17017TIP3    H172466   4.307   5.796   3.730 -1.1366 -1.0283 -0.8184
17017TIP3    H272467   4.328   5.728   3.597  0.3755  0.8079 -1.5636
17018TIP3   OH272468   6.612   5.482   1.149  0.3647  0.2084 -0.5228
17018TIP3    H172469   6.516   5.486   1.142  0.2238  0.1911  1.0070
17018TIP3    H272470   6.634   5.558   1.202  1.0660 -0.4888  0.2071
17019TIP3   OH272471   0.687   1.950   4.278 -0.5536 -0.5751  0.8105
17019TIP3    H172472   0.743   2.023   4.303 -1.4962 -0.0813  1.5573
17019TIP3    H272473   0.729   1.913   4.200 -1.2622  2.2408 -1.0663
17020TIP3   OH272474   0.396   1.657  14.281 -0.2411  0.2333  0.0754
17020TIP3    H172475   0.446   1.728  14.321  0.7611 -0.6302  0.3791
17020TIP3    H272476   0.457   1.616  14.220 -0.5134 -0.9560  0.5774
17021TIP3   OH272477   1.684   6.196   5.084 -0.1361  0.0857  0.2599
17021TIP3    H172478   1.629   6.172   5.010  0.3131 -2.9137  0.7709
17021TIP3    H272479   1.636   6.266   5.128 -3.0478 -1.6073  0.0476
17022TIP3   OH272480   0.047   5.048   2.212  0.0535  0.1947 -0.7277
17022TIP3    H172481   0.112   4.984   2.241 -1.2815 -0.9144 -0.0489
17022TIP3    H272482   0.098   5.115   2.167  1.4572 -1.8115 -2.3602
17023TIP3   OH272483   0.605   3.084  14.207 -0.0952  0.2249 -0.0480
17023TIP3    H172484   0.638   3.025  14.274 -0.6988  1.4433  1.3789
17023TIP3    H272485   0.520   3.047  14.182  0.8645 -1.1864 -1.4724
17024TIP3   OH272486   2.723   3.260  14.310 -0.2533  0.4794  0.3094
17024TIP3    H172487   2.693   3.183  14.262 -0.0857  2.1826 -2.8365
17024TIP3    H272488   2.816   3.243  14.325  0.1033  0.5050 -1.5296
17025TIP3   OH272489   6.673   6.439  12.136 -0.2828  0.5510 -0.5961
17025TIP3    H172490   6.702   6.350  12.154 -0.8086  0.6430  0.8272
17025TIP3    H272491   6.705   6.457  12.048  0.1159 -0.9197 -0.7799
17026TIP3   OH272492   4.474   5.518  16.087 -0.0020 -0.0642  0.5588
17026TIP3    H172493   4.553   5.562  16.117  1.0614 -1.1254 -0.5295
17026TIP3    H272494   4.457   5.555  16.000  0.5908 -1.3422 -0.1343
17027TIP3   OH272495   5.883   6.577   5.217  0.0678 -0.6972 -0.1014
17027TIP3    H172496   5.905   6.607   5.305 -0.0859  0.3821 -0.4176
17027TIP3    H272497   5.912   6.647   5.159 -0.5329 -1.0490 -0.8482
17028TIP3   OH272498   0.333   6.784   0.363 -0.5528 -0.2713  0.1809
17028TIP3    H172499   0.278   6.857   0.390  0.8943  0.8255  0.2983
17028TIP3    H272500   0.381   6.759   0.443 -0.4321 -0.7998 -0.0500
17029TIP3   OH272501   3.880   6.195   3.613  0.2735 -0.1088  0.2084
17029TIP3    H172502   3.932   6.273   3.595  0.4995 -0.3279 -0.0897
17029TIP3    H272503   3.844   6.170   3.527  0.3070 -0.4070  0.2814
17030TIP3   OH272504   1.669   0.427   6.049  0.4276 -0.2931 -0.1542
17030TIP3    H172505   1.639   0.516   6.070 -0.9203 -0.4057 -1.4302
17030TIP3    H272506   1.591   0.382   6.018  1.2055 -1.7824 -0.0411
17031TIP3   OH272507   1.547   6.429   1.435 -0.0576  0.2369  0.0534
17031TIP3    H172508   1.470   6.374   1.425 -1.4150  2.3561 -2.1455
17031TIP3    H272509   1.525   6.490   1.505  0.7616 -0.8076  1.2777
17032TIP3   OH272510   3.790   2.215  15.304  0.1302  0.1433  0.5212
17032TIP3    H172511   3.823   2.136  15.348 -0.6136 -0.0891  0.6919
17032TIP3    H272512   3.840   2.220  15.223  0.1925 -0.5053  0.5108
17033TIP3   OH272513   4.847   5.938  11.769 -0.4472 -0.0391  0.1845
17033TIP3    H172514   4.764   5.984  11.764 -0.0756  0.6009 -0.2138
17033TIP3    H272515   4.848   5.880  11.693 -0.3186  0.3200 -0.0913
17034TIP3   OH272516   6.062   2.845  13.350 -0.4754 -0.4518  0.1919
17034TIP3    H172517   5.993   2.854  13.286 -0.9624 -2.0597  0.4285
17034TIP3    H272518   6.065   2.929  13.396 -2.7867 -0.5751  0.6757
17035TIP3   OH272519   0.377   5.258   2.416 -0.0971 -0.1513  0.5744
17035TIP3    H172520   0.387   5.338   2.469  0.0621  0.1144  0.1453
17035TIP3    H272521   0.322   5.284   2.343  2.1136  0.2823 -1.0248
17036TIP3   OH272522   6.734   1.651  16.805  0.1371  0.1820  0.0952
17036TIP3    H172523   6.736   1.741  16.772  1.6512 -0.0244 -0.4722
17036TIP3    H272524   6.641   1.632  16.817 -0.3742  0.9761 -2.1027
17037TIP3   OH272525   0.881   1.902   1.876  0.0621 -0.5788  0.1791
17037TIP3    H172526   0.865   1.960   1.802 -0.3285 -2.5623 -1.3890
17037TIP3    H272527   0.971   1.871   1.862 -0.3438 -1.7029 -0.0444
17038TIP3   OH272528   3.615   1.697  11.334 -0.9976 -0.6622 -0.0708
17038TIP3    H172529   3.578   1.729  11.251 -1.7079 -0.5624  0.2762
17038TIP3    H272530   3.709   1.709  11.324 -1.1771  0.7987 -0.2629
17039TIP3   OH272531   0.253   0.447  12.832  0.4670  0.2399 -0.0053
17039TIP3    H172532   0.204   0.497  12.766  0.3455  1.1833  0.7730
17039TIP3    H272533   0.326   0.408  12.783 -0.8489 -0.9423 -1.1323
17040TIP3   OH272534   0.382   5.790   5.367 -0.1235 -0.0410  0.3140
17040TIP3    H172535   0.447   5.781   5.437  0.0043 -1.3564  0.0635
17040TIP3    H272536   0.345   5.702   5.358 -1.7252  0.6162  0.2253
17041TIP3   OH272537   0.924   6.420  12.330  0.3486 -0.2439 -0.1636
17041TIP3    H172538   0.901   6.490  12.270 -0.8902 -1.4095 -1.1046
17041TIP3    H272539   0.926   6.462  12.416 -0.0694  1.0005 -0.7389
17042TIP3   OH272540   1.267   0.833   2.098  0.1595 -0.1130 -0.0465
17042TIP3    H172541   1.343   0.784   2.066  0.7557  0.7623  0.0250
17042TIP3    H272542   1.297   0.875   2.178 -0.8272 -0.8939  0.7595
17043TIP3   OH272543   3.822   6.277  11.168  0.3259  0.2406 -0.3617
17043TIP3    H172544   3.799   6.368  11.185  0.2317  0.1442  0.0573
17043TIP3    H272545   3.900   6.281  11.113  0.7215  0.5751  0.2132
17044TIP3   OH272546   1.223   2.349   5.142  0.0035  0.6854  0.0187
17044TIP3    H172547   1.184   2.311   5.221 -0.7927 -1.5582 -1.3576
17044TIP3    H272548   1.148   2.370   5.086  0.5607  2.0571 -0.2611
17045TIP3   OH272549   0.450   4.057  16.793  0.3881 -0.2196 -0.2310
17045TIP3    H172550   0.368   4.009  16.796  0.4726 -0.3068  1.1552
17045TIP3    H272551   0.517   3.991  16.807  0.6970 -0.1021 -1.0645
17046TIP3   OH272552   6.140   4.797   0.748 -0.3594 -0.1225 -0.7390
17046TIP3    H172553   6.217   4.747   0.774 -0.3166  0.0890 -0.4429
17046TIP3    H272554   6.167   4.844   0.669  0.0001  0.3691 -0.3368
17047TIP3   OH272555   1.120   2.661   5.343  0.3510  0.5548  0.2369
17047TIP3    H172556   1.113   2.607   5.421  2.4383  0.6152  0.5252
17047TIP3    H272557   1.042   2.639   5.291  0.0724 -1.1459  1.2999
17048TIP3   OH272558   2.048   5.849   0.090  0.4654  0.4811  0.4896
17048TIP3    H172559   2.035   5.906   0.014  2.5485  0.2903 -0.0948
17048TIP3    H272560   2.031   5.905   0.165 -3.1778  0.2807 -0.0125
17049TIP3   OH272561   5.288   4.623  15.964  0.1545  0.4916  0.5458
17049TIP3    H172562   5.285   4.570  15.884  0.1425 -1.7562  1.9233
17049TIP3    H272563   5.350   4.693  15.945  0.9160 -0.5730 -1.1047
17050TIP3   OH272564   3.537   3.912   3.215 -0.3880  0.5293 -0.1436
17050TIP3    H172565   3.506   4.001   3.199 -1.4480 -0.0879 -1.9334
17050TIP3    H272566   3.609   3.901   3.153  2.2979  1.2854  2.6156
17051TIP3   OH272567   0.953   0.548  15.190  0.6431 -0.3040  0.7525
17051TIP3    H172568   0.902   0.472  15.161 -0.5479 -0.0816  2.1575
17051TIP3    H272569   0.922   0.620  15.135 -0.4435 -0.2160  1.4528
17052TIP3   OH272570   4.083   5.564   0.035  0.3354 -0.1528  0.1733
17052TIP3    H172571   4.178   5.552   0.035  0.2478 -1.0033  1.0341
17052TIP3    H272572   4.057   5.545   0.125 -0.9158 -2.4417 -0.5785
17053TIP3   OH272573   4.693   6.330   2.392  0.6129 -0.2528 -0.0185
17053TIP3    H172574   4.662   6.306   2.479 -1.0321  0.3347 -0.3889
17053TIP3    H272575   4.612   6.344   2.341  1.4788  2.1776 -0.8542
17054TIP3   OH272576   2.210   0.278  15.989  0.1202  0.1758 -0.0282
17054TIP3    H172577   2.180   0.338  15.921 -1.3689 -0.5908 -0.0853
17054TIP3    H272578   2.192   0.325  16.071  0.7653  0.5876 -0.1146
17055TIP3   OH272579   4.595   0.786   1.668  0.0897  0.0800 -0.5848
17055TIP3    H172580   4.601   0.702   1.714 -0.5581 -0.1092 -0.8473
17055TIP3    H272581   4.524   0.832   1.712  0.1730  0.3274 -0.7091
17056TIP3   OH272582   0.123   3.330   5.660 -0.7491  0.1131 -0.4486
17056TIP3    H172583   0.184   3.257   5.649  0.2707  1.1787 -2.3478
17056TIP3    H272584   0.047   3.305   5.608  0.5251  1.3073 -3.0639
17057TIP3   OH272585   6.499   2.325   2.562  0.1891 -0.4137  0.1748
17057TIP3    H172586   6.457   2.402   2.524 -0.2271 -0.3519  0.7577
17057TIP3    H272587   6.434   2.289   2.622 -0.2957 -2.1986 -1.3222
17058TIP3   OH272588   5.789   2.164   4.881 -0.3212  0.0183  0.6760
17058TIP3    H172589   5.850   2.162   4.955  0.9645 -0.0398 -0.3544
17058TIP3    H272590   5.704   2.143   4.920  0.1488  0.9186  2.2901
17059TIP3   OH272591   4.287   0.301  15.054  0.2408  0.0311  0.5080
17059TIP3    H172592   4.322   0.363  14.990  1.7786 -1.6313 -0.3295
17059TIP3    H272593   4.314   0.215  15.022 -0.5521 -0.9866  2.4158
17060TIP3   OH272594   4.826   4.052  17.021  0.0289  0.6323  0.4680
17060TIP3    H172595   4.754   4.015  16.970  1.3221 -1.8264  0.2844
17060TIP3    H272596   4.884   4.092  16.956  1.2223 -1.7104 -0.0177
17061TIP3   OH272597   6.341   2.603  16.992  0.4166 -0.3305 -0.0315
17061TIP3    H172598   6.293   2.605  16.910 -0.6928  1.1594  0.6081
17061TIP3    H272599   6.431   2.580  16.967  0.0638 -0.0734 -1.6342
17062TIP3   OH272600   2.080   6.510  12.973  0.2166 -0.1040  0.2154
17062TIP3    H172601   2.170   6.476  12.968  1.6647  3.3961 -0.1139
17062TIP3    H272602   2.048   6.506  12.883 -0.1021 -1.5126  0.3582
17063TIP3   OH272603   0.803   2.883  10.239  0.2339  0.6312 -0.1724
17063TIP3    H172604   0.710   2.902  10.223  0.3041  0.7017 -0.5181
17063TIP3    H272605   0.810   2.788  10.227  0.3712  0.7389 -1.0596
17064TIP3   OH272606   4.478   1.795   0.520  0.3737  0.7178 -0.3448
17064TIP3    H172607   4.417   1.801   0.446 -0.9918  0.5547  0.7395
17064TIP3    H272608   4.551   1.853   0.495 -0.2546  0.9973 -1.6211
17065TIP3   OH272609   4.174   3.712   3.530  0.1608 -0.4222 -0.2167
17065TIP3    H172610   4.124   3.774   3.584 -0.0138 -1.4193  0.8110
17065TIP3    H272611   4.150   3.626   3.565  1.2018 -1.0112 -0.9206
17066TIP3   OH272612   2.401   3.769   1.074 -0.7717  0.1938 -0.1119
17066TIP3    H172613   2.387   3.706   1.003 -0.7812 -0.6577  0.6243
17066TIP3    H272614   2.427   3.715   1.149  1.5114  1.2489 -0.0530
17067TIP3   OH272615   3.599   2.323   3.339  0.5767  0.0622 -0.0666
17067TIP3    H172616   3.532   2.377   3.380  0.6881 -0.0851  0.3168
17067TIP3    H272617   3.552   2.246   3.305  0.3207  0.6833 -1.1698
17068TIP3   OH272618   0.797   0.510   2.550  0.7244  0.2628  0.7096
17068TIP3    H172619   0.813   0.521   2.456 -1.4250 -2.1965 -0.0755
17068TIP3    H272620   0.875   0.466   2.583  0.7849 -0.4344 -0.3212
17069TIP3   OH272621   3.462   1.150  12.792 -0.2361 -0.6505 -0.2308
17069TIP3    H172622   3.391   1.121  12.850 -0.6829  0.3386 -0.2446
17069TIP3    H272623   3.511   1.071  12.772 -0.2090 -1.0656  1.3051
17070TIP3   OH272624   2.980   1.181   1.975 -0.1688 -0.1020  0.3581
17070TIP3    H172625   3.070   1.196   1.944 -0.2758 -0.8259 -0.3635
17070TIP3    H272626   2.962   1.253   2.035  1.0887 -0.2516  0.9321
17071TIP3   OH272627   4.375   4.673   1.972 -0.4188  0.1579  0.0876
17071TIP3    H172628   4.398   4.617   1.898  0.3798  0.5150  0.0611
17071TIP3    H272629   4.302   4.725   1.940 -0.4423 -0.0821 -0.2587
17072TIP3   OH272630   4.607   3.073  12.301  0.1351  0.3135  0.6570
17072TIP3    H172631   4.688   3.124  12.294 -0.7668  1.6717 -0.7397
17072TIP3    H272632   4.620   3.000  12.241  0.1459  0.8082  0.0465
17073TIP3   OH272633   1.230   1.408  15.197  0.1379  0.3812 -0.3494
17073TIP3    H172634   1.248   1.365  15.280  0.6406 -0.5339 -0.9106
17073TIP3    H272635   1.292   1.369  15.135 -1.7309 -0.6903 -1.6767
17074TIP3   OH272636   5.094   0.223  10.953 -0.1997  0.0548  0.3247
17074TIP3    H172637   5.157   0.278  10.907  0.0814  1.1403  1.9549
17074TIP3    H272638   5.143   0.144  10.975  0.7849  1.0944  2.0170
17075TIP3   OH272639   4.485   1.940  12.497  0.1475  0.0119 -0.4919
17075TIP3    H172640   4.414   1.938  12.433  0.3208 -0.8749 -0.6769
17075TIP3    H272641   4.457   2.005  12.562 -0.7077 -0.1274 -0.7066
17076TIP3   OH272642   0.949   3.754   1.621 -0.0780  0.0352  0.7552
17076TIP3    H172643   1.026   3.753   1.678  0.9112 -0.7880 -0.5346
17076TIP3    H272644   0.912   3.666   1.629 -0.9551  0.4497  1.4258
17077TIP3   OH272645   5.795   0.825   0.125  0.1628 -0.4720 -0.0947
17077TIP3    H172646   5.860   0.761   0.095  0.0609 -1.2144  1.2109
17077TIP3    H272647   5.717   0.772   0.144  0.5150 -0.2065  2.3774
17078TIP3   OH272648   4.121   3.694   3.826 -0.8507  0.0472 -0.1958
17078TIP3    H172649   4.148   3.640   3.900  0.3710 -0.5019 -1.0128
17078TIP3    H272650   4.084   3.773   3.866 -0.1333 -0.1939  0.9910
17079TIP3   OH272651   2.003   6.632   1.337  0.3659  0.2134 -0.0845
17079TIP3    H172652   1.929   6.651   1.396  0.1933  0.9280 -0.5168
17079TIP3    H272653   2.041   6.552   1.372 -1.3478 -0.8694 -0.5470
17080TIP3   OH272654   3.464   4.756   3.746  0.2700  0.4043 -0.2486
17080TIP3    H172655   3.461   4.743   3.652  1.3564 -1.3075 -0.1053
17080TIP3    H272656   3.491   4.847   3.757 -3.0404  1.6806 -1.4844
17081TIP3   OH272657   5.540   2.761   0.392 -0.0250  0.0654  0.3988
17081TIP3    H172658   5.596   2.685   0.410  0.0810  0.0256 -0.0852
17081TIP3    H272659   5.590   2.813   0.329 -0.6600 -0.1254 -0.2701
17082TIP3   OH272660   5.062   2.340  11.270 -0.1953 -0.4806  0.4636
17082TIP3    H172661   5.035   2.388  11.192 -2.0686 -1.5788  0.3780
17082TIP3    H272662   5.095   2.257  11.237 -1.3439 -1.1033  0.8128
17083TIP3   OH272663   6.489   0.607   0.830  0.3097  0.3014 -0.1426
17083TIP3    H172664   6.484   0.697   0.865  0.8278  1.5239 -2.9805
17083TIP3    H272665   6.577   0.578   0.855  0.1406  0.5388  0.8069
17084TIP3   OH272666   0.162   0.792   0.529 -0.3767 -0.3768 -0.5080
17084TIP3    H172667   0.217   0.749   0.594  0.2763  3.2169  1.5714
17084TIP3    H272668   0.076   0.797   0.570 -0.8725 -1.0704 -1.4216
17085TIP3   OH272669   4.967   2.302   0.227  0.2898 -0.4135  0.4954
17085TIP3    H172670   4.926   2.274   0.309  0.0047 -0.6135  0.2877
17085TIP3    H272671   5.052   2.258   0.226  0.7828  0.4775  1.2172
17086TIP3   OH272672   0.525   1.935   5.737 -0.1639  0.9384 -0.1682
17086TIP3    H172673   0.447   1.992   5.736 -2.1888 -1.6082  0.5608
17086TIP3    H272674   0.538   1.910   5.646 -1.8778 -0.5987 -0.0543
17087TIP3   OH272675   3.255   4.122  14.326 -0.0509 -0.2463 -0.1762
17087TIP3    H172676   3.236   4.152  14.238 -0.2479  0.0843 -0.0209
17087TIP3    H272677   3.316   4.187  14.361 -1.2019  0.5036  0.4933
17088TIP3   OH272678   5.298   1.559  16.756 -0.2517  0.1069 -0.4915
17088TIP3    H172679   5.371   1.618  16.776 -0.9037  0.3182  1.4364
17088TIP3    H272680   5.280   1.575  16.663  1.7418  0.4889 -0.8615
17089TIP3   OH272681   3.408   6.355  15.208 -0.0995  0.4087 -0.1999
17089TIP3    H172682   3.389   6.307  15.127  0.6481  0.0088 -0.1416
17089TIP3    H272683   3.442   6.289  15.268 -1.4281  0.5412  0.7427
17090TIP3   OH272684   3.869   5.482   1.119 -0.3842 -0.1004 -0.3986
17090TIP3    H172685   3.796   5.534   1.086 -1.9564 -2.4066 -0.8464
17090TIP3    H272686   3.947   5.528   1.089 -1.6800  1.2247 -1.9528
17091TIP3   OH272687   0.613   5.894   1.514  0.4072  0.1067 -0.0470
17091TIP3    H172688   0.654   5.870   1.598  1.7155 -0.1829 -0.7477
17091TIP3    H272689   0.648   5.830   1.452 -2.7092 -1.4911 -0.3263
17092TIP3   OH272690   2.257   5.060   2.416  0.0845 -0.7668  0.2258
17092TIP3    H172691   2.258   5.118   2.492 -0.2461 -1.7376  0.9982
17092TIP3    H272692   2.167   5.026   2.413  0.2703 -1.2366 -0.2165
17093TIP3   OH272693   4.080   0.642   1.353  0.6355  0.0861  0.2416
17093TIP3    H172694   4.158   0.674   1.307  1.6388 -1.1041  1.0824
17093TIP3    H272695   4.113   0.603   1.434 -0.1877 -4.7357 -1.4247
17094TIP3   OH272696   1.578   2.858   6.417  0.2641 -0.3666  0.8751
17094TIP3    H172697   1.539   2.912   6.348  2.5341  1.6807  1.0662
17094TIP3    H272698   1.503   2.825   6.467 -1.3069  0.7768 -0.5996
17095TIP3   OH272699   2.091   0.387   3.680 -0.7020 -0.5941  0.0004
17095TIP3    H172700   2.157   0.449   3.648 -0.0033 -1.3386 -0.0242
17095TIP3    H272701   2.053   0.430   3.757  0.5626 -0.6095  0.6500
17096TIP3   OH272702   3.915   4.762  17.073  0.2304 -0.0937 -0.3072
17096TIP3    H172703   3.965   4.830  17.118  0.9045 -0.9840  0.3397
17096TIP3    H272704   3.885   4.803  16.993 -2.3414  2.0424  1.5953
17097TIP3   OH272705   3.503   1.704  12.988  0.2046  0.0207  0.6011
17097TIP3    H172706   3.446   1.628  13.002 -0.7462  0.6504  0.2875
17097TIP3    H272707   3.578   1.669  12.941 -0.7133 -0.5597 -0.4983
17098TIP3   OH272708   6.446   5.459   4.328 -0.2585  0.0831 -0.4346
17098TIP3    H172709   6.419   5.534   4.381  0.2766  0.5209 -0.7720
17098TIP3    H272710   6.366   5.407   4.318 -1.0777  1.4594 -1.6070
17099TIP3   OH272711   3.536   0.916  15.070  0.0137  0.3687 -0.6338
17099TIP3    H172712   3.568   0.974  15.139 -0.7796  0.6497 -0.4919
17099TIP3    H272713   3.441   0.926  15.072 -0.1195 -0.7410 -0.7810
17100TIP3   OH272714   1.098   3.952   1.788  0.6185 -0.3344  0.6537
17100TIP3    H172715   1.182   3.997   1.798  0.3507  1.1653 -2.5941
17100TIP3    H272716   1.094   3.928   1.696 -2.2666 -0.9147  0.8293
17101TIP3   OH272717   0.451   6.331  16.084  0.2540 -0.4084 -1.1440
17101TIP3    H172718   0.447   6.403  16.022  0.4318  0.9235  0.3090
17101TIP3    H272719   0.364   6.291  16.080  0.3442 -0.5100 -2.3981
17102TIP3   OH272720   3.862   5.708   0.810  0.3749 -0.0430 -0.2543
17102TIP3    H172721   3.807   5.638   0.775  0.6752 -0.2513 -0.3232
17102TIP3    H272722   3.923   5.664   0.869  0.2588  0.2288  0.0749
17103TIP3   OH272723   1.304   3.757   1.963  0.2995 -0.2173 -0.4511
17103TIP3    H172724   1.213   3.733   1.946 -0.3608  2.8045 -1.8359
17103TIP3    H272725   1.315   3.743   2.057 -1.9567  0.3896 -0.0362
17104TIP3   OH272726   3.924   6.152   2.229 -0.4490 -0.2224 -0.3626
17104TIP3    H172727   3.995   6.141   2.166  0.4287 -1.2627  0.7566
17104TIP3    H272728   3.867   6.076   2.213 -0.5851 -0.1203 -0.3563
17105TIP3   OH272729   5.162   1.436  12.305 -0.4168  0.2757  0.3134
17105TIP3    H172730   5.079   1.476  12.280 -1.2138 -1.6422 -0.2654
17105TIP3    H272731   5.138   1.368  12.368  0.6055 -0.8794 -0.5052
17106TIP3   OH272732   2.129   1.586   2.279 -0.9494 -0.2429  0.3742
17106TIP3    H172733   2.125   1.670   2.325 -1.3070 -1.8867  3.6042
17106TIP3    H272734   2.202   1.540   2.320 -0.4759 -1.4124 -1.6350
17107TIP3   OH272735   4.882   3.501   3.146  0.2665  0.3912 -0.0604
17107TIP3    H172736   4.836   3.577   3.181  0.8733  0.4929  0.5295
17107TIP3    H272737   4.974   3.517   3.167  0.2414 -1.2879  1.5782
17108TIP3   OH272738   2.779   1.886   3.681  0.2387  0.5461  0.1316
17108TIP3    H172739   2.755   1.794   3.665 -0.5862  0.8890 -0.7079
17108TIP3    H272740   2.832   1.883   3.760 -0.2925 -0.5860  0.4739
17109TIP3   OH272741   0.372   3.290  12.908 -0.2907  0.3505 -0.2285
17109TIP3    H172742   0.441   3.281  12.842 -0.8168  2.1707 -1.1012
17109TIP3    H272743   0.394   3.370  12.955 -1.0715  0.2005  0.4098
17110TIP3   OH272744   4.897   6.210  12.699  0.3639 -0.3303  0.1668
17110TIP3    H172745   4.809   6.174  12.707  0.2962 -0.1660  0.1609
17110TIP3    H272746   4.944   6.177  12.776  0.0386  0.3254  0.6472
17111TIP3   OH272747   5.159   5.809   3.122  0.0034  0.0416 -0.3773
17111TIP3    H172748   5.238   5.851   3.089 -0.5340 -0.4151 -2.3377
17111TIP3    H272749   5.185   5.717   3.137  0.7518  0.6007  2.4306
17112TIP3   OH272750   6.495   0.418  16.565  0.2186 -0.0767  0.0873
17112TIP3    H172751   6.546   0.445  16.641  0.6874 -0.9124  0.0901
17112TIP3    H272752   6.514   0.484  16.498  2.3265 -1.0033 -0.3183
17113TIP3   OH272753   3.996   0.068   2.722 -0.0130 -0.4193  0.1247
17113TIP3    H172754   3.936   0.013   2.772  0.9357 -1.7760 -0.1891
17113TIP3    H272755   4.072   0.079   2.779 -0.4355  1.1403  0.4492
17114TIP3   OH272756   0.001   3.039   4.817  0.3990 -0.1889  0.3953
17114TIP3    H172757   0.053   3.118   4.828  1.7230 -0.9937  0.1749
17114TIP3    H272758   0.031   3.003   4.733  0.6443 -1.5163  1.0367
17115TIP3   OH272759   2.630   1.086  16.683  0.0862 -0.3826  0.2554
17115TIP3    H172760   2.725   1.085  16.691  0.2599 -0.5078 -1.3668
17115TIP3    H272761   2.602   1.001  16.717  0.8958 -1.6995 -2.1111
17116TIP3   OH272762   6.400   2.641   2.746  0.6689 -0.1404  0.2965
17116TIP3    H172763   6.461   2.714   2.737  1.2767 -0.6258  0.4797
17116TIP3    H272764   6.421   2.602   2.831 -0.4685  0.2086  0.7576
17117TIP3   OH272765   2.168   0.290   4.702 -0.2919 -0.0681 -0.2286
17117TIP3    H172766   2.240   0.228   4.715  0.7827  0.9741 -1.0365
17117TIP3    H272767   2.182   0.357   4.768 -1.2736 -0.4785  0.4355
17118TIP3   OH272768   1.020   6.064  15.263  0.0771  0.5402  0.3770
17118TIP3    H172769   1.013   5.975  15.228 -0.7837  0.9345 -0.4688
17118TIP3    H272770   1.046   6.051  15.355  1.0635 -0.5380 -0.0252
17119TIP3   OH272771   6.081   2.846   4.044  0.6595 -0.6196  0.3610
17119TIP3    H172772   5.998   2.848   3.996  0.9963 -2.5250 -0.3522
17119TIP3    H272773   6.065   2.785   4.116  0.9859  0.2060  1.1549
17120TIP3   OH272774   2.103   4.796  15.489 -0.2751  0.0695 -0.0568
17120TIP3    H172775   2.009   4.807  15.502 -0.5908  0.2402 -2.1389
17120TIP3    H272776   2.142   4.870  15.535 -1.4329  1.9445 -1.8760
17121TIP3   OH272777   4.929   4.985  15.184 -0.0714 -0.6547  0.4307
17121TIP3    H172778   4.957   4.922  15.117  0.3937  0.1802 -0.1708
17121TIP3    H272779   4.944   5.071  15.145 -0.5314 -0.1566  1.3129
17122TIP3   OH272780   3.447   5.408  15.650 -0.2581 -0.0891 -0.6252
17122TIP3    H172781   3.389   5.374  15.717  0.8776  0.6669  0.7967
17122TIP3    H272782   3.513   5.340  15.639 -0.3563 -0.1458 -0.8692
17123TIP3   OH272783   2.831   3.757   1.146 -1.2842  0.3050 -0.0454
17123TIP3    H172784   2.865   3.710   1.070 -0.4908 -0.4614  0.7668
17123TIP3    H272785   2.791   3.689   1.201 -0.2982  0.5813  1.0590
17124TIP3   OH272786   4.573   1.353   5.155 -0.4005 -0.3887 -0.0742
17124TIP3    H172787   4.610   1.423   5.102  0.8951  0.1918  1.5001
17124TIP3    H272788   4.522   1.300   5.094  2.0637 -0.5535 -2.1715
17125TIP3   OH272789   5.369   1.988   6.122 -0.5606 -0.1575  0.0960
17125TIP3    H172790   5.284   1.943   6.114 -0.7075 -0.5203  2.7254
17125TIP3    H272791   5.432   1.917   6.131 -0.5759  0.0741  2.5268
17126TIP3   OH272792   2.205   2.017  14.954 -0.2328 -0.2810  0.0088
17126TIP3    H172793   2.117   1.989  14.929 -0.6616  0.3091  0.8112
17126TIP3    H272794   2.196   2.109  14.977  0.0429 -0.7909  2.5048
17127TIP3   OH272795   1.556   3.519  16.188  0.5087  0.3052 -0.2364
17127TIP3    H172796   1.497   3.595  16.181 -0.5088 -0.1670  2.3123
17127TIP3    H272797   1.638   3.549  16.148 -0.5596  1.9459 -1.3283
17128TIP3   OH272798   6.529   5.484   0.880  0.0838 -0.2018 -0.0379
17128TIP3    H172799   6.439   5.491   0.910  0.0600  0.4485 -0.2435
17128TIP3    H272800   6.580   5.475   0.960 -0.0110  1.1786  0.1996
17129TIP3   OH272801   1.276   6.485   1.240 -0.9149 -0.2666  0.1391
17129TIP3    H172802   1.294   6.421   1.310  1.2466 -0.0435 -0.1384
17129TIP3    H272803   1.223   6.553   1.283  0.8013  0.1381  1.7644
17130TIP3   OH272804   4.114   3.981  16.455  0.3344 -0.0407  0.3284
17130TIP3    H172805   4.046   3.915  16.465 -1.0360  1.1618 -0.7329
17130TIP3    H272806   4.076   4.061  16.493  1.7440  0.3092  1.0963
17131TIP3   OH272807   3.598   5.088   1.184 -0.0974  0.1576  0.1855
17131TIP3    H172808   3.662   5.105   1.115  1.3429 -1.1323  1.1263
17131TIP3    H272809   3.564   5.001   1.165 -1.6772  0.8524 -0.3340
17132TIP3   OH272810   0.226   1.577   5.281  0.2106 -0.3072  0.1043
17132TIP3    H172811   0.275   1.591   5.363 -0.0623  0.2164  0.1753
17132TIP3    H272812   0.220   1.481   5.274 -1.6626 -0.3935  1.8408
17133TIP3   OH272813   4.075   6.537  10.939 -0.6288  0.6470  0.8383
17133TIP3    H172814   4.093   6.464  10.999  0.0040 -1.4561 -1.7367
17133TIP3    H272815   4.161   6.567  10.911 -0.9270  0.5888 -0.1599
17134TIP3   OH272816   2.231   5.625   4.861 -0.2377 -0.1830  0.7239
17134TIP3    H172817   2.309   5.580   4.894 -0.9093 -0.4160  2.0795
17134TIP3    H272818   2.245   5.631   4.767  0.1961 -2.6687  0.5565
17135TIP3   OH272819   3.173   3.127  16.988 -0.0558 -0.3423  0.2854
17135TIP3    H172820   3.210   3.209  17.022 -0.8684  0.2239 -0.1383
17135TIP3    H272821   3.231   3.102  16.917  0.2454 -0.1739  0.4702
17136TIP3   OH272822   3.330   5.377  17.144 -0.2039 -0.8712  0.1531
17136TIP3    H172823   3.405   5.341  17.191 -0.3032  0.5215  1.4310
17136TIP3    H272824   3.262   5.386  17.211 -1.4445 -1.8407 -0.9268
17137TIP3   OH272825   0.664   4.690   5.008 -0.6747  0.1119 -0.0819
17137TIP3    H172826   0.656   4.764   4.948  0.3902  0.0347 -0.3346
17137TIP3    H272827   0.667   4.613   4.951 -0.1510  0.0014  0.0885
17138TIP3   OH272828   0.697   5.961   5.238 -0.4663 -0.2999  0.2807
17138TIP3    H172829   0.679   6.051   5.267  2.6903  0.6436 -0.3717
17138TIP3    H272830   0.705   5.911   5.318  0.8355  0.6907  0.7951
17139TIP3   OH272831   0.803   2.488  11.388  0.3054 -0.2902  0.1241
17139TIP3    H172832   0.747   2.418  11.421 -0.0427  0.4843  1.1862
17139TIP3    H272833   0.778   2.496  11.295 -0.3674 -0.8703  0.2447
17140TIP3   OH272834   3.286   2.564   4.178 -0.3379  0.0170  0.1190
17140TIP3    H172835   3.319   2.633   4.120 -2.1438  0.5397 -0.3719
17140TIP3    H272836   3.364   2.531   4.223  1.1432 -0.2972 -2.4418
17141TIP3   OH272837   4.042   6.359  11.817  0.3181 -0.8417  0.5570
17141TIP3    H172838   3.984   6.430  11.844 -1.0232 -1.3980 -0.7221
17141TIP3    H272839   4.124   6.402  11.793 -0.0469  0.1217  0.9853
17142TIP3   OH272840   1.245   4.622   5.160  0.0672 -0.0103 -0.9311
17142TIP3    H172841   1.263   4.666   5.077 -0.8212 -0.4881 -1.4037
17142TIP3    H272842   1.162   4.577   5.144  0.4621 -1.0376 -0.1444
17143TIP3   OH272843   2.801   6.562  16.432 -0.0776  0.7172 -0.1876
17143TIP3    H172844   2.807   6.534  16.340  3.0605 -2.2887  0.7388
17143TIP3    H272845   2.753   6.491  16.475  0.1905  1.1266  0.8143
17144TIP3   OH272846   0.475   4.500   0.913  0.2545  0.1816 -0.3321
17144TIP3    H172847   0.430   4.433   0.964 -0.4579  0.8688 -0.0434
17144TIP3    H272848   0.421   4.579   0.922 -0.1388  0.2383 -2.4780
17145TIP3   OH272849   4.464   5.995   5.977 -0.1884  0.1882  0.4468
17145TIP3    H172850   4.439   5.977   5.887  1.1267 -1.1863  0.3177
17145TIP3    H272851   4.463   5.910   6.020 -2.0589  0.9733  2.1119
17146TIP3   OH272852   1.828   1.105  12.719 -0.5045 -0.0596  0.4299
17146TIP3    H172853   1.809   1.013  12.702  1.4649 -0.7370  1.6106
17146TIP3    H272854   1.886   1.132  12.648  0.1644 -0.2046  0.9055
17147TIP3   OH272855   3.834   6.785   3.121  0.2898 -0.0248 -0.1149
17147TIP3    H172856   3.824   6.700   3.079  0.4660 -0.7024  1.1675
17147TIP3    H272857   3.921   6.782   3.161 -0.3467  0.1229  1.3220
17148TIP3   OH272858   5.002   1.970  11.022  0.1343  0.0856  0.6678
17148TIP3    H172859   5.005   2.064  11.003 -0.6051  0.0861  0.5520
17148TIP3    H272860   4.948   1.933  10.952  2.0189 -0.7148 -0.4402
17149TIP3   OH272861   2.988   3.484   1.847  0.0892  0.5622 -0.2328
17149TIP3    H172862   2.925   3.499   1.777 -1.0336 -0.9459  0.3914
17149TIP3    H272863   2.942   3.428   1.909  2.1293 -0.8508  0.1202
17150TIP3   OH272864   3.351   6.567  15.029  0.2128  0.5712  0.0025
17150TIP3    H172865   3.372   6.495  15.088 -0.6323  1.0504  0.9164
17150TIP3    H272866   3.395   6.643  15.066  0.4048  0.7013 -0.4804
17151TIP3   OH272867   2.939   1.536  11.449 -0.9801  0.2116  0.2743
17151TIP3    H172868   2.893   1.616  11.422  0.2681  0.2351 -2.1315
17151TIP3    H272869   2.971   1.499  11.367 -0.6444 -2.2539  1.4267
17152TIP3   OH272870   2.312   0.748   0.192  0.4031 -0.2691  0.1837
17152TIP3    H172871   2.241   0.787   0.142  0.6242  0.3375  0.3295
17152TIP3    H272872   2.345   0.820   0.246 -0.1659 -1.0268  1.5846
17153TIP3   OH272873   3.813   5.852  14.711 -0.0420  0.3582  0.3425
17153TIP3    H172874   3.776   5.764  14.711  0.2510  0.2258 -0.2985
17153TIP3    H272875   3.739   5.909  14.692 -0.0350  0.1445 -0.3682
17154TIP3   OH272876   4.230   4.779  14.885 -0.0047 -0.3471  0.2268
17154TIP3    H172877   4.166   4.850  14.887 -0.2292 -0.5507  0.8598
17154TIP3    H272878   4.291   4.802  14.816 -0.1501  0.3949  0.3395
17155TIP3   OH272879   4.324   4.352  12.806 -0.8942 -0.3421  0.2345
17155TIP3    H172880   4.326   4.366  12.712  1.9350 -0.2817  0.2156
17155TIP3    H272881   4.335   4.258  12.818  2.2004 -0.0618  0.4183
17156TIP3   OH272882   6.058   3.835  14.741  0.1864  0.3652 -0.6424
17156TIP3    H172883   6.148   3.850  14.769  0.5801 -0.6831 -1.2688
17156TIP3    H272884   6.025   3.770  14.802 -0.6517  1.7722  0.4739
17157TIP3   OH272885   3.925   0.336  15.252 -0.0925 -0.5656 -0.1792
17157TIP3    H172886   3.927   0.270  15.183  0.9136 -1.0310  0.2837
17157TIP3    H272887   3.844   0.319  15.300 -0.3626 -0.7823 -0.7046
17158TIP3   OH272888   3.760   3.295   5.312  0.0788  0.2415  1.3301
17158TIP3    H172889   3.821   3.295   5.238 -1.3231  0.0026  0.1373
17158TIP3    H272890   3.790   3.368   5.367  0.1773  1.5084 -0.3198
17159TIP3   OH272891   1.995   2.426  12.082 -0.6398 -0.1477 -0.2896
17159TIP3    H172892   2.077   2.430  12.132 -0.6421 -0.2166 -0.2803
17159TIP3    H272893   1.949   2.506  12.106  0.0685  0.6159 -1.4102
17160TIP3   OH272894   6.290   6.051   2.318 -0.9707 -0.1443 -0.5971
17160TIP3    H172895   6.354   5.983   2.340  0.9678  1.4278 -1.0857
17160TIP3    H272896   6.300   6.063   2.223 -0.3979  1.6239 -0.3427
17161TIP3   OH272897   1.887   5.128  15.180  0.5978 -0.0202 -0.3718
17161TIP3    H172898   1.852   5.043  15.208 -0.4028  1.1273  2.1562
17161TIP3    H272899   1.872   5.130  15.086 -1.5166 -1.7042 -0.1519
17162TIP3   OH272900   2.818   0.358   1.397  1.1283  0.6225 -0.1651
17162TIP3    H172901   2.801   0.270   1.361 -0.8720  1.3039 -1.0608
17162TIP3    H272902   2.799   0.349   1.491 -0.5613  0.3854 -0.4865
17163TIP3   OH272903   3.840   2.627   0.975  0.2787 -0.7216  0.4630
17163TIP3    H172904   3.856   2.722   0.978 -0.7010 -0.5281  3.5069
17163TIP3    H272905   3.756   2.619   0.928  0.7925 -0.1983 -0.5794
17164TIP3   OH272906   1.065   4.518   3.158 -0.3168  0.4666  0.1094
17164TIP3    H172907   0.981   4.473   3.148  0.1571 -0.6456  0.8495
17164TIP3    H272908   1.130   4.449   3.143  0.4570  1.2203 -0.0565
17165TIP3   OH272909   4.400   5.417   4.485 -0.7909  0.6095 -0.2143
17165TIP3    H172910   4.308   5.407   4.461 -0.7377  0.7130 -0.4697
17165TIP3    H272911   4.447   5.412   4.401 -0.4662 -0.6178  0.0207
17166TIP3   OH272912   6.718   3.810   0.208  0.0310 -0.3617 -0.0382
17166TIP3    H172913   6.703   3.840   0.118 -1.7137  1.7110  0.8331
17166TIP3    H272914   6.737   3.717   0.200  1.1475 -0.0002 -2.6205
17167TIP3   OH272915   5.688   3.239  14.570 -0.3980 -0.2240  0.2548
17167TIP3    H172916   5.778   3.273  14.571 -0.7584  0.7687  0.6104
17167TIP3    H272917   5.691   3.164  14.512  1.0643 -1.3477  1.7029
17168TIP3   OH272918   5.444   2.523  13.162  0.1092 -0.0841 -0.0138
17168TIP3    H172919   5.539   2.535  13.159 -0.0188  0.7942 -0.8965
17168TIP3    H272920   5.430   2.437  13.121  0.3537  0.9076 -2.3044
17169TIP3   OH272921   1.540   4.577  11.079 -0.4062  0.2317 -0.4062
17169TIP3    H172922   1.578   4.572  10.991 -2.4629 -1.2111 -1.3103
17169TIP3    H272923   1.533   4.486  11.107  0.9231  0.7083  1.6254
17170TIP3   OH272924   4.233   4.495  11.761 -0.3122 -0.6559  0.2283
17170TIP3    H172925   4.306   4.546  11.796  0.8394  0.4221 -3.3341
17170TIP3    H272926   4.159   4.556  11.760  0.3899  0.2271 -1.6365
17171TIP3   OH272927   2.779   6.096   0.649 -0.3842 -0.6508 -0.1628
17171TIP3    H172928   2.871   6.120   0.662 -0.7067  0.4271  0.2864
17171TIP3    H272929   2.754   6.051   0.730 -0.1708 -1.2203 -0.4120
17172TIP3   OH272930   5.694   6.048   0.699 -0.1807 -0.1604 -0.0618
17172TIP3    H172931   5.776   6.027   0.654 -0.3400 -1.0924  0.0597
17172TIP3    H272932   5.720   6.071   0.788 -0.1121 -1.4556  0.2766
17173TIP3   OH272933   6.115   0.984   1.812 -0.2849 -0.1822 -0.3362
17173TIP3    H172934   6.109   0.943   1.899  1.2074 -0.3771 -0.3006
17173TIP3    H272935   6.183   1.051   1.821  1.7175 -1.8399 -1.9172
17174TIP3   OH272936   2.848   5.290  12.237 -0.0221  0.1781  0.1731
17174TIP3    H172937   2.825   5.312  12.328  0.4068  0.0447  0.3137
17174TIP3    H272938   2.864   5.195  12.239  0.8894  0.3292  0.1473
17175TIP3   OH272939   6.104   3.868  12.282 -0.0776  0.2306  0.0910
17175TIP3    H172940   6.085   3.807  12.353  0.8026 -0.4681 -0.2652
17175TIP3    H272941   6.180   3.917  12.313  0.0582  0.2033 -0.2036
17176TIP3   OH272942   1.369   6.668  12.006  0.0725 -0.3555  0.6121
17176TIP3    H172943   1.353   6.762  11.999 -1.4318 -0.4194  2.3265
17176TIP3    H272944   1.430   6.659  12.079 -0.1526 -0.7278  0.7588
17177TIP3   OH272945   2.232   2.954  16.202 -0.0222 -0.3864  0.5053
17177TIP3    H172946   2.321   2.927  16.225  0.6489 -0.5676 -1.9387
17177TIP3    H272947   2.226   2.934  16.108 -1.2123  3.3502 -0.3477
17178TIP3   OH272948   5.349   4.817   4.100 -0.4644  0.5747  0.0428
17178TIP3    H172949   5.374   4.763   4.025 -0.2599  1.4837 -0.5517
17178TIP3    H272950   5.399   4.898   4.090  0.0143  0.4878  1.4822
17179TIP3   OH272951   6.261   3.666  15.996  0.3816  0.1535  0.1108
17179TIP3    H172952   6.186   3.719  16.024  0.3739  0.1895  0.0231
17179TIP3    H272953   6.298   3.632  16.078 -0.0664 -0.3224  0.1211
17180TIP3   OH272954   2.134   5.002   4.819 -0.0162  0.3836 -0.0908
17180TIP3    H172955   2.163   5.007   4.910 -1.3089  0.3845  0.3433
17180TIP3    H272956   2.120   5.093   4.793 -2.3340  0.3040  0.6523
17181TIP3   OH272957   5.465   3.787   2.261  0.0011 -0.2564  0.1088
17181TIP3    H172958   5.560   3.775   2.259  0.0232 -0.1653  0.4865
17181TIP3    H272959   5.437   3.778   2.170  0.5469  1.1208 -0.2221
17182TIP3   OH272960   2.136   5.476  16.569  0.0683  0.8257 -0.0945
17182TIP3    H172961   2.070   5.474  16.638  0.1689  1.0215  0.0101
17182TIP3    H272962   2.217   5.451  16.613 -0.2857 -1.4769 -0.6429
17183TIP3   OH272963   5.912   0.099   1.419  0.4677  0.2880  0.0124
17183TIP3    H172964   5.932   0.192   1.434  0.3831  0.2090  0.6647
17183TIP3    H272965   5.952   0.080   1.334 -0.4750  1.1970 -0.6647
17184TIP3   OH272966   1.502   5.191   1.459 -0.1274  0.1224  0.0859
17184TIP3    H172967   1.576   5.142   1.423  0.2489 -0.4538  1.5715
17184TIP3    H272968   1.542   5.267   1.501 -0.3583 -0.1998  0.9075
17185TIP3   OH272969   5.736   6.680   2.577 -0.0437 -0.1445  0.0559
17185TIP3    H172970   5.755   6.625   2.653  1.3372  0.0533 -0.1231
17185TIP3    H272971   5.763   6.626   2.502  0.8599  0.5758 -0.1500
17186TIP3   OH272972   2.217   6.198  16.724 -0.1435 -0.1836 -0.4042
17186TIP3    H172973   2.137   6.250  16.737 -0.4458 -0.7494  0.0635
17186TIP3    H272974   2.210   6.166  16.634 -0.4486 -0.2302 -0.3647
17187TIP3   OH272975   0.310   2.089  10.439 -0.0031  0.0214 -0.6805
17187TIP3    H172976   0.277   2.177  10.460 -0.7869 -0.4667  0.1652
17187TIP3    H272977   0.243   2.052  10.381 -0.8743 -0.8908  0.8636
17188TIP3   OH272978   0.454   2.218   0.122  0.5018 -0.4154  0.8178
17188TIP3    H172979   0.502   2.300   0.123  0.2780 -0.2852  0.9605
17188TIP3    H272980   0.416   2.213   0.034  1.4059 -0.8902  0.4422
17189TIP3   OH272981   4.720   0.827   3.007  0.1046  0.1256  0.3427
17189TIP3    H172982   4.719   0.869   3.093 -0.9574  1.8624 -0.4550
17189TIP3    H272983   4.799   0.861   2.965 -1.0066  1.8322 -0.4841
17190TIP3   OH272984   3.499   6.729  16.838 -0.1699 -0.5940  0.7947
17190TIP3    H172985   3.418   6.702  16.794  0.0929 -0.6195  0.3149
17190TIP3    H272986   3.568   6.701  16.779  0.1542  0.2110  0.7764
17191TIP3   OH272987   0.116   0.965   0.060  0.3238  0.2871  0.4001
17191TIP3    H172988   0.148   1.052   0.038  1.3251 -0.2451 -0.3612
17191TIP3    H272989   0.063   0.939  -0.015  0.5383  0.0006  0.3458
17192TIP3   OH272990   6.158   1.482  13.808  0.2586  0.3473  0.1419
17192TIP3    H172991   6.222   1.473  13.879  1.2926  1.7443 -0.5429
17192TIP3    H272992   6.095   1.546  13.841 -0.5641 -0.7079  0.6525
17193TIP3   OH272993   6.037   3.391   4.697  0.3083  0.5081 -0.4243
17193TIP3    H172994   5.957   3.355   4.735  0.9972 -1.0932 -0.3864
17193TIP3    H272995   6.030   3.371   4.604  0.2622  1.1646 -0.5628
17194TIP3   OH272996   4.752   5.823   5.501 -0.7112  0.3988 -0.4643
17194TIP3    H172997   4.742   5.915   5.526 -1.2184 -0.0369  1.0678
17194TIP3    H272998   4.847   5.810   5.493 -0.0722 -0.0985  4.4994
17195TIP3   OH272999   3.816   4.212  17.163  0.3573  0.0485 -0.0962
17195TIP3    H173000   3.851   4.166  17.239  0.3414 -0.7400 -0.5521
17195TIP3    H273001   3.723   4.222  17.181  0.4132  0.1531  0.1331
17196TIP3   OH273002   5.764   5.151   2.954  0.1041 -0.6999  0.0775
17196TIP3    H173003   5.761   5.142   2.858  1.2696  0.2382 -0.0684
17196TIP3    H273004   5.851   5.121   2.978  0.4173  0.6183  0.6511
17197TIP3   OH273005   1.281   1.979   5.303 -0.0340  0.3042  0.1706
17197TIP3    H173006   1.346   1.923   5.260 -0.8264  0.6505 -1.5507
17197TIP3    H273007   1.329   2.059   5.325  0.3074  0.2481 -0.3650
17198TIP3   OH273008   5.001   1.562   0.751  0.0814  0.3487  0.2660
17198TIP3    H173009   5.086   1.523   0.730 -0.7957 -1.4980 -0.1101
17198TIP3    H273010   4.968   1.508   0.823 -0.5373  1.4249  0.8157
17199TIP3   OH273011   1.233   5.270  10.628 -0.2802 -0.2875 -0.1410
17199TIP3    H173012   1.290   5.333  10.672  0.7581 -1.9394  0.9538
17199TIP3    H273013   1.158   5.259  10.687  0.2351 -1.1405  0.3645
17200TIP3   OH273014   1.756   4.585  11.425 -0.5352  0.0278 -0.5306
17200TIP3    H173015   1.823   4.542  11.372  0.1489 -0.2804  0.5707
17200TIP3    H273016   1.801   4.658  11.466 -1.4659  1.3105 -1.6621
17201TIP3   OH273017   6.181   3.760   2.396  0.7089  0.6811  0.0490
17201TIP3    H173018   6.147   3.696   2.459  0.1572  1.7124  0.8289
17201TIP3    H273019   6.256   3.716   2.356 -1.8604 -1.9834 -2.2767
17202TIP3   OH273020   5.967   3.453  16.812  0.2650 -0.3302 -0.3989
17202TIP3    H173021   6.051   3.493  16.836  1.0799 -1.7023 -0.8645
17202TIP3    H273022   5.914   3.526  16.778  2.3640  0.0959 -3.0427
17203TIP3   OH273023   1.719   5.135  12.313  0.3122  0.2514  0.6152
17203TIP3    H173024   1.742   5.071  12.381  0.5558  2.0452  2.3314
17203TIP3    H273025   1.774   5.113  12.239 -1.9936 -3.5864 -0.1808
17204TIP3   OH273026   3.366   1.140  10.649  0.0379 -0.2795  0.0677
17204TIP3    H173027   3.319   1.073  10.698 -0.1785 -0.9734 -1.0556
17204TIP3    H273028   3.303   1.211  10.637 -0.5720 -0.9860 -0.9868
17205TIP3   OH273029   1.172   6.234  13.460 -0.3172 -0.3844  0.7303
17205TIP3    H173030   1.155   6.325  13.437 -2.5264 -0.5545  1.5078
17205TIP3    H273031   1.255   6.213  13.416 -0.0993  1.7839  0.0193
17206TIP3   OH273032   2.482   2.667  14.695 -0.1545 -0.5226 -0.1200
17206TIP3    H173033   2.422   2.653  14.622  0.3356  1.5458 -0.9702
17206TIP3    H273034   2.442   2.619  14.768 -1.5267 -1.2333 -1.2947
17207TIP3   OH273035   3.617   0.083  15.992  0.7686  0.0388  0.3893
17207TIP3    H173036   3.678   0.009  15.985  3.2925  2.0904 -1.4051
17207TIP3    H273037   3.622   0.126  15.906 -0.8491  2.1090  1.2418
17208TIP3   OH273038   1.227   2.512  10.902  0.1235  0.4260  0.3263
17208TIP3    H173039   1.285   2.503  10.977  2.1552  0.4993 -1.1447
17208TIP3    H273040   1.161   2.576  10.930 -0.2329 -0.8647  2.5989
17209TIP3   OH273041   4.244   6.508   1.412 -0.0659 -0.3471 -0.8830
17209TIP3    H173042   4.312   6.488   1.476  0.1756  0.0550 -1.0069
17209TIP3    H273043   4.162   6.487   1.457  0.0248  1.0673  0.0182
17210TIP3   OH273044   4.662   5.698  10.618  0.3179 -0.5666  0.0670
17210TIP3    H173045   4.720   5.643  10.671 -0.0330 -0.8924  0.1220
17210TIP3    H273046   4.614   5.635  10.564 -0.1069 -0.3158  0.1486
17211TIP3   OH273047   5.388   4.160   0.904 -0.2997 -0.2583  0.4433
17211TIP3    H173048   5.309   4.195   0.944 -0.6871 -0.3340 -0.2537
17211TIP3    H273049   5.436   4.120   0.977 -0.8432 -0.1088  0.8873
17212TIP3   OH273050   3.259   6.708   0.498  0.1436  0.0729  0.2678
17212TIP3    H173051   3.247   6.785   0.443  1.2238  0.3430  0.3893
17212TIP3    H273052   3.263   6.635   0.435 -2.2112 -0.0861  0.2318
17213TIP3   OH273053   4.360   1.742   0.292 -0.1893  0.4478  0.3873
17213TIP3    H173054   4.373   1.765   0.200 -1.7891  1.0911  0.2923
17213TIP3    H273055   4.307   1.662   0.290 -3.8658  2.6544  0.6323
17214TIP3   OH273056   5.318   0.270   0.046 -0.7393 -0.7025  0.7309
17214TIP3    H173057   5.361   0.337  -0.006  0.4044 -2.2244 -0.3533
17214TIP3    H273058   5.327   0.300   0.137 -0.8795  0.9169  0.2313
17215TIP3   OH273059   4.076   0.021  14.510 -0.5313  0.3212 -0.4797
17215TIP3    H173060   4.107   0.038  14.421 -0.2563 -0.1642 -0.4824
17215TIP3    H273061   4.008  -0.045  14.500 -0.8786  0.6549 -0.3750
17216TIP3   OH273062   2.416   4.009   3.919 -0.2873  0.0311  0.3529
17216TIP3    H173063   2.386   4.052   3.999 -0.8341 -0.9042  0.6645
17216TIP3    H273064   2.434   3.919   3.946  2.0388  0.3216 -0.0043
17217TIP3   OH273065   0.967   3.479   3.190 -0.7620 -0.0988 -0.0761
17217TIP3    H173066   1.041   3.427   3.222  0.2249  0.4410 -1.3619
17217TIP3    H273067   0.895   3.416   3.184  0.6127 -1.6274 -2.4157
17218TIP3   OH273068   4.350   1.216   6.515  0.4540  0.0317 -0.0877
17218TIP3    H173069   4.302   1.147   6.561  1.7286 -0.4535  0.5570
17218TIP3    H273070   4.439   1.210   6.549  0.5013  2.3253  0.3551
17219TIP3   OH273071   0.051   4.315  16.467 -0.7225 -0.1745  0.0476
17219TIP3    H173072   0.111   4.266  16.523 -0.1161  0.6944  0.1702
17219TIP3    H273073   0.071   4.407  16.484 -2.9541  0.2064  1.0564
17220TIP3   OH273074   1.815   6.361  10.397 -0.0120  0.4122  0.1738
17220TIP3    H173075   1.787   6.415  10.471 -1.1436 -0.3835  0.3552
17220TIP3    H273076   1.875   6.297  10.435  0.7771  1.0906  0.0832
17221TIP3   OH273077   5.523   4.500  16.123  0.1192 -0.0895 -0.1902
17221TIP3    H173078   5.428   4.492  16.127  0.2105 -2.0460 -0.8642
17221TIP3    H273079   5.555   4.409  16.123  2.0243  0.5193  0.7978
17222TIP3   OH273080   0.184   0.081   2.526 -0.0775  0.1749 -0.2174
17222TIP3    H173081   0.244   0.124   2.465  1.7108  0.9352  1.9270
17222TIP3    H273082   0.239   0.022   2.577 -1.2782  0.2657  1.2741
17223TIP3   OH273083   1.556   0.716  15.048 -0.0918  0.4177 -0.3129
17223TIP3    H173084   1.500   0.680  14.980 -0.3100  1.0411 -0.4761
17223TIP3    H273085   1.506   0.706  15.129  0.0628 -0.1008 -0.2827
17224TIP3   OH273086   1.486   4.227  16.062  0.0443 -0.2954  0.1494
17224TIP3    H173087   1.491   4.308  16.012 -0.2927 -0.1405  0.3596
17224TIP3    H273088   1.533   4.162  16.010 -1.4835 -0.4977 -1.0709
17225TIP3   OH273089   4.465   6.476   1.575  0.2854  0.2077 -0.6339
17225TIP3    H173090   4.456   6.513   1.663 -1.9484 -1.8049  0.0928
17225TIP3    H273091   4.512   6.394   1.588 -0.2203 -0.1951 -1.2574
17226TIP3   OH273092   5.929   3.395   6.440 -0.3201  0.2500  0.0510
17226TIP3    H173093   6.019   3.424   6.454 -0.2714  1.8446 -2.7631
17226TIP3    H273094   5.879   3.477   6.437 -1.2895 -0.3645 -1.6879
17227TIP3   OH273095   2.958   5.603   0.275  0.3104 -0.7305 -0.1480
17227TIP3    H173096   2.882   5.584   0.329 -0.6775  1.5305 -0.6342
17227TIP3    H273097   2.938   5.565   0.190 -0.8342  0.7841 -0.5970
17228TIP3   OH273098   5.454   0.285   5.800  0.6504  0.1040 -0.8781
17228TIP3    H173099   5.486   0.332   5.723  2.1030 -1.1947 -1.1423
17228TIP3    H273100   5.534   0.265   5.849 -0.1728  0.0881  0.4850
17229TIP3   OH273101   5.824   1.242   1.608 -0.0675 -0.2258 -0.5307
17229TIP3    H173102   5.853   1.185   1.537  0.2285 -1.8592  0.8088
17229TIP3    H273103   5.895   1.305   1.618  0.8026 -1.1697 -0.4839
17230TIP3   OH273104   5.217   3.360  14.216 -0.8858 -0.0506 -0.3604
17230TIP3    H173105   5.238   3.441  14.170  1.1208 -0.7813 -0.8584
17230TIP3    H273106   5.198   3.297  14.147 -1.5226 -0.2327 -0.0207
17231TIP3   OH273107   3.635   0.967  12.341 -0.2069  0.0610  0.4035
17231TIP3    H173108   3.598   1.037  12.396  1.8932  1.2873  0.3889
17231TIP3    H273109   3.682   0.911  12.403 -0.0870 -0.0994  0.1695
17232TIP3   OH273110   0.413   3.585   0.581 -0.2155  0.7881  0.0172
17232TIP3    H173111   0.429   3.557   0.671 -0.4616  2.1595  0.5147
17232TIP3    H273112   0.449   3.674   0.577 -0.8242  1.0034 -1.0432
17233TIP3   OH273113   6.636   5.786  12.357  0.5196  0.4900 -0.0606
17233TIP3    H173114   6.588   5.854  12.405 -1.3431 -1.3643  0.8465
17233TIP3    H273115   6.580   5.765  12.282  1.2080  0.1177 -0.4826
17234TIP3   OH273116   2.647   5.853   4.049  0.2107  0.2236  0.1250
17234TIP3    H173117   2.580   5.921   4.045  2.2305  2.2586 -1.9800
17234TIP3    H273118   2.602   5.773   4.023 -1.7958  1.1149  0.6798
17235TIP3   OH273119   1.102   2.100   1.653 -0.4312  0.3179 -0.0274
17235TIP3    H173120   1.198   2.100   1.657 -0.4276 -1.8097  1.3868
17235TIP3    H273121   1.080   2.190   1.630  1.9542  0.1955 -3.7033
17236TIP3   OH273122   2.720   5.786   4.791 -1.1092 -0.1546  0.1597
17236TIP3    H173123   2.747   5.697   4.771 -3.0427 -0.3607 -1.9091
17236TIP3    H273124   2.734   5.834   4.709  0.1168  1.5599  1.2823
17237TIP3   OH273125   2.947   0.422  12.367  0.0406  0.4918  0.3892
17237TIP3    H173126   3.019   0.358  12.371 -0.5112 -0.2052 -0.4924
17237TIP3    H273127   2.979   0.490  12.308 -0.7223 -0.7799 -1.5866
17238TIP3   OH273128   3.349   6.732   4.262  0.1156 -0.0350  0.0368
17238TIP3    H173129   3.404   6.757   4.187 -1.8892  0.4613 -1.3533
17238TIP3    H273130   3.345   6.637   4.258  0.3460 -0.0356 -0.2463
17239TIP3   OH273131   1.150   5.329   5.449  0.3615 -0.4833  0.1922
17239TIP3    H173132   1.204   5.292   5.519  1.8069  0.1063 -0.5762
17239TIP3    H273133   1.210   5.385   5.399 -1.4488  2.0136  0.6265
17240TIP3   OH273134   1.073   5.179   0.603 -0.7672 -0.4379  0.3922
17240TIP3    H173135   1.133   5.201   0.531  0.6457 -3.5537  0.4671
17240TIP3    H273136   0.998   5.138   0.559 -2.5687  2.5220  0.3916
17241TIP3   OH273137   1.175   4.881   1.667  0.6025 -0.0452  0.2328
17241TIP3    H173138   1.191   4.878   1.762 -0.6528 -1.3408  0.4458
17241TIP3    H273139   1.082   4.902   1.660  0.5830 -0.4218 -0.7108
17242TIP3   OH273140   2.886   0.863  17.016 -0.0278  0.0890  0.0775
17242TIP3    H173141   2.981   0.856  17.027  0.1346  1.4367 -0.2288
17242TIP3    H273142   2.872   0.956  16.998 -1.2618 -0.3356 -1.3380
17243TIP3   OH273143   4.902   6.728   4.197 -0.0466 -0.0506 -0.2861
17243TIP3    H173144   4.889   6.760   4.286 -1.3216  0.4175 -0.6169
17243TIP3    H273145   4.817   6.692   4.172  0.2152  0.0854 -1.4155
17244TIP3   OH273146   0.622   1.302  15.081 -0.1335  0.1790  0.2352
17244TIP3    H173147   0.553   1.343  15.029  0.1417  0.4424  0.0737
17244TIP3    H273148   0.577   1.269  15.159 -0.8725 -1.8129 -0.9790
17245TIP3   OH273149   1.296   2.356   3.507 -0.1705 -0.0976  0.3743
17245TIP3    H173150   1.358   2.284   3.499 -0.4981 -0.2072 -1.6894
17245TIP3    H273151   1.338   2.429   3.463 -0.1549  0.8070  1.8071
17246TIP3   OH273152   6.595   4.939   3.756  0.0444 -0.1336  0.6984
17246TIP3    H173153   6.656   4.915   3.826  0.3422  0.4805  0.6510
17246TIP3    H273154   6.625   5.025   3.726 -0.1267 -0.3524 -0.1283
17247TIP3   OH273155   4.705   2.023  13.940 -0.3498 -0.6727  0.1543
17247TIP3    H173156   4.621   1.981  13.922  0.1084 -2.0368  1.0084
17247TIP3    H273157   4.770   1.953  13.930  0.5620  0.0885  0.5667
17248TIP3   OH273158   5.190   0.532   5.162 -0.6513  0.1119 -0.4060
17248TIP3    H173159   5.133   0.456   5.155  0.0024 -0.3191 -1.1410
17248TIP3    H273160   5.274   0.497   5.193  0.0293  0.3189 -1.9019
17249TIP3   OH273161   2.561   6.204  11.084  0.0450  0.3111  0.2078
17249TIP3    H173162   2.650   6.175  11.063 -0.2545 -2.7163  2.4889
17249TIP3    H273163   2.572   6.263  11.158  0.2147  1.0241 -0.3747
17250TIP3   OH273164   3.668   4.951  13.519 -0.2126 -0.3743 -0.8164
17250TIP3    H173165   3.589   4.996  13.551 -0.0480 -0.7091  0.1015
17250TIP3    H273166   3.637   4.896  13.448 -1.2201 -2.0561  0.8342
17251TIP3   OH273167   4.081   3.474   3.667 -0.1172 -0.4675  0.2001
17251TIP3    H173168   4.025   3.402   3.695 -0.2902 -0.3643  0.1257
17251TIP3    H273169   4.074   3.539   3.737  0.8568 -0.9539  0.7589
17252TIP3   OH273170   2.827   3.281   3.083  0.5028 -0.1865 -0.4486
17252TIP3    H173171   2.777   3.212   3.125  0.5521 -0.3600 -0.6685
17252TIP3    H273172   2.816   3.265   2.989  3.1577 -1.8996 -0.5701
17253TIP3   OH273173   4.749   1.195   3.121 -0.1672  0.3014  0.3598
17253TIP3    H173174   4.672   1.148   3.089  0.0184 -0.3752  0.8778
17253TIP3    H273175   4.801   1.212   3.043 -0.2884 -0.2687  0.1482
17254TIP3   OH273176   5.853   4.465  11.955  0.7886  0.1511 -0.0171
17254TIP3    H173177   5.816   4.415  12.028 -0.1129 -0.5675 -0.9245
17254TIP3    H273178   5.835   4.556  11.977 -0.4460 -0.1159  0.1710
17255TIP3   OH273179   5.348   4.154  13.217  0.7441  0.0159  0.0737
17255TIP3    H173180   5.340   4.076  13.272  0.2394  0.5393  0.7539
17255TIP3    H273181   5.442   4.159  13.196  1.0345  0.1012  1.3293
17256TIP3   OH273182   3.598   4.903   3.464  0.0234 -0.4107 -0.5404
17256TIP3    H173183   3.555   4.966   3.522  0.3441 -1.9382  1.4615
17256TIP3    H273184   3.536   4.831   3.456  0.6553 -0.9439 -0.7346
17257TIP3   OH273185   1.896   5.366   4.863  0.2009  0.4330 -0.0470
17257TIP3    H173186   1.903   5.377   4.769 -0.8080  2.1991  0.0469
17257TIP3    H273187   1.802   5.368   4.881  0.4038  0.8616  1.0570
17258TIP3   OH273188   0.123   2.838  10.496  0.1358 -0.0392 -0.7959
17258TIP3    H173189   0.102   2.910  10.556  0.7498 -0.3530 -0.1875
17258TIP3    H273190   0.112   2.759  10.550  0.6657 -0.3267 -1.1077
17259TIP3   OH273191   5.601   4.014  11.135 -0.7453  0.1717  0.7220
17259TIP3    H173192   5.577   4.001  11.044  0.3479 -1.8888  0.6700
17259TIP3    H273193   5.519   4.035  11.179 -1.3161  0.9981 -0.6716
17260TIP3   OH273194   5.247   2.239  17.100  0.0350 -0.4242 -0.4106
17260TIP3    H173195   5.250   2.335  17.102  0.1516 -0.3940 -1.3667
17260TIP3    H273196   5.154   2.219  17.087 -0.5846 -0.5783  3.2820
17261TIP3   OH273197   6.617   2.949  10.619  0.1114  0.6556  0.5317
17261TIP3    H173198   6.695   2.999  10.642 -0.3159  2.2196 -1.2111
17261TIP3    H273199   6.631   2.922  10.528 -0.3509 -1.1288  0.9499
17262TIP3   OH273200   6.630   4.511   0.869 -0.2183 -0.1431 -0.0933
17262TIP3    H173201   6.625   4.534   0.776 -0.4828  1.6394  0.3282
17262TIP3    H273202   6.719   4.479   0.880  0.0478  0.3053 -0.8262
17263TIP3   OH273203   2.309   5.776  14.094  0.2068 -0.5125  0.1321
17263TIP3    H173204   2.291   5.867  14.116  1.9603 -0.0245 -0.3039
17263TIP3    H273205   2.234   5.728  14.129  0.4178  0.7843  2.6127
17264TIP3   OH273206   5.815   0.361  11.962  0.0602 -0.2572  0.3664
17264TIP3    H173207   5.839   0.293  11.898 -0.3726  0.5703 -0.7102
17264TIP3    H273208   5.895   0.375  12.013  0.0047 -1.9438  0.9815
17265TIP3   OH273209   5.685   0.947   2.434 -0.0210 -0.5834  0.1064
17265TIP3    H173210   5.627   0.987   2.368  0.3621 -0.6092 -0.2483
17265TIP3    H273211   5.649   0.976   2.518 -0.3463 -0.3167 -0.1224
17266TIP3   OH273212   0.923   1.109   4.496  0.2410  0.1702 -0.1701
17266TIP3    H173213   0.886   1.179   4.441  1.6628  1.1591  0.0783
17266TIP3    H273214   0.863   1.103   4.571  0.3147  1.4362  0.0130
17267TIP3   OH273215   3.397   1.371   4.504  0.6240 -0.4154 -0.4729
17267TIP3    H173216   3.314   1.417   4.516  1.5957  1.2681  0.2712
17267TIP3    H273217   3.374   1.278   4.508 -1.3065 -0.0108 -1.0886
17268TIP3   OH273218   5.906   5.082   1.748 -0.2509 -0.4197 -0.1814
17268TIP3    H173219   5.887   4.988   1.752  1.1721 -0.8416 -2.0031
17268TIP3    H273220   5.969   5.097   1.819 -1.8602 -0.4191  1.3100
17269TIP3   OH273221   5.202   6.485  11.915 -0.0626 -0.4794 -0.0670
17269TIP3    H173222   5.150   6.461  11.992 -1.1113  0.5510 -0.4146
17269TIP3    H273223   5.257   6.557  11.944 -0.5327 -0.0225 -0.2969
17270TIP3   OH273224   5.045   4.027  11.750 -0.0102  0.1958 -0.2801
17270TIP3    H173225   4.970   4.055  11.803 -0.0223  0.4860 -0.4465
17270TIP3    H273226   5.100   3.977  11.811 -1.8800 -2.8563 -0.8763
17271TIP3   OH273227   4.919   3.124  14.845  0.2187 -0.5407  0.0346
17271TIP3    H173228   4.858   3.051  14.842  1.8581 -1.9312 -1.5739
17271TIP3    H273229   4.997   3.089  14.888  1.1719  0.1079 -1.0818
17272TIP3   OH273230   3.003   6.583   0.356 -0.3489  0.0464 -0.0069
17272TIP3    H173231   2.975   6.513   0.415  2.0651  0.5555  1.9329
17272TIP3    H273232   2.969   6.663   0.396 -0.1830  0.2499 -0.2700
17273TIP3   OH273233   5.666   0.884   3.622 -0.3471 -0.2758  1.0166
17273TIP3    H173234   5.657   0.800   3.578 -0.8210 -0.0323  0.6316
17273TIP3    H273235   5.629   0.870   3.709 -0.9300 -0.3281  0.7670
17274TIP3   OH273236   3.828   1.556   1.290  0.0102 -0.3836 -0.4687
17274TIP3    H173237   3.741   1.574   1.254  0.5894  2.7101 -0.5663
17274TIP3    H273238   3.887   1.607   1.236  1.7860 -1.4024  0.4149
17275TIP3   OH273239   2.034   0.070   2.543  0.2894 -0.0338  0.2371
17275TIP3    H173240   2.114   0.025   2.568 -0.2794 -0.7109  0.8829
17275TIP3    H273241   2.002   0.110   2.625  0.5939  1.2438 -0.2499
17276TIP3   OH273242   0.653   2.749   2.172  0.2073 -0.1443 -0.3732
17276TIP3    H173243   0.621   2.668   2.212  0.8348 -0.4948 -0.5754
17276TIP3    H273244   0.664   2.809   2.245 -2.3022  0.4987 -0.4125
17277TIP3   OH273245   6.505   4.402   5.454 -0.6482  0.4869 -0.4929
17277TIP3    H173246   6.543   4.346   5.386  0.5004 -1.1289  1.3863
17277TIP3    H273247   6.415   4.370   5.463 -0.2074 -0.6560  0.0876
17278TIP3   OH273248   3.876   0.661   2.591  0.4002  0.2230 -0.2771
17278TIP3    H173249   3.869   0.745   2.546  3.9402 -0.0972 -1.7084
17278TIP3    H273250   3.855   0.596   2.524  0.1701 -0.1104  0.1123
17279TIP3   OH273251   4.656   3.884  14.409 -0.0536 -0.4631  0.2068
17279TIP3    H173252   4.619   3.951  14.352  0.6016 -0.6103 -0.4174
17279TIP3    H273253   4.635   3.801  14.365 -0.0017 -0.6068  0.4509
17280TIP3   OH273254   5.930   5.501   2.336 -0.0752 -0.4778  0.0687
17280TIP3    H173255   5.893   5.576   2.382  0.6582 -0.0035 -0.0941
17280TIP3    H273256   5.854   5.454   2.303 -0.7730 -1.9426  3.3632
17281TIP3   OH273257   2.696   4.620  16.920 -0.4414 -0.0742 -0.0375
17281TIP3    H173258   2.682   4.527  16.938  0.5259 -0.5553 -1.6431
17281TIP3    H273259   2.789   4.634  16.937 -0.9402  1.1060  2.1195
17282TIP3   OH273260   1.594   0.280   4.054 -0.4946 -0.1876  0.6779
17282TIP3    H173261   1.566   0.310   4.140 -0.2737  2.0766  0.0285
17282TIP3    H273262   1.512   0.263   4.007 -0.6892  0.7631  0.6448
17283TIP3   OH273263   1.726   0.843   1.025 -0.3525  0.6031  0.2955
17283TIP3    H173264   1.802   0.872   0.975 -0.2728  0.4673  0.3351
17283TIP3    H273265   1.761   0.773   1.081 -0.4933  0.5853  0.3596
17284TIP3   OH273266   1.558   6.519  12.158 -0.0417 -0.2958  0.1666
17284TIP3    H173267   1.585   6.502  12.068 -3.3049 -0.8778 -0.8378
17284TIP3    H273268   1.583   6.439  12.206  0.5626 -0.5181 -0.5023
17285TIP3   OH273269   3.811   1.149   1.079  0.4315 -0.0928 -0.3935
17285TIP3    H173270   3.733   1.150   1.134 -0.2186 -0.4483 -1.2884
17285TIP3    H273271   3.881   1.117   1.136 -0.0803  0.1807  0.3994
17286TIP3   OH273272   6.342   5.171   1.386  0.0825 -0.4563 -0.3224
17286TIP3    H173273   6.385   5.120   1.317  1.6462 -0.5502  0.6605
17286TIP3    H273274   6.415   5.212   1.434 -1.0264  0.6355  0.4801
17287TIP3   OH273275   5.321   1.318  11.297 -0.1773 -0.0749  0.5340
17287TIP3    H173276   5.397   1.350  11.250 -1.1882 -0.1781 -1.2373
17287TIP3    H273277   5.329   1.222  11.293 -1.0803 -0.1128 -0.8707
17288TIP3   OH273278   0.184   4.232  12.749 -0.4656  0.0951 -0.5322
17288TIP3    H173279   0.195   4.309  12.693  0.6281  0.1013 -0.3273
17288TIP3    H273280   0.184   4.268  12.838  1.0760 -0.2140 -0.3785
17289TIP3   OH273281   0.409   4.025  15.575  0.2203  0.5950 -0.3930
17289TIP3    H173282   0.377   4.048  15.488  0.1799  0.2108 -0.4847
17289TIP3    H273283   0.395   4.103  15.628 -1.1704  0.3452 -0.3469
17290TIP3   OH273284   0.246   1.221   5.891 -0.5769  0.0317  0.1398
17290TIP3    H173285   0.222   1.168   5.967 -2.4615  2.0608  1.0535
17290TIP3    H273286   0.180   1.202   5.825  0.2511 -0.6647 -0.5225
17291TIP3   OH273287   2.687   3.989  12.292  0.1948 -0.6551  0.4836
17291TIP3    H173288   2.671   4.051  12.221  1.5716  0.4691  1.1159
17291TIP3    H273289   2.658   3.904  12.257 -0.4953  0.1140 -0.8714
17292TIP3   OH273290   0.896   0.671  14.438 -0.0300  0.4018 -0.0187
17292TIP3    H173291   0.968   0.670  14.501 -0.9819  2.9591  1.2204
17292TIP3    H273292   0.939   0.684  14.354  1.0974 -0.6858  0.3396
17293TIP3   OH273293   2.128   0.885   0.417 -0.1712 -0.1644  0.5296
17293TIP3    H173294   2.224   0.889   0.413 -0.1247 -0.7226  0.9960
17293TIP3    H273295   2.108   0.795   0.391 -0.6224  0.1985 -0.4159
17294TIP3   OH273296   0.126   4.649  13.235  0.3861  0.7729 -0.1109
17294TIP3    H173297   0.060   4.592  13.197 -1.4603  0.4961  3.0950
17294TIP3    H273298   0.076   4.723  13.271  2.3277  2.6673 -1.0818
17295TIP3   OH273299   4.747   2.063  16.031  0.0816  0.1605 -0.3163
17295TIP3    H173300   4.712   2.152  16.040 -1.5503 -0.6634  3.4922
17295TIP3    H273301   4.813   2.070  15.961  1.0804  4.6806  0.7324
17296TIP3   OH273302   3.822   5.054   4.752 -0.8571 -0.0720 -0.1135
17296TIP3    H173303   3.730   5.079   4.753 -0.5252  1.2379  1.2948
17296TIP3    H273304   3.868   5.134   4.727  0.0042 -0.2183  0.9464
17297TIP3   OH273305   0.913   6.075  16.723  0.5298  0.2927  0.2044
17297TIP3    H173306   0.987   6.095  16.666  0.9108 -0.3586  0.4585
17297TIP3    H273307   0.837   6.114  16.678  0.7676 -0.5078 -0.9404
17298TIP3   OH273308   3.876   3.686  13.801  0.2812  0.3858  0.2563
17298TIP3    H173309   3.846   3.658  13.888 -1.6600  1.4942 -0.0068
17298TIP3    H273310   3.806   3.742  13.768  1.6383  1.1731 -1.4437
17299TIP3   OH273311   0.099   6.486  17.181  0.7387 -0.0485 -0.1163
17299TIP3    H173312   0.160   6.506  17.251  1.8838  2.8673 -1.7949
17299TIP3    H273313   0.086   6.569  17.134 -1.6866 -1.3498 -2.0428
17300TIP3   OH273314   5.274   4.475  15.024 -0.1578  0.5839  0.2429
17300TIP3    H173315   5.196   4.507  14.980  0.1312  2.2908  0.8928
17300TIP3    H273316   5.283   4.530  15.102  1.8776  0.6903  0.0003
17301TIP3   OH273317   0.275   4.861   5.637  0.3716 -0.2177 -0.1785
17301TIP3    H173318   0.264   4.825   5.549  0.5655 -0.4896 -0.0939
17301TIP3    H273319   0.234   4.947   5.633 -3.2613 -1.7336  0.5409
17302TIP3   OH273320   1.799   5.387  11.429  0.4411 -0.4722 -0.2331
17302TIP3    H173321   1.718   5.379  11.378 -0.2527 -0.7210  0.8614
17302TIP3    H273322   1.797   5.313  11.489  1.4159 -0.3885 -0.0815
17303TIP3   OH273323   5.651   4.231  16.956 -0.4036 -0.0561  0.5458
17303TIP3    H173324   5.734   4.246  17.002  1.9168 -0.2796 -3.2187
17303TIP3    H273325   5.615   4.319  16.944  0.0655  0.1866  0.8653
17304TIP3   OH273326   6.562   5.765   4.142 -0.1570 -0.4022 -0.2088
17304TIP3    H173327   6.625   5.697   4.167 -2.3645 -2.0109  1.4081
17304TIP3    H273328   6.616   5.834   4.102  2.7020 -1.3711  1.6113
17305TIP3   OH273329   5.970   0.490  16.776  0.8446 -0.9476  0.0577
17305TIP3    H173330   5.924   0.432  16.715 -0.1402 -0.4324  0.2830
17305TIP3    H273331   6.062   0.485  16.749  0.4557 -0.8121 -1.4328
17306TIP3   OH273332   0.535   4.538  16.930 -0.0235 -0.1363 -0.3955
17306TIP3    H173333   0.611   4.479  16.929 -0.2313 -0.4614  1.2302
17306TIP3    H273334   0.459   4.479  16.924 -0.1927  0.1714 -1.7070
17307TIP3   OH273335   3.910   5.838  11.960 -0.2129 -0.1279  0.2006
17307TIP3    H173336   3.987   5.784  11.945 -0.5810 -0.7695  0.6027
17307TIP3    H273337   3.939   5.927  11.937  0.9976 -0.1602  1.4195
17308TIP3   OH273338   0.291   4.228   5.901  0.1578 -0.0040 -0.1440
17308TIP3    H173339   0.285   4.317   5.936  0.2543  0.2944 -0.8710
17308TIP3    H273340   0.379   4.199   5.924  0.5498  0.5365 -0.9302
17309TIP3   OH273341   1.637   3.596  13.174 -0.4952 -0.3573 -0.0419
17309TIP3    H173342   1.591   3.588  13.257 -0.9953  0.9953 -0.1628
17309TIP3    H273343   1.723   3.632  13.196 -1.5743  2.6693 -0.2672
17310TIP3   OH273344   4.640   0.808  13.652 -0.5005  0.5321 -0.0413
17310TIP3    H173345   4.669   0.760  13.575 -0.3026 -0.3581  0.5698
17310TIP3    H273346   4.545   0.794  13.655 -0.9910  2.8915 -1.6645
17311TIP3   OH273347   6.049   3.824  13.124 -0.8282 -0.4421  0.2093
17311TIP3    H173348   6.034   3.916  13.103 -0.6420 -0.0765  1.6020
17311TIP3    H273349   6.115   3.825  13.193 -0.9598 -1.6184  0.3788
17312TIP3   OH273350   5.761   1.632   0.340 -0.2879 -0.6489  0.4718
17312TIP3    H173351   5.719   1.664   0.420  2.5193  0.1725  1.7213
17312TIP3    H273352   5.826   1.699   0.319 -0.5404 -1.1420 -2.2094
17313TIP3   OH273353   4.382   4.620   3.652  0.2804 -0.2072 -0.6126
17313TIP3    H173354   4.321   4.656   3.588  0.5075 -0.8839 -1.2177
17313TIP3    H273355   4.382   4.526   3.635 -0.1913 -0.5006  0.8445
17314TIP3   OH273356   6.011   0.125  14.116 -0.3293 -0.5083 -0.2754
17314TIP3    H173357   6.006   0.152  14.025  0.6843 -1.9673 -0.8095
17314TIP3    H273358   5.922   0.098  14.138 -1.1943  2.2955  0.0431
17315TIP3   OH273359   6.274   3.890   2.097 -0.2052  0.4200  0.1713
17315TIP3    H173360   6.356   3.844   2.112 -0.9368 -0.0164  3.7389
17315TIP3    H273361   6.206   3.824   2.111 -1.2466  1.0181 -1.6381
17316TIP3   OH273362   5.229   3.905   4.682  0.8164  0.0448 -0.2988
17316TIP3    H173363   5.170   3.902   4.757  1.1520 -0.8731 -0.0588
17316TIP3    H273364   5.267   3.817   4.678  1.5514  0.3819 -0.9412
17317TIP3   OH273365   1.448   6.139  14.228 -0.2697 -0.1717  0.0385
17317TIP3    H173366   1.519   6.099  14.177  1.2953  0.1931  1.7908
17317TIP3    H273367   1.454   6.233  14.207 -0.0393 -0.1078  0.3722
17318TIP3   OH273368   6.768   1.816   5.409  0.5231 -0.2200 -0.4422
17318TIP3    H173369   6.818   1.824   5.490 -0.2137  1.1215 -0.0898
17318TIP3    H273370   6.776   1.902   5.367  1.5334 -1.0989 -2.2125
17319TIP3   OH273371   6.366   3.527   2.211  0.3463  0.1080  0.3858
17319TIP3    H173372   6.403   3.605   2.170  2.5302 -0.1329  1.7190
17319TIP3    H273373   6.394   3.455   2.155 -1.6745  0.2196 -0.8477
17320TIP3   OH273374   4.705   4.682   5.496  0.0551 -0.3987 -0.3839
17320TIP3    H173375   4.649   4.611   5.467 -0.6237 -0.6715  1.4969
17320TIP3    H273376   4.645   4.749   5.528  0.7327  0.5045 -0.9332
17321TIP3   OH273377   5.008   3.510  15.723  0.1944 -0.1100 -0.0632
17321TIP3    H173378   5.088   3.497  15.774  0.2595 -0.2455 -0.2010
17321TIP3    H273379   5.035   3.562  15.648  0.4327 -1.3109 -0.8399
17322TIP3   OH273380   1.131   0.656  14.586  0.5146 -0.3724 -0.3112
17322TIP3    H173381   1.211   0.619  14.549  0.7959  0.3151 -0.3936
17322TIP3    H273382   1.160   0.709  14.660  0.0778 -0.6075  0.0424
17323TIP3   OH273383   0.659   4.194   2.028  0.4210 -0.8879  0.1922
17323TIP3    H173384   0.750   4.163   2.023  0.6992  0.0489 -1.0384
17323TIP3    H273385   0.662   4.282   1.990 -1.2788 -1.4293 -1.3225
17324TIP3   OH273386   6.405   6.327  15.086 -0.0451 -0.2927 -0.3188
17324TIP3    H173387   6.378   6.277  15.163 -0.7010 -0.6460 -0.7698
17324TIP3    H273388   6.488   6.368  15.112  1.0928 -2.4617 -0.3014
17325TIP3   OH273389   1.938   2.197  12.307  0.2230 -0.3614  0.3188
17325TIP3    H173390   1.932   2.118  12.361 -0.6126  0.0417  0.8410
17325TIP3    H273391   1.953   2.267  12.370  2.5841 -0.2619 -0.2615
17326TIP3   OH273392   4.921   5.183  14.022 -0.3674  0.4581 -0.1188
17326TIP3    H173393   4.883   5.248  14.080 -0.0452  0.1045  0.5084
17326TIP3    H273394   5.015   5.189  14.038 -0.3413 -0.2313  0.0385
17327TIP3   OH273395   0.022   2.666  15.392 -0.8070  0.3434 -0.2811
17327TIP3    H173396   0.025   2.696  15.483  0.3765  1.5120 -0.6775
17327TIP3    H273397  -0.070   2.678  15.366 -1.6559 -1.9154  1.3191
17328TIP3   OH273398   0.592   5.301   3.994 -0.6135 -0.0697  0.4788
17328TIP3    H173399   0.611   5.387   3.956 -0.3207  0.1621  1.1165
17328TIP3    H273400   0.531   5.260   3.934 -2.4045  1.4256  1.2043
17329TIP3   OH273401   1.536   2.554  10.752 -0.0765  0.2991 -0.2057
17329TIP3    H173402   1.613   2.582  10.801  0.7428 -1.6835 -0.2624
17329TIP3    H273403   1.543   2.600  10.668  0.1202  1.4115  0.3949
17330TIP3   OH273404   3.683   3.468  16.199  0.6726 -0.0196 -0.0168
17330TIP3    H173405   3.696   3.395  16.138 -0.8312  0.9260 -1.5654
17330TIP3    H273406   3.602   3.510  16.170  0.6836  1.3774  1.7624
17331TIP3   OH273407   5.060   4.818   5.876  0.1601 -0.5620  0.5086
17331TIP3    H173408   4.971   4.827   5.911 -0.4916 -1.4620 -0.8248
17331TIP3    H273409   5.048   4.770   5.794  1.7318  0.6068 -0.4399
17332TIP3   OH273410   1.149   2.968  13.916  0.2817  1.0855 -0.3023
17332TIP3    H173411   1.155   2.909  13.992 -2.0375 -0.1241 -0.9432
17332TIP3    H273412   1.137   3.055  13.954  2.0139  0.9257  0.6819
17333TIP3   OH273413   5.181   6.727   0.321 -0.0652  0.0004  0.3937
17333TIP3    H173414   5.152   6.775   0.244  1.0091 -0.2728 -0.1920
17333TIP3    H273415   5.276   6.735   0.321 -0.0629  0.1521  1.8006
17334TIP3   OH273416   0.333   3.038   4.157  0.3813 -0.1001  0.1446
17334TIP3    H173417   0.312   3.040   4.250 -2.3767 -1.6340 -0.3557
17334TIP3    H273418   0.387   2.959   4.146  0.5755 -0.0049  0.4046
17335TIP3   OH273419   5.188   6.687   1.485 -0.2867  0.5097  0.1156
17335TIP3    H173420   5.255   6.739   1.440 -0.7722  1.0269 -0.0245
17335TIP3    H273421   5.224   6.674   1.573  0.9931 -1.1315 -0.5952
17336TIP3   OH273422   6.406   1.376  13.993  0.4655  0.0338  0.5040
17336TIP3    H173423   6.455   1.321  13.931 -0.3131  1.6787 -1.6967
17336TIP3    H273424   6.460   1.454  14.004  0.9484 -0.5425  2.5755
17337TIP3   OH273425   1.409   5.487  12.349 -0.2274 -0.1512 -0.3880
17337TIP3    H173426   1.421   5.396  12.375 -1.3071 -0.6470 -1.5299
17337TIP3    H273427   1.323   5.490  12.307 -0.9959  1.7649  1.1645
17338TIP3   OH273428   3.485   6.647  13.877 -0.5598  0.6601  0.4608
17338TIP3    H173429   3.540   6.688  13.810 -0.7732  0.0089 -0.1229
17338TIP3    H273430   3.522   6.676  13.960  0.3975  0.5686  0.0705
17339TIP3   OH273431   5.751   1.013  14.217 -0.1305  0.0406  0.4900
17339TIP3    H173432   5.793   0.933  14.185 -1.6006 -1.0780  1.2160
17339TIP3    H273433   5.658   1.001  14.197 -0.2850  1.9467 -0.0981
17340TIP3   OH273434   5.977   1.900   3.812  0.0263 -0.5593 -0.0824
17340TIP3    H173435   6.034   1.957   3.863  0.6832  0.1862 -1.6156
17340TIP3    H273436   5.889   1.920   3.843  0.4280 -0.3455  0.9543
17341TIP3   OH273437   6.279   0.503   4.137  0.4160  0.2534  0.7912
17341TIP3    H173438   6.291   0.581   4.083 -0.5847  0.9286  1.5009
17341TIP3    H273439   6.301   0.532   4.226  0.5774 -0.4262  0.9831
17342TIP3   OH273440   2.008   5.568  10.415  0.4942 -0.0333  0.1254
17342TIP3    H173441   2.074   5.621  10.461  1.0736 -0.2599 -0.4206
17342TIP3    H273442   2.033   5.477  10.434 -1.2670 -0.1630  2.1491
17343TIP3   OH273443   5.183   5.135  10.966  0.1000  0.3310  0.7218
17343TIP3    H173444   5.261   5.184  10.994  0.7493  0.5393 -1.2735
17343TIP3    H273445   5.191   5.051  11.010  1.7864  0.1490  0.1429
17344TIP3   OH273446   2.649   3.071  15.234  0.3310 -0.2868  0.2177
17344TIP3    H173447   2.722   3.010  15.222  1.0749  0.6394 -0.0904
17344TIP3    H273448   2.658   3.100  15.325  0.2862 -0.2617  0.2140
17345TIP3   OH273449   5.554   1.792  14.639  1.0493 -0.2367  0.4997
17345TIP3    H173450   5.528   1.881  14.663  0.0751 -1.0486  2.7825
17345TIP3    H273451   5.471   1.746  14.625  1.4650 -1.1979  1.0764
17346TIP3   OH273452   2.506   0.802   3.019  0.4903 -0.1202 -0.3409
17346TIP3    H173453   2.481   0.822   3.109 -3.6618 -0.4750 -1.2496
17346TIP3    H273454   2.494   0.884   2.972  0.5368 -0.4712 -0.9683
17347TIP3   OH273455   3.461   3.870  11.061 -0.4468 -0.3618 -0.0313
17347TIP3    H173456   3.392   3.912  11.010  0.7693  2.4452  0.4864
17347TIP3    H273457   3.512   3.942  11.097  0.7329 -2.2873  2.4270
17348TIP3   OH273458   6.718   1.310   6.586 -0.2481  0.3599  0.3302
17348TIP3    H173459   6.736   1.324   6.493 -0.8711  0.6832  0.2502
17348TIP3    H273460   6.647   1.371   6.606  2.0838  2.8775  1.8339
17349TIP3   OH273461   4.832   0.385  11.951 -0.9284  0.1044 -0.4827
17349TIP3    H173462   4.898   0.361  12.017 -1.4808 -0.2898 -0.0613
17349TIP3    H273463   4.797   0.301  11.922 -1.1745  0.3098 -0.7751
17350TIP3   OH273464   5.412   6.736   5.916  0.0844  0.0464 -0.6411
17350TIP3    H173465   5.360   6.706   5.990  0.1341  0.5156 -0.4119
17350TIP3    H273466   5.494   6.767   5.955  0.3367 -0.2191 -0.9488
17351TIP3   OH273467   4.598   5.373   5.412 -0.9019 -0.0366 -0.6422
17351TIP3    H173468   4.522   5.354   5.466 -2.0712 -0.1795 -2.2512
17351TIP3    H273469   4.621   5.463   5.432 -2.1052  0.3270 -0.8089
17352TIP3   OH273470   6.415   3.684  11.566  0.5346  0.1043  0.3564
17352TIP3    H173471   6.426   3.624  11.639  1.7022  0.7115  0.6996
17352TIP3    H273472   6.339   3.650  11.518 -1.0320  0.3579  2.4932
17353TIP3   OH273473   1.135   5.344   4.474 -0.0462  0.0754 -0.1393
17353TIP3    H173474   1.191   5.415   4.442 -0.4938 -0.9510 -3.5976
17353TIP3    H273475   1.197   5.278   4.506  0.4791  0.8054  0.3964
17354TIP3   OH273476   4.652   0.081   4.001 -0.7495 -0.0768  0.0380
17354TIP3    H173477   4.661   0.028   4.079 -0.2063  0.2387  0.1896
17354TIP3    H273478   4.646   0.171   4.033 -0.1463  0.0905 -0.2955
17355TIP3   OH273479   0.231   0.216   4.855 -0.1351  0.2067  0.2213
17355TIP3    H173480   0.194   0.184   4.937 -0.6894 -0.1430 -0.1584
17355TIP3    H273481   0.280   0.142   4.820 -3.7800 -1.3884 -2.1082
17356TIP3   OH273482   2.202   3.403  15.823 -0.2440 -0.0848 -0.6574
17356TIP3    H173483   2.143   3.361  15.886  0.0831 -0.2048 -0.4302
17356TIP3    H273484   2.271   3.441  15.877  0.9484 -1.6014 -1.0223
17357TIP3   OH273485   6.785   5.113   0.616  0.0344 -0.0301 -0.4858
17357TIP3    H173486   6.798   5.196   0.570 -1.9205 -0.6448 -2.3350
17357TIP3    H273487   6.765   5.138   0.706  1.1970  1.3698 -0.5684
17358TIP3   OH273488   5.139   4.829  15.726  0.0366  0.1581  0.6438
17358TIP3    H173489   5.109   4.781  15.803 -0.3377 -1.7275 -0.6057
17358TIP3    H273490   5.166   4.761  15.664 -1.4109  1.4758 -1.5893
17359TIP3   OH273491   1.130   1.317   0.854  0.4629  0.0486 -0.0664
17359TIP3    H173492   1.075   1.239   0.860  1.1034 -0.2843  2.6594
17359TIP3    H273493   1.074   1.389   0.882  0.5190  0.2165 -0.3816
17360TIP3   OH273494   2.269   2.163  12.833  0.1958  0.1065 -0.5906
17360TIP3    H173495   2.277   2.161  12.929 -0.6974  0.0077 -0.5129
17360TIP3    H273496   2.180   2.192  12.817 -0.2226 -1.5152 -1.3795
17361TIP3   OH273497   0.461   0.495   4.721 -0.1365  0.2813 -0.4182
17361TIP3    H173498   0.387   0.540   4.680  0.5469  2.4139  0.5002
17361TIP3    H273499   0.437   0.487   4.813 -0.0935 -0.9781 -0.5047
17362TIP3   OH273500   5.739   4.410   3.164  0.2154 -0.6342  0.2158
17362TIP3    H173501   5.833   4.390   3.164  0.1022 -1.2265  0.7293
17362TIP3    H273502   5.699   4.332   3.202 -0.6642 -1.1674 -1.6703
17363TIP3   OH273503   4.375   2.938  16.994  0.6744 -0.2956 -0.4475
17363TIP3    H173504   4.434   3.013  16.991  1.7361 -1.0761  0.1542
17363TIP3    H273505   4.366   2.918  17.088 -1.7242  0.6795 -0.4002
17364TIP3   OH273506   3.115   5.456  13.340 -0.1374  0.4956 -0.2464
17364TIP3    H173507   3.066   5.406  13.275 -0.1569 -0.1813  0.2755
17364TIP3    H273508   3.173   5.392  13.382 -0.8074  0.7136  1.0670
17365TIP3   OH273509   3.448   4.675   3.452 -0.5098  0.3001 -0.1984
17365TIP3    H173510   3.358   4.642   3.443 -0.4611  0.4425 -1.3551
17365TIP3    H273511   3.495   4.638   3.377 -0.2015  2.0959 -0.9518
17366TIP3   OH273512   3.968   6.359  12.228 -0.2020  1.2206  0.0162
17366TIP3    H173513   4.052   6.386  12.190 -0.1995 -0.0022 -0.8988
17366TIP3    H273514   3.992   6.309  12.306 -0.1847  3.0188  1.2238
17367TIP3   OH273515   5.490   1.224   1.145  0.0617 -0.5456 -0.0334
17367TIP3    H173516   5.540   1.228   1.063 -2.0208 -0.6268 -1.4062
17367TIP3    H273517   5.415   1.281   1.129 -0.8364 -1.2320  1.5087
17368TIP3   OH273518   6.177   2.352  12.147 -0.3269  0.2923 -0.4400
17368TIP3    H173519   6.263   2.356  12.188 -0.1481 -0.5080 -0.7278
17368TIP3    H273520   6.130   2.283  12.194  0.1867 -1.2773 -2.0966
17369TIP3   OH273521   2.477   1.850   3.769  0.5272  0.2635  0.5933
17369TIP3    H173522   2.566   1.832   3.736  1.1935  0.5666  2.1348
17369TIP3    H273523   2.470   1.797   3.848 -0.5249  0.5565  0.7042
17370TIP3   OH273524   4.677   3.478  16.647 -0.2216  0.2150  0.5976
17370TIP3    H173525   4.712   3.522  16.724 -1.9437 -0.7204  1.9751
17370TIP3    H273526   4.587   3.509  16.640 -0.7980 -1.4081  0.3446
17371TIP3   OH273527   0.200   5.461   4.063  0.7471 -0.4448  0.1949
17371TIP3    H173528   0.284   5.488   4.099 -0.3196 -1.0507  3.4884
17371TIP3    H273529   0.211   5.367   4.046  1.6025  0.0534 -2.3692
17372TIP3   OH273530   2.045   4.012   1.730 -0.0669  0.6725  0.1945
17372TIP3    H173531   2.085   3.985   1.647 -0.6822  0.0198  0.0999
17372TIP3    H273532   2.088   3.957   1.795  0.4207  1.1900  0.3136
17373TIP3   OH273533   5.292   2.244  16.830  0.3421  0.2258  0.3178
17373TIP3    H173534   5.242   2.191  16.769 -0.4938  1.3456  0.0004
17373TIP3    H273535   5.247   2.235  16.913  2.2137 -2.3486  1.1908
17374TIP3   OH273536   4.957   5.744   1.640  0.6553  0.1249 -0.3087
17374TIP3    H173537   4.963   5.784   1.727  2.1837  1.5907 -1.0478
17374TIP3    H273538   4.985   5.654   1.653  0.7043  0.2777  0.7319
17375TIP3   OH273539   4.263   4.008   3.495 -0.2164  0.0360 -0.4962
17375TIP3    H173540   4.204   3.988   3.568  0.0047  1.5774  0.1446
17375TIP3    H273541   4.264   3.928   3.442 -2.2866 -0.2804 -0.1331
17376TIP3   OH273542   0.614   3.647   6.039 -0.2551 -0.0246 -0.1373
17376TIP3    H173543   0.694   3.595   6.038  0.6526  1.3153  0.3375
17376TIP3    H273544   0.642   3.733   6.070 -1.9884  0.3038  0.6070
17377TIP3   OH273545   3.541   0.402   3.306  0.5015 -0.2405  0.0819
17377TIP3    H173546   3.612   0.340   3.324  0.8936  0.4288  0.9250
17377TIP3    H273547   3.465   0.364   3.348  0.9110  0.2083  1.2542
17378TIP3   OH273548   1.389   0.072  10.253  0.0329 -0.0082  0.5532
17378TIP3    H173549   1.375   0.081  10.347  2.4692  0.9402  0.9073
17378TIP3    H273550   1.390  -0.022  10.237 -1.9472 -0.1593  1.1685
17379TIP3   OH273551   1.801   5.669  14.995  0.5344 -0.1860 -0.3116
17379TIP3    H173552   1.725   5.723  14.976  1.4278  0.7631 -1.2593
17379TIP3    H273553   1.875   5.728  14.988  1.6513 -1.6952 -2.3522
17380TIP3   OH273554   1.592   4.206   1.386 -0.6516 -0.2708 -0.5324
17380TIP3    H173555   1.570   4.117   1.412 -1.0321 -0.7555 -2.3247
17380TIP3    H273556   1.595   4.256   1.467  0.9274 -2.1887  0.6917
17381TIP3   OH273557   0.344   1.488  16.273  0.4088 -0.0443  0.0123
17381TIP3    H173558   0.254   1.461  16.291  0.5571 -1.6408 -1.4067
17381TIP3    H273559   0.348   1.579  16.303 -1.4808 -0.1294  0.6765
17382TIP3   OH273560   5.475   1.838   1.708  0.1222  0.1506  0.4720
17382TIP3    H173561   5.389   1.795   1.705 -0.2521  0.9464 -1.6659
17382TIP3    H273562   5.454   1.930   1.723  0.7671  0.0892  1.9913
17383TIP3   OH273563   2.260   2.679   1.632 -0.0814 -0.0944 -0.0577
17383TIP3    H173564   2.267   2.638   1.546  1.0129 -1.3934  0.6249
17383TIP3    H273565   2.166   2.680   1.649 -0.1948 -1.8648 -0.3388
17384TIP3   OH273566   3.454   3.564  14.774 -0.2534 -0.5333 -0.0589
17384TIP3    H173567   3.466   3.584  14.681 -1.2053 -1.4233 -0.3895
17384TIP3    H273568   3.362   3.540  14.782 -0.2759 -0.0902  1.1974
17385TIP3   OH273569   5.712   3.923   0.794 -0.0871 -0.0845 -0.0675
17385TIP3    H173570   5.691   3.952   0.705  0.0508 -1.1239 -0.4569
17385TIP3    H273571   5.629   3.894   0.830 -0.1803  0.5403  0.2269
17386TIP3   OH273572   6.350   1.950   3.707  0.2924 -0.8354 -0.9446
17386TIP3    H173573   6.443   1.949   3.684  0.5347  1.9540 -0.4918
17386TIP3    H273574   6.348   1.988   3.795 -1.2742 -0.8464 -0.9478
17387TIP3   OH273575   0.165   6.132   2.958 -0.0280 -0.1678  0.7179
17387TIP3    H173576   0.086   6.135   3.012 -1.6339  3.6393 -1.4370
17387TIP3    H273577   0.230   6.181   3.009 -0.3104  0.0864  0.8381
17388TIP3   OH273578   4.716   0.224   6.076 -0.1796  0.4534 -0.2518
17388TIP3    H173579   4.712   0.270   6.159  1.2073 -0.8489  0.5927
17388TIP3    H273580   4.637   0.251   6.029 -0.2316  2.3615  0.8573
17389TIP3   OH273581   5.163   1.104   1.245 -0.4332 -0.1336 -0.0779
17389TIP3    H173582   5.197   1.125   1.332  0.5565  0.6158 -0.6276
17389TIP3    H273583   5.156   1.188   1.201  0.6025 -0.6248 -1.2541
17390TIP3   OH273584   6.644   1.822  12.125  0.1953  0.4215 -0.6319
17390TIP3    H173585   6.724   1.802  12.173 -0.5407  0.4701  0.6682
17390TIP3    H273586   6.590   1.871  12.187 -0.0902  2.0596 -2.0969
17391TIP3   OH273587   6.265   3.565  15.424  0.0042  0.0340 -0.5092
17391TIP3    H173588   6.171   3.582  15.423 -0.0143 -0.0018  0.1589
17391TIP3    H273589   6.298   3.618  15.497  0.5075  0.0779 -0.7660
17392TIP3   OH273590   1.849   4.121   5.201  0.1593 -0.0208 -0.0057
17392TIP3    H173591   1.875   4.097   5.112  1.4553  1.1127  0.0348
17392TIP3    H273592   1.870   4.214   5.208  1.6193 -0.4417  1.9760
17393TIP3   OH273593   5.968   2.726   5.006  0.4397  0.6793  0.4433
17393TIP3    H173594   5.960   2.630   5.008  0.1516  0.7115  1.1814
17393TIP3    H273595   6.062   2.742   5.002  0.4480  0.3600 -0.9327
17394TIP3   OH273596   5.717   0.604   0.606  0.1230 -0.0478  0.7255
17394TIP3    H173597   5.643   0.623   0.662  0.1162 -1.3687  1.2027
17394TIP3    H273598   5.791   0.593   0.666  0.2596 -0.7856  0.4312
17395TIP3   OH273599   0.335   2.082   4.867 -0.6757  0.3607 -0.1307
17395TIP3    H173600   0.328   1.989   4.844 -0.6507  0.3389 -0.0481
17395TIP3    H273601   0.245   2.110   4.882 -0.8499  0.7313 -1.6764
17396TIP3   OH273602   1.283   6.398   4.498  0.2911  0.2555 -0.5096
17396TIP3    H173603   1.258   6.326   4.556  0.0258 -0.0878 -1.0343
17396TIP3    H273604   1.351   6.361   4.441  1.2695  0.8805  0.2225
17397TIP3   OH273605   6.387   6.559   2.722  0.6765  0.4800 -0.3984
17397TIP3    H173606   6.447   6.625   2.758  0.9823 -0.8401  1.6508
17397TIP3    H273607   6.344   6.521   2.798 -0.3551 -0.8969 -1.6045
17398TIP3   OH273608   1.054   1.002  14.659 -0.3009 -0.2416 -0.3529
17398TIP3    H173609   0.972   1.027  14.701 -1.1829 -0.3775 -1.9255
17398TIP3    H273610   1.107   0.966  14.730 -1.5516 -0.0544  0.7113
17399TIP3   OH273611   1.154   5.663   3.435 -0.5871 -0.1446  0.7029
17399TIP3    H173612   1.082   5.649   3.496  0.2469  0.0888  1.7829
17399TIP3    H273613   1.160   5.758   3.425  1.2450  0.0455  2.7944
17400TIP3   OH273614   0.653   0.342   2.051  0.1116  0.3463  0.1445
17400TIP3    H173615   0.604   0.261   2.040  0.3394  0.1756  0.3788
17400TIP3    H273616   0.680   0.366   1.962  2.6223 -1.4455  0.3112
17401TIP3   OH273617   1.110   6.249   3.164 -0.4026 -0.4247  0.6131
17401TIP3    H173618   1.200   6.242   3.196 -0.8096 -0.0067  1.9111
17401TIP3    H273619   1.058   6.201   3.229 -1.0896 -0.9141 -0.2811
17402TIP3   OH273620   3.164   3.292  14.271 -0.3124 -0.2655 -0.0376
17402TIP3    H173621   3.253   3.265  14.295 -0.6393 -1.9903 -0.6826
17402TIP3    H273622   3.176   3.350  14.196  0.2978  0.1073  0.3355
17403TIP3   OH273623   1.590   2.046  10.250  0.1182 -0.7080 -0.7968
17403TIP3    H173624   1.666   2.001  10.213 -0.1235 -1.9353  0.1213
17403TIP3    H273625   1.534   1.975  10.282 -0.9255  0.2190 -0.5192
17404TIP3   OH273626   2.678   0.265   3.581  0.4558  0.2657  0.8619
17404TIP3    H173627   2.726   0.189   3.612  1.7249  0.5537 -0.2732
17404TIP3    H273628   2.608   0.229   3.526  0.8193 -0.0896  0.6331
17405TIP3   OH273629   0.330   4.082  11.452  0.7539 -0.0076  0.0830
17405TIP3    H173630   0.251   4.137  11.458 -0.1185 -1.3070  0.9925
17405TIP3    H273631   0.380   4.121  11.380 -0.4996  1.1167 -0.2374
17406TIP3   OH273632   3.834   0.930   4.186  0.1822 -0.5619 -0.1949
17406TIP3    H173633   3.801   0.990   4.118  0.8740 -0.5556 -0.5399
17406TIP3    H273634   3.798   0.964   4.268  1.8025  1.2907 -0.1795
17407TIP3   OH273635   1.105   6.348  15.361  0.8699  0.0113  0.2731
17407TIP3    H173636   1.152   6.389  15.289  2.9606  0.9514  2.0612
17407TIP3    H273637   1.116   6.408  15.435  0.0058 -1.5504  1.7547
17408TIP3   OH273638   2.281   3.133   3.453 -0.4362  0.5187  0.0048
17408TIP3    H173639   2.190   3.113   3.431 -0.1377 -1.2591  0.2356
17408TIP3    H273640   2.333   3.087   3.388  0.3394 -0.5339  1.3171
17409TIP3   OH273641   2.780   1.190   4.232  0.0437  0.1235 -0.3226
17409TIP3    H173642   2.701   1.139   4.245  0.9071 -2.0420 -2.6379
17409TIP3    H273643   2.852   1.130   4.250  1.1127  0.5391 -2.6800
17410TIP3   OH273644   0.220   1.845  14.906  0.0138 -0.1408  0.0915
17410TIP3    H173645   0.233   1.864  14.999 -2.1723  1.3018  0.1842
17410TIP3    H273646   0.258   1.921  14.860 -1.3004  0.4900 -0.0039
17411TIP3   OH273647   0.298   0.388  16.993  0.0074 -0.3543  0.2542
17411TIP3    H173648   0.343   0.453  17.047 -0.0745 -1.3664  1.6066
17411TIP3    H273649   0.304   0.422  16.903  1.9611  0.3784  0.6194
17412TIP3   OH273650   4.842   2.833  16.376 -0.4701 -0.1687 -0.1040
17412TIP3    H173651   4.841   2.884  16.458  2.2804 -1.2581  0.7437
17412TIP3    H273652   4.768   2.773  16.384 -0.7104  0.2709  1.2373
17413TIP3   OH273653   0.369   1.892  16.000 -0.2400 -0.0938  0.4346
17413TIP3    H173654   0.298   1.870  15.940  0.5840  1.3705 -1.1688
17413TIP3    H273655   0.444   1.842  15.967  0.2294  0.7402  0.2270
17414TIP3   OH273656   1.550   0.307  15.575 -0.4577 -0.1544  0.1130
17414TIP3    H173657   1.568   0.268  15.490 -1.1834 -0.2362 -0.0025
17414TIP3    H273658   1.615   0.377  15.583 -0.2720 -0.2609 -0.4231
17415TIP3   OH273659   1.155   6.502  16.484 -0.0802 -0.4243 -0.5313
17415TIP3    H173660   1.121   6.543  16.404 -0.0563  1.1658  0.2320
17415TIP3    H273661   1.244   6.537  16.492 -0.2294 -0.2445  0.3964
17416TIP3   OH273662   0.121   5.127   3.039  0.0527 -0.8487  0.7062
17416TIP3    H173663   0.037   5.081   3.035 -0.7116  0.3439  2.2161
17416TIP3    H273664   0.099   5.219   3.022  1.2933 -0.7357 -0.4569
17417TIP3   OH273665   0.300   5.532  16.165 -0.0361 -0.0441  0.5043
17417TIP3    H173666   0.214   5.542  16.206 -0.4733  0.5041 -0.5158
17417TIP3    H273667   0.324   5.620  16.138 -1.2217 -0.6895 -3.2501
17418TIP3   OH273668   3.125   0.022   4.623  0.1326 -0.4646 -0.2570
17418TIP3    H173669   3.167  -0.054   4.583 -0.4746 -0.1145 -1.6383
17418TIP3    H273670   3.037  -0.008   4.645  0.4640 -0.6542  0.8694
17419TIP3   OH273671   4.145   4.876   4.036 -0.1736  0.5107 -0.3198
17419TIP3    H173672   4.100   4.924   3.967  1.5806  1.1499 -1.0766
17419TIP3    H273673   4.236   4.869   4.006  0.3143 -0.5194  1.2346
17420TIP3   OH273674   6.397   3.339   4.104 -0.0812  0.0994 -0.0649
17420TIP3    H173675   6.373   3.326   4.196 -1.5756 -2.4501 -0.7192
17420TIP3    H273676   6.345   3.415   4.077 -0.1081  0.4892  1.0333
17421TIP3   OH273677   2.333   0.028   3.199 -0.7946  0.1284 -0.3317
17421TIP3    H173678   2.316   0.100   3.260 -2.1715 -2.3590  2.5291
17421TIP3    H273679   2.367  -0.042   3.255  0.6642 -1.4270 -2.9888
17422TIP3   OH273680   5.028   4.521  14.907 -0.0159 -0.2882 -0.2060
17422TIP3    H173681   4.974   4.531  14.828 -1.0410 -0.6304  0.4242
17422TIP3    H273682   5.017   4.429  14.931  0.1946 -0.1568  0.4006
17423TIP3   OH273683   5.948   6.155  14.858 -0.3870 -0.2835  0.1428
17423TIP3    H173684   6.029   6.200  14.836 -1.4741  1.2019 -1.0500
17423TIP3    H273685   5.921   6.192  14.942 -1.7434  2.1309 -1.2478
17424TIP3   OH273686   1.467   3.791  12.866  0.1380 -0.2017  0.8562
17424TIP3    H173687   1.547   3.842  12.877 -0.5635  1.0531  0.3725
17424TIP3    H273688   1.405   3.852  12.826 -0.9504 -1.2520  0.8788
17425TIP3   OH273689   5.077   2.492   0.854 -0.8587 -0.0460  0.2590
17425TIP3    H173690   5.170   2.497   0.879 -1.1909  0.2631  1.5133
17425TIP3    H273691   5.073   2.533   0.768  0.1681 -0.0902  0.1706
17426TIP3   OH273692   4.340   5.749  12.639 -0.2117 -0.0905  0.3104
17426TIP3    H173693   4.294   5.807  12.700 -0.1550 -0.6380  0.8823
17426TIP3    H273694   4.281   5.674  12.629  0.9725 -1.3003  1.8778
17427TIP3   OH273695   1.162   0.079  13.877 -0.6737 -0.1660 -0.1060
17427TIP3    H173696   1.159  -0.009  13.915 -2.3228  0.4971  1.4190
17427TIP3    H273697   1.094   0.128  13.923  2.3798  2.9219  1.6043
17428TIP3   OH273698   6.085   1.609   6.303 -0.8514  0.1912 -0.5635
17428TIP3    H173699   6.005   1.559   6.322 -1.1690  0.9068  0.0513
17428TIP3    H273700   6.147   1.544   6.271 -0.9340 -0.7825  1.1184
17429TIP3   OH273701   3.569   5.721   2.119 -0.9178 -0.4075  0.1627
17429TIP3    H173702   3.597   5.664   2.047  0.9844 -1.7300  1.8237
17429TIP3    H273703   3.619   5.690   2.195 -1.5689  2.0105  1.6983
17430TIP3   OH273704   1.148   2.690   4.518  0.1349  0.5042 -0.8162
17430TIP3    H173705   1.180   2.765   4.569  0.8340 -0.2488 -0.1148
17430TIP3    H273706   1.142   2.723   4.428  1.4933  1.0930 -0.7159
17431TIP3   OH273707   0.790   0.330   4.904  0.1767  0.4949 -0.5266
17431TIP3    H173708   0.785   0.354   4.812 -0.7694  1.4039 -0.2479
17431TIP3    H273709   0.776   0.235   4.905 -1.3429  0.6809 -1.2122
17432TIP3   OH273710   4.658   4.352   5.076 -0.0271  0.2014  0.2553
17432TIP3    H173711   4.608   4.270   5.079  0.2070  0.0409 -0.2137
17432TIP3    H273712   4.748   4.325   5.059  0.2196  0.4968  1.0733
17433TIP3   OH273713   2.501   3.938  10.614  0.0970 -0.7085  0.6405
17433TIP3    H173714   2.542   3.890  10.542 -1.3972 -0.3715 -0.4911
17433TIP3    H273715   2.435   3.878  10.648  0.5307 -0.7154  1.4855
17434TIP3   OH273716   3.733   0.431   1.331 -0.1140 -0.3130  0.6642
17434TIP3    H173717   3.703   0.426   1.422 -1.4765  0.1613  0.2624
17434TIP3    H273718   3.660   0.399   1.279  1.0050 -1.5268 -0.2401
17435TIP3   OH273719   5.801   1.657   4.126  0.2677  0.0241 -0.0492
17435TIP3    H173720   5.802   1.739   4.075 -0.8705  0.0601 -0.0185
17435TIP3    H273721   5.886   1.657   4.171 -0.2335  1.8456  0.9826
17436TIP3   OH273722   6.753   3.320  13.593 -0.0326  0.9826  0.2590
17436TIP3    H173723   6.844   3.350  13.596  0.3424  0.2990 -1.9811
17436TIP3    H273724   6.710   3.380  13.533 -1.1897  1.4872  1.5413
17437TIP3   OH273725   2.427   6.416  11.656  0.3277 -0.2011  0.1999
17437TIP3    H173726   2.492   6.445  11.719 -0.4653 -1.1198  1.5045
17437TIP3    H273727   2.380   6.345  11.701  0.1211 -1.3031 -1.6402
17438TIP3   OH273728   3.562   3.347  15.609 -0.4356 -0.2047  0.6823
17438TIP3    H173729   3.624   3.291  15.562 -0.3889  0.3231  0.0975
17438TIP3    H273730   3.487   3.354  15.549 -0.3957  0.4348  0.7042
17439TIP3   OH273731   2.672   1.223   3.692  0.1614 -0.3103 -0.4548
17439TIP3    H173732   2.622   1.213   3.610  1.8377  1.1489 -1.7315
17439TIP3    H273733   2.628   1.295   3.738  0.9940  0.9514 -1.5591
17440TIP3   OH273734   1.650   4.667   2.273  0.3760 -0.3353  0.0316
17440TIP3    H173735   1.613   4.607   2.337  0.2327  0.4977  0.7389
17440TIP3    H273736   1.638   4.622   2.189 -0.0456 -1.1332  0.5042
17441TIP3   OH273737   3.443   1.352   1.674  0.1288 -0.4369  0.8439
17441TIP3    H173738   3.491   1.409   1.614  0.0489  0.9545  2.0567
17441TIP3    H273739   3.386   1.301   1.617  1.5750 -0.7066 -0.4479
17442TIP3   OH273740   4.309   4.871  12.042 -0.3936 -0.7426 -0.5970
17442TIP3    H173741   4.401   4.893  12.024 -0.1207 -0.4985  0.9159
17442TIP3    H273742   4.307   4.776  12.048  0.3545 -0.6738  1.9639
17443TIP3   OH273743   4.998   3.237   2.612 -0.2835 -0.0090 -0.5147
17443TIP3    H173744   4.974   3.329   2.597 -0.1816 -0.2112 -2.0991
17443TIP3    H273745   5.094   3.236   2.605 -0.1212  0.0018  1.1387
17444TIP3   OH273746   4.347   3.122  12.194 -0.1797  0.1686  0.3466
17444TIP3    H173747   4.400   3.077  12.260 -0.4486  1.5732  1.5639
17444TIP3    H273748   4.390   3.103  12.111  2.2285  1.2243  1.2736
17445TIP3   OH273749   5.127   1.616   2.537  0.8637  0.4894  0.3535
17445TIP3    H173750   5.083   1.532   2.527 -0.3620  0.9270  1.8579
17445TIP3    H273751   5.110   1.662   2.454 -0.2480  0.0651  0.3361
17446TIP3   OH273752   6.452   5.838  16.479  0.3473 -0.0828  0.0767
17446TIP3    H173753   6.371   5.856  16.431  0.1128  1.9548  1.0904
17446TIP3    H273754   6.491   5.763  16.435 -1.8865 -0.8617 -0.7026
17447TIP3   OH273755   1.801   2.763   5.498 -0.1075 -0.3674  0.3601
17447TIP3    H173756   1.889   2.727   5.509  0.3104  0.8759  1.4240
17447TIP3    H273757   1.772   2.730   5.413  2.1613  0.7193 -0.9550
17448TIP3   OH273758   3.531   6.283  13.536 -0.5174  0.2071  0.1662
17448TIP3    H173759   3.450   6.314  13.495 -0.3797  1.1564  0.5925
17448TIP3    H273760   3.547   6.198  13.495 -1.7592 -0.0240  0.1203
17449TIP3   OH273761   4.667   0.635  12.203  0.0763  0.5323 -0.5243
17449TIP3    H173762   4.681   0.646  12.298 -1.2286  0.8348 -0.3583
17449TIP3    H273763   4.647   0.542  12.193 -1.2935  0.7823 -0.2851
17450TIP3   OH273764   2.865   2.284   1.802  0.0656  0.6121 -0.1007
17450TIP3    H173765   2.914   2.206   1.779 -1.3523 -0.1968 -0.5251
17450TIP3    H273766   2.834   2.318   1.718 -0.3362  0.9305  0.1698
17451TIP3   OH273767   5.281   0.731  13.274  0.2249  0.2109 -0.1905
17451TIP3    H173768   5.273   0.645  13.233  1.6217 -0.1361  0.2409
17451TIP3    H273769   5.216   0.730  13.344  0.1769 -0.4590 -0.2371
17452TIP3   OH273770   5.168   6.443   1.242  0.4189  0.1179  0.0374
17452TIP3    H173771   5.140   6.523   1.198 -0.6512  0.6416  1.5981
17452TIP3    H273772   5.264   6.445   1.236  0.3726  1.1748 -0.5186
17453TIP3   OH273773   0.884   4.398   3.652 -0.2937 -0.3098  0.3639
17453TIP3    H173774   0.848   4.416   3.738  0.2728  0.7023  0.4063
17453TIP3    H273775   0.866   4.306   3.637 -0.7621 -0.3964  1.3883
17454TIP3   OH273776   3.049   1.852   4.356 -0.7092 -0.1236 -0.9802
17454TIP3    H173777   3.135   1.864   4.317  1.0533 -0.3869  2.4780
17454TIP3    H273778   3.012   1.940   4.362  0.4819  0.3484 -0.1832
17455TIP3   OH273779   0.228   0.769  15.543  0.0563 -0.5411  0.2599
17455TIP3    H173780   0.304   0.717  15.569  1.5435  0.2331 -2.1995
17455TIP3    H273781   0.181   0.786  15.625  1.2501 -2.9657  1.5629
17456TIP3   OH273782   5.259   3.537  13.111 -0.2671 -0.0443 -0.1508
17456TIP3    H173783   5.169   3.536  13.145 -0.4136  0.9482 -0.4666
17456TIP3    H273784   5.260   3.470  13.044 -1.0908  0.6467 -0.8865
17457TIP3   OH273785   2.799   2.276   5.170  0.1787 -1.4042  0.3101
17457TIP3    H173786   2.812   2.247   5.261  0.0702 -1.1440  0.4103
17457TIP3    H273787   2.888   2.295   5.139  0.2766 -2.0772  0.1594
17458TIP3   OH273788   0.012   3.984   2.807  0.4141 -0.3156 -0.1431
17458TIP3    H173789   0.079   3.920   2.829  0.5720 -0.3366 -0.6852
17458TIP3    H273790  -0.062   3.962   2.864  0.9625 -0.1160  0.6632
17459TIP3   OH273791   3.616   4.022   4.393 -0.0347 -0.4949 -0.1191
17459TIP3    H173792   3.576   3.987   4.313 -0.8742 -0.5441  0.3015
17459TIP3    H273793   3.703   4.051   4.367 -0.0724 -1.0663 -0.9161
17460TIP3   OH273794   5.897   1.026   2.605  0.2445 -0.4536  0.4934
17460TIP3    H173795   5.922   1.116   2.584  0.4257 -0.8760 -1.2298
17460TIP3    H273796   5.825   1.006   2.545  1.3010 -1.9975 -0.3336
17461TIP3   OH273797   4.060   0.603  13.917 -0.4391  0.4065 -0.0974
17461TIP3    H173798   4.152   0.587  13.936 -0.5248  0.3825  0.3123
17461TIP3    H273799   4.031   0.662  13.986 -1.4117 -1.7417  1.4605
17462TIP3   OH273800   3.758   3.480   4.381 -0.2592  0.1379 -0.0068
17462TIP3    H173801   3.845   3.514   4.403  0.2679 -0.6737 -0.7634
17462TIP3    H273802   3.716   3.551   4.332 -0.8316  1.3343  2.1160
17463TIP3   OH273803   5.526   3.482   2.004  0.1404 -0.2761  0.6306
17463TIP3    H173804   5.484   3.396   2.001  0.6820 -0.5305  0.2772
17463TIP3    H273805   5.601   3.475   1.946 -0.0624  0.5761  0.2419
17464TIP3   OH273806   3.417   3.257   2.319 -0.1439  0.2114  0.4014
17464TIP3    H173807   3.488   3.254   2.383 -1.4397  1.1427  1.9829
17464TIP3    H273808   3.409   3.167   2.288  2.6458  0.3311 -0.9668
17465TIP3   OH273809   4.100   0.494   2.044  0.6948 -0.0036 -0.1594
17465TIP3    H173810   4.173   0.445   2.007  1.6065  1.5992 -0.5674
17465TIP3    H273811   4.130   0.523   2.130  0.2332  0.0117  0.0037
17466TIP3   OH273812   3.959   5.231   1.150  0.1906  0.4657 -0.7619
17466TIP3    H173813   4.050   5.233   1.120  0.4667  2.0429  0.0689
17466TIP3    H273814   3.935   5.323   1.157 -1.0310  0.0851  0.3227
17467TIP3   OH273815   3.167   0.858  12.855 -0.4013  0.0367  0.7625
17467TIP3    H173816   3.222   0.810  12.794 -1.3701  0.1621 -0.2422
17467TIP3    H273817   3.210   0.847  12.940  0.2811 -1.2116  0.2787
17468TIP3   OH273818   5.943   1.156   6.165 -0.7267 -0.3879  0.2650
17468TIP3    H173819   6.008   1.087   6.148 -0.7896 -0.2707 -0.4886
17468TIP3    H273820   5.958   1.181   6.256  2.8863  2.2563 -0.8160
17469TIP3   OH273821   6.333   6.785  13.743 -0.1802 -0.7442  0.2822
17469TIP3    H173822   6.257   6.745  13.701 -1.4799  2.1597 -0.3916
17469TIP3    H273823   6.309   6.789  13.836 -1.6888  1.5033 -0.0940
17470TIP3   OH273824   1.985   4.049  12.833 -0.4283 -0.1400  0.7616
17470TIP3    H173825   2.037   4.129  12.832 -0.2602 -0.2487 -0.0352
17470TIP3    H273826   2.046   3.980  12.807 -1.4622  0.0875 -2.8567
17471TIP3   OH273827   5.138   1.715  16.915 -0.2865 -0.1082 -0.7168
17471TIP3    H173828   5.174   1.658  16.848 -1.0360 -0.9546 -0.4178
17471TIP3    H273829   5.074   1.769  16.868 -0.8764 -0.7616 -0.6887
17472TIP3   OH273830   0.859   6.407   4.993  0.5687  0.2994 -0.0140
17472TIP3    H173831   0.871   6.497   4.962 -1.5154  1.8307  3.1555
17472TIP3    H273832   0.894   6.407   5.082 -1.1770 -1.4775  0.7418
17473TIP3   OH273833   4.440   1.003  13.501 -0.1343  0.2220 -0.5139
17473TIP3    H173834   4.379   1.057  13.551 -0.0077  1.3643 -1.5517
17473TIP3    H273835   4.444   0.921  13.550 -0.1640  1.2031  1.2393
17474TIP3   OH273836   2.666   2.797  13.250  0.5798  0.0960  0.0437
17474TIP3    H173837   2.751   2.758  13.272 -0.6699 -2.5235  0.7414
17474TIP3    H273838   2.668   2.806  13.155  1.4311 -0.4876 -0.0097
17475TIP3   OH273839   6.230   2.598   5.987  0.0855  0.2152  0.4238
17475TIP3    H173840   6.280   2.536   6.039 -0.5926  0.9849  2.0442
17475TIP3    H273841   6.139   2.581   6.010 -0.3951 -0.5061 -1.7478
17476TIP3   OH273842   2.027   0.057  16.018  0.3154  0.2018 -0.1584
17476TIP3    H173843   2.055   0.148  16.008  0.3163  0.4049  1.5586
17476TIP3    H273844   1.952   0.049  15.959  1.1814  0.8846 -1.4233
17477TIP3   OH273845   1.245   4.568  12.262  0.2061  0.0711 -0.3602
17477TIP3    H173846   1.262   4.553  12.355 -1.0084  3.5319  0.5732
17477TIP3    H273847   1.331   4.581  12.224  0.6963 -1.0669  0.2861
17478TIP3   OH273848   6.449   2.637  13.654  0.4152  0.3309 -1.0141
17478TIP3    H173849   6.476   2.564  13.710 -1.1379  0.4656 -0.0170
17478TIP3    H273850   6.516   2.704  13.668  0.4790  0.0523  0.0893
17479TIP3   OH273851   5.882   3.853  13.542 -0.0318 -0.2674  0.3135
17479TIP3    H173852   5.836   3.770  13.530 -0.1270 -0.3246  1.0592
17479TIP3    H273853   5.813   3.919  13.547  0.0500 -0.1007 -0.4905
17480TIP3   OH273854   4.163   1.201   4.295 -0.2217 -0.2144 -0.0813
17480TIP3    H173855   4.222   1.268   4.260  1.5017 -0.4157  2.1721
17480TIP3    H273856   4.093   1.193   4.230  0.6131  2.2720 -1.4015
17481TIP3   OH273857   2.158   5.648   0.811  0.1569  0.5936 -0.0736
17481TIP3    H173858   2.132   5.559   0.837  0.2579  0.3275 -0.8444
17481TIP3    H273859   2.214   5.635   0.735 -0.0229  1.3313 -0.3423
17482TIP3   OH273860   1.453   5.393   1.178  0.1930 -0.4908  0.5386
17482TIP3    H173861   1.546   5.399   1.155 -0.1767  0.2401 -0.8708
17482TIP3    H273862   1.452   5.394   1.274  1.7116 -1.9166  0.6025
17483TIP3   OH273863   6.217   0.873   0.999  0.5767 -0.2639 -0.0622
17483TIP3    H173864   6.176   0.934   1.061  1.1140  1.9715 -1.7762
17483TIP3    H273865   6.289   0.834   1.049 -0.2697 -0.1149  1.3350
17484TIP3   OH273866   5.919   4.166   5.399  0.4696 -0.0568  0.4314
17484TIP3    H173867   5.949   4.197   5.485  0.5164 -2.3788  1.3311
17484TIP3    H273868   5.999   4.141   5.353  0.3511 -0.0821  0.2382
17485TIP3   OH273869   3.189   3.182   0.298  0.0777 -0.1404 -0.1946
17485TIP3    H173870   3.240   3.257   0.266 -1.1296  1.0013  0.4246
17485TIP3    H273871   3.122   3.168   0.231  0.8951 -1.3358 -0.7874
17486TIP3   OH273872   5.745   1.376   2.089  0.1382  0.3725  0.3580
17486TIP3    H173873   5.755   1.452   2.032 -1.1359  1.1235  1.0822
17486TIP3    H273874   5.700   1.311   2.035  0.7664  0.3151 -0.1057
17487TIP3   OH273875   2.512   6.479   0.550  0.9849 -0.1307  0.3615
17487TIP3    H173876   2.499   6.562   0.596  0.9681 -0.7220  1.4511
17487TIP3    H273877   2.479   6.413   0.610 -1.8015 -0.7571 -1.6489
17488TIP3   OH273878   3.276   0.375  15.979 -0.4084 -0.0525 -0.5421
17488TIP3    H173879   3.220   0.452  15.973 -0.3292  0.1269  0.8706
17488TIP3    H273880   3.244   0.328  16.056  2.1167  0.6639  1.0269
17489TIP3   OH273881   0.997   2.875  12.164  0.2526 -0.4745  0.4680
17489TIP3    H173882   1.069   2.837  12.215 -0.1154 -0.7340  0.8011
17489TIP3    H273883   1.015   2.848  12.074  1.3809  0.7084  0.3047
17490TIP3   OH273884   1.406   2.360   3.813  0.0862  0.7267 -0.6518
17490TIP3    H173885   1.487   2.409   3.826 -0.2327  1.5825 -1.7342
17490TIP3    H273886   1.390   2.365   3.719 -1.6614  1.2947 -0.3548
17491TIP3   OH273887   3.471   1.658   1.041 -0.0720 -0.4061 -0.2502
17491TIP3    H173888   3.393   1.703   1.073 -0.3522 -0.3391 -0.9943
17491TIP3    H273889   3.542   1.722   1.050 -0.0442 -0.5628  0.6838
17492TIP3   OH273890   4.715   5.482   2.394  0.0129  0.1586  0.4586
17492TIP3    H173891   4.674   5.425   2.459  1.6066 -1.9832 -0.3310
17492TIP3    H273892   4.642   5.532   2.358 -1.4283 -1.1985  1.3550
17493TIP3   OH273893   2.857   3.485   0.360 -0.0271  0.6600  0.4306
17493TIP3    H173894   2.890   3.429   0.291 -1.1226 -0.3514  0.6979
17493TIP3    H273895   2.845   3.570   0.319 -0.8489  0.0228 -0.6811
17494TIP3   OH273896   5.732   6.749  14.600 -0.3968  0.3948  0.1934
17494TIP3    H173897   5.661   6.799  14.561 -0.4178 -1.0014 -1.6705
17494TIP3    H273898   5.798   6.742  14.531  0.7086 -0.0118  1.2430
17495TIP3   OH273899   6.730   3.164  15.901 -0.1547 -0.6227 -0.0817
17495TIP3    H173900   6.635   3.160  15.889 -0.1449  0.5290 -0.6908
17495TIP3    H273901   6.752   3.256  15.888  0.7118 -0.3663  2.7157
17496TIP3   OH273902   2.624   2.240  16.538 -0.0022 -0.3088 -0.4422
17496TIP3    H173903   2.634   2.257  16.444  1.1516 -3.1836 -0.9587
17496TIP3    H273904   2.567   2.310  16.570  0.8779  1.6715 -2.9394
17497TIP3   OH273905   0.339   5.283   1.820 -0.1775  0.5456 -0.2495
17497TIP3    H173906   0.383   5.222   1.880  0.0116 -0.0796 -1.0157
17497TIP3    H273907   0.359   5.250   1.733 -0.6355  1.3272 -0.6623
17498TIP3   OH273908   5.934   5.405   5.063 -0.4088 -0.0747 -0.7885
17498TIP3    H173909   5.890   5.385   5.145 -1.5777  0.5041 -1.2450
17498TIP3    H273910   5.942   5.500   5.063  0.2645 -0.1296 -1.0096
17499TIP3   OH273911   3.992   1.988   2.444  0.6367  0.0849 -0.4545
17499TIP3    H173912   3.945   1.998   2.527  0.1279  0.3550 -0.7687
17499TIP3    H273913   3.958   1.906   2.407 -0.4632  0.8594 -1.2244
17500TIP3   OH273914   0.714   5.476   2.459 -0.0174  0.4173  0.1995
17500TIP3    H173915   0.776   5.542   2.428 -1.0616  0.7842 -1.1997
17500TIP3    H273916   0.769   5.404   2.490  1.1286  1.6386  1.1287
17501TIP3   OH273917   3.527   5.435  14.129  0.3477  0.4816  0.0623
17501TIP3    H173918   3.603   5.389  14.093  0.7394  0.6785  0.6290
17501TIP3    H273919   3.483   5.472  14.052  0.6042  0.0431 -0.3055
17502TIP3   OH273920   0.947   2.450  14.721 -0.0457  0.3224  0.1293
17502TIP3    H173921   0.852   2.447  14.710 -0.0921  2.4452 -0.3732
17502TIP3    H273922   0.972   2.539  14.697  2.1201 -0.2521  0.0237
17503TIP3   OH273923   3.798   2.624   5.046  0.1659  0.1581 -0.1446
17503TIP3    H173924   3.793   2.561   4.974 -0.0303  0.1392 -0.1165
17503TIP3    H273925   3.764   2.576   5.122 -2.0488  0.9299 -0.5611
17504TIP3   OH273926   2.776   6.057  16.935  0.2734 -0.0359  0.2012
17504TIP3    H173927   2.758   5.964  16.927  0.1704  0.0044 -0.0322
17504TIP3    H273928   2.841   6.075  16.867  0.4751  0.0137  0.4039
17505TIP3   OH273929   2.979   5.832   1.567 -0.0917  0.3134  0.0459
17505TIP3    H173930   2.901   5.845   1.620 -0.8547 -0.3130 -0.9090
17505TIP3    H273931   2.955   5.863   1.480  0.2060 -1.2899 -0.6454
17506TIP3   OH273932   2.736   5.340   5.717 -0.1349 -0.0091 -0.1749
17506TIP3    H173933   2.678   5.295   5.657 -0.4996  0.4188 -0.1453
17506TIP3    H273934   2.699   5.325   5.804 -1.8103  2.5141 -0.3327
17507TIP3   OH273935   6.369   3.655  12.603  0.1698 -0.0307  0.5843
17507TIP3    H173936   6.408   3.715  12.667  0.5334 -0.1725  0.4997
17507TIP3    H273937   6.442   3.600  12.575 -0.0950 -0.3020  0.4222
17508TIP3   OH273938   5.148   3.549  11.332  0.0077  0.1675  0.3345
17508TIP3    H173939   5.187   3.491  11.397 -0.6764 -0.8419 -0.1279
17508TIP3    H273940   5.153   3.636  11.371  4.1742  0.4261 -0.3468
17509TIP3   OH273941   2.931   3.125   3.528  0.2133  0.3653  0.3246
17509TIP3    H173942   3.011   3.123   3.477 -0.1869  0.3948 -0.3105
17509TIP3    H273943   2.877   3.192   3.487 -1.2754 -1.5420 -1.0104
17510TIP3   OH273944   4.126   3.039   1.272  0.3199 -0.3884  0.1344
17510TIP3    H173945   4.068   2.966   1.293  0.6767 -1.0123 -0.9538
17510TIP3    H273946   4.121   3.097   1.348 -2.0854 -0.2029 -0.0782
17511TIP3   OH273947   5.604   3.996  14.073  0.0455 -0.0783  0.2416
17511TIP3    H173948   5.567   4.045  14.000  1.3849  0.9097  0.1934
17511TIP3    H273949   5.678   3.948  14.034  0.5113  0.1312  0.8513
17512TIP3   OH273950   2.205   5.694  12.555  0.2027  0.1577  0.1815
17512TIP3    H173951   2.123   5.647  12.539  0.0054  0.7284 -0.5088
17512TIP3    H273952   2.268   5.625  12.578 -0.6591 -0.2181  1.5766
17513TIP3   OH273953   2.208   1.593   4.858 -0.1407  0.0896 -0.2358
17513TIP3    H173954   2.194   1.658   4.789  0.3928  0.2848 -0.1597
17513TIP3    H273955   2.247   1.518   4.813  0.6633  0.4004 -0.0730
17514TIP3   OH273956   6.192   4.736  12.144 -0.3314  0.2426  0.3430
17514TIP3    H173957   6.151   4.800  12.202  0.5678  0.1463  1.1123
17514TIP3    H273958   6.284   4.735  12.171 -0.1366 -0.6651 -0.3110
17515TIP3   OH273959   2.998   3.830   3.382  0.1245  0.2260  0.8718
17515TIP3    H173960   3.059   3.781   3.328  0.7862  0.8776  1.0114
17515TIP3    H273961   2.916   3.782   3.375 -0.1055  0.8215 -1.5325
17516TIP3   OH273962   1.385   4.968  17.098 -0.2469 -0.4809 -0.8755
17516TIP3    H173963   1.404   4.897  17.036  1.6397 -0.3793 -0.4832
17516TIP3    H273964   1.406   5.048  17.049  2.5204 -0.4383  0.1716
17517TIP3   OH273965   3.292   2.024  12.270  0.1013  0.2404 -0.1661
17517TIP3    H173966   3.308   2.109  12.311  0.9330 -0.1078  0.2668
17517TIP3    H273967   3.347   1.963  12.319 -0.6146 -0.5858 -0.3572
17518TIP3   OH273968   5.549   3.367   0.580 -0.4150 -0.2253  0.6086
17518TIP3    H173969   5.551   3.333   0.669 -0.2297 -0.0163  0.6849
17518TIP3    H273970   5.472   3.325   0.540  1.8323 -3.7487 -0.5210
17519TIP3   OH273971   2.239   5.609   0.143  0.1849 -0.1156  0.0846
17519TIP3    H173972   2.181   5.675   0.180 -3.3947 -1.9533 -1.8232
17519TIP3    H273973   2.237   5.537   0.206  1.3596  0.1995  0.5193
17520TIP3   OH273974   5.486   6.620   3.677  0.1641  0.4238  0.1991
17520TIP3    H173975   5.402   6.578   3.658  0.0150  1.3136 -1.3109
17520TIP3    H273976   5.463   6.696   3.730  0.0633  0.4704  0.0880
17521TIP3   OH273977   5.838   4.144   1.990 -0.2093  0.3666  0.3797
17521TIP3    H173978   5.932   4.127   1.997 -0.1361  0.3006 -0.6093
17521TIP3    H273979   5.822   4.153   1.896 -1.5047 -1.4262  0.3849
17522TIP3   OH273980   6.258   0.899   1.580  0.3870 -0.1035 -0.8399
17522TIP3    H173981   6.318   0.854   1.640 -0.1432 -1.0249 -0.9745
17522TIP3    H273982   6.177   0.909   1.630  0.7695  1.5470 -0.5030
17523TIP3   OH273983   0.431   2.596   4.684  0.2456  0.1673  0.5181
17523TIP3    H173984   0.354   2.542   4.664  0.4242 -0.3442  1.1658
17523TIP3    H273985   0.494   2.534   4.722  2.0140  0.0399 -2.3738
17524TIP3   OH273986   0.636   6.119  13.434  0.3059 -0.3702  0.0803
17524TIP3    H173987   0.627   6.204  13.475 -1.9604 -0.7539  0.4691
17524TIP3    H273988   0.678   6.064  13.500  1.0046  0.1941  0.1221
17525TIP3   OH273989   0.458   4.120   4.169  0.5383 -0.8125 -0.0328
17525TIP3    H173990   0.530   4.065   4.136  1.2152  0.7556 -1.3392
17525TIP3    H273991   0.395   4.058   4.205  1.9275 -2.3375 -0.0988
17526TIP3   OH273992   1.274   5.253  11.915 -0.3714  0.9585  0.2696
17526TIP3    H173993   1.330   5.217  11.984  2.7615 -0.1795 -2.5769
17526TIP3    H273994   1.322   5.329  11.882 -0.5106  0.0986 -2.1257
17527TIP3   OH273995   6.236   1.458  10.995  0.2662  0.0970 -0.3136
17527TIP3    H173996   6.326   1.426  10.985 -0.1747 -1.3077  0.0018
17527TIP3    H273997   6.229   1.528  10.931  1.8877  0.9113  0.3309
17528TIP3   OH273998   1.094   3.804  16.826 -0.3167  0.4762  0.4792
17528TIP3    H173999   1.029   3.791  16.757  0.4739  0.9103 -0.3680
17528TIP3    H274000   1.153   3.871  16.791  0.5294  0.1628  1.2732
17529TIP3   OH274001   2.704   6.666  10.865 -0.1098  0.2497  0.4358
17529TIP3    H174002   2.685   6.591  10.808  1.0247 -0.1607  0.5746
17529TIP3    H274003   2.663   6.741  10.820 -2.5243 -0.6161  1.0140
17530TIP3   OH274004   0.353   6.143  13.645 -0.5758 -0.0746 -0.4317
17530TIP3    H174005   0.411   6.076  13.680 -0.4304 -0.0363 -0.6000
17530TIP3    H274006   0.273   6.097  13.623  0.2696 -0.6205 -2.6287
17531TIP3   OH274007   0.724   6.145  17.095  0.1022  0.1107  0.5356
17531TIP3    H174008   0.750   6.225  17.050  1.2892 -0.5475 -0.0079
17531TIP3    H274009   0.796   6.084  17.079 -0.9179 -1.1779  0.6455
17532TIP3   OH274010   6.106   1.621   0.547 -0.5121 -0.1416  0.0957
17532TIP3    H174011   6.135   1.559   0.481 -0.5742 -1.0703  0.9290
17532TIP3    H274012   6.045   1.572   0.603 -0.8641  0.7620  0.5453
17533TIP3   OH274013   5.302   4.846   3.684 -0.0213 -0.1506  0.2884
17533TIP3    H174014   5.330   4.795   3.760  1.2191  0.4921  0.2886
17533TIP3    H274015   5.310   4.786   3.610 -0.4749 -0.5398  0.5501
17534TIP3   OH274016   6.758   3.021  16.299 -0.0842 -0.8053  0.1415
17534TIP3    H174017   6.770   2.927  16.315 -0.1067 -0.8162  0.0947
17534TIP3    H274018   6.709   3.052  16.375  1.7589 -0.4133  1.2236
17535TIP3   OH274019   5.191   5.541   5.431  0.0179 -0.0313 -0.4026
17535TIP3    H174020   5.239   5.624   5.434  2.1586 -1.2030 -0.1184
17535TIP3    H274021   5.132   5.551   5.356  0.0242  1.8302 -0.2161
17536TIP3   OH274022   1.889   2.168   2.306 -0.9632 -0.0964  0.1576
17536TIP3    H174023   1.826   2.109   2.264 -1.7894 -0.3135  1.6567
17536TIP3    H274024   1.849   2.254   2.299 -1.8141 -0.3227  1.7134
17537TIP3   OH274025   3.724   4.174   0.356  0.0652  0.3869  0.0219
17537TIP3    H174026   3.793   4.128   0.308 -1.8037 -0.4134 -2.0981
17537TIP3    H274027   3.716   4.258   0.312 -0.1751  0.5614  0.3940
17538TIP3   OH274028   5.727   2.664  14.061  0.1552  0.2697  0.1878
17538TIP3    H174029   5.643   2.665  14.106 -0.2710  1.6240 -0.5698
17538TIP3    H274030   5.790   2.633  14.127  0.0054  4.4214  2.6233
17539TIP3   OH274031   2.766   4.910   4.612 -0.2718  0.4696  0.5284
17539TIP3    H174032   2.696   4.846   4.598 -0.5331  1.0684 -1.1870
17539TIP3    H274033   2.752   4.943   4.700 -0.6085 -1.2361  1.1600
17540TIP3   OH274034   5.182   3.804  15.302 -0.3381  0.4471  0.1330
17540TIP3    H174035   5.226   3.820  15.218 -1.0108  2.5690  0.1257
17540TIP3    H274036   5.088   3.808  15.281 -0.5192 -0.1505  0.7962
17541TIP3   OH274037   4.359   3.285   2.729  0.2549  0.4229  0.0815
17541TIP3    H174038   4.430   3.225   2.750 -0.6347  0.0943  2.4037
17541TIP3    H274039   4.356   3.346   2.803 -0.7441  1.5208 -0.8176
17542TIP3   OH274040   2.628   0.921  15.196 -0.0647 -0.0892  0.0870
17542TIP3    H174041   2.629   0.838  15.149  3.3070 -0.5119  0.6843
17542TIP3    H274042   2.584   0.982  15.137 -2.4166 -2.1602 -0.4527
17543TIP3   OH274043   1.126   6.104  14.738  0.0950 -0.3894 -0.3021
17543TIP3    H174044   1.123   6.036  14.671  2.2161 -0.2702 -0.5718
17543TIP3    H274045   1.196   6.163  14.711 -0.9371  1.2996  0.5288
17544TIP3   OH274046   6.303   6.204   3.519 -0.2181 -0.1397  0.0661
17544TIP3    H174047   6.287   6.260   3.443 -1.7491 -0.2906  0.2416
17544TIP3    H274048   6.222   6.209   3.570  0.9364  0.3328  1.9459
17545TIP3   OH274049   2.107   3.400  16.238 -0.1455  0.1604 -0.3275
17545TIP3    H174050   2.146   3.350  16.167  0.5886  2.3732 -1.5710
17545TIP3    H274051   2.178   3.414  16.301  0.1923  1.2554 -0.9293
17546TIP3   OH274052   0.077   2.290   4.818  0.4575 -0.0586 -0.1974
17546TIP3    H174053  -0.001   2.310   4.870  1.1038  2.6582 -0.1557
17546TIP3    H274054   0.043   2.268   4.731 -0.3915  0.8240 -0.1057
17547TIP3   OH274055   3.058   5.370   4.885  0.2667  0.7116  0.1207
17547TIP3    H174056   2.993   5.351   4.817  0.8065  0.3583 -0.3088
17547TIP3    H274057   3.143   5.352   4.843  0.5559 -0.8868  1.3044
17548TIP3   OH274058   3.733   5.875  12.796  0.8614  0.7823 -0.4985
17548TIP3    H174059   3.776   5.945  12.746 -0.0021  0.7210 -1.3657
17548TIP3    H274060   3.639   5.897  12.792  0.6256 -0.1733 -0.3901
17549TIP3   OH274061   4.294   6.287   4.228  0.2105 -0.1782 -0.0516
17549TIP3    H174062   4.384   6.266   4.207  0.4615 -0.5854  1.3566
17549TIP3    H274063   4.298   6.373   4.270 -0.0502 -0.2212  0.0656
17550TIP3   OH274064   2.114   3.059   5.400 -0.3880 -0.8543 -0.1594
17550TIP3    H174065   2.023   3.075   5.422 -0.0782  0.3739  0.3457
17550TIP3    H274066   2.157   3.044   5.485 -0.0897 -1.2800 -0.3790
17551TIP3   OH274067   1.364   0.046   2.469 -0.6260  0.5950  0.5334
17551TIP3    H174068   1.371   0.138   2.444 -1.0736  0.9217  1.5508
17551TIP3    H274069   1.270   0.029   2.469 -0.5553  0.2002  0.5873
17552TIP3   OH274070   6.307   6.661   0.641  0.2203  0.0532  0.2489
17552TIP3    H174071   6.264   6.746   0.640 -0.6682 -0.3797  0.1029
17552TIP3    H274072   6.400   6.681   0.639  0.0728  1.0438  1.8797
17553TIP3   OH274073   3.221   6.047  13.562 -0.3706  0.2080  0.1235
17553TIP3    H174074   3.316   6.042  13.553 -0.4361 -0.3705 -0.3401
17553TIP3    H274075   3.199   6.137  13.540  0.0594  0.3239  0.1562
17554TIP3   OH274076   0.773   3.895  15.155  0.0897 -0.0979 -0.1568
17554TIP3    H174077   0.780   3.986  15.126  0.9213 -0.1305 -0.0565
17554TIP3    H274078   0.790   3.898  15.249 -0.7099 -0.2572  0.0057
17555TIP3   OH274079   6.529   5.421  14.218 -1.3491 -0.4904 -0.1364
17555TIP3    H174080   6.459   5.373  14.261  0.4017 -2.3995  0.7866
17555TIP3    H274081   6.574   5.466  14.289 -0.3564 -1.0835 -0.3623
17556TIP3   OH274082   0.752   0.325   1.288  0.5370  0.4780 -0.1322
17556TIP3    H174083   0.761   0.362   1.200 -1.6746 -1.1261 -1.1146
17556TIP3    H274084   0.767   0.231   1.276 -0.7820  0.0989  0.9948
17557TIP3   OH274085   0.829   1.842  11.596 -0.1003 -0.3114 -0.3321
17557TIP3    H174086   0.800   1.866  11.684 -1.2881  0.1024 -0.8308
17557TIP3    H274087   0.923   1.861  11.597 -0.3257  0.8909  0.4497
17558TIP3   OH274088   0.694   6.339  14.856  0.2355  0.0456 -0.0601
17558TIP3    H174089   0.635   6.320  14.930  0.3367  0.9855  0.2654
17558TIP3    H274090   0.771   6.377  14.897  0.0303  1.1766 -0.6995
17559TIP3   OH274091   2.353   1.454   0.760 -0.1831  0.2670  0.1473
17559TIP3    H174092   2.441   1.474   0.728  0.1725  0.7418  1.3593
17559TIP3    H274093   2.364   1.440   0.854 -1.3155 -0.2700  0.2189
17560TIP3   OH274094   3.637   1.899  13.570 -0.7503 -0.5001  0.3384
17560TIP3    H174095   3.728   1.873  13.555 -1.0672 -1.1544 -0.4774
17560TIP3    H274096   3.600   1.909  13.483 -0.9421  1.7445  0.6090
17561TIP3   OH274097   0.155   2.616   0.650  0.1305 -0.2273  0.1568
17561TIP3    H174098   0.133   2.537   0.600 -0.9482  0.2505 -0.1430
17561TIP3    H274099   0.075   2.668   0.649  0.2496  0.0442  1.9397
17562TIP3   OH274100   6.416   6.711   2.487 -0.6747 -0.2009 -0.5669
17562TIP3    H174101   6.428   6.641   2.551 -0.7344  0.0438 -0.2860
17562TIP3    H274102   6.448   6.674   2.405  1.5539  0.2264  0.0401
17563TIP3   OH274103   0.675   3.627   4.038 -0.3639  0.2201  0.2508
17563TIP3    H174104   0.759   3.602   4.074 -0.6269 -0.8826  0.1100
17563TIP3    H274105   0.665   3.574   3.959 -1.0319  0.5968  0.0725
17564TIP3   OH274106   2.396   0.915  12.110  0.2345 -0.4244 -0.4783
17564TIP3    H174107   2.464   0.860  12.148 -0.0797 -0.7111 -0.3336
17564TIP3    H274108   2.443   0.974  12.051  0.6148 -0.5796 -0.3281
17565TIP3   OH274109   0.558   0.236  14.181 -0.6060 -0.2374 -0.4144
17565TIP3    H174110   0.524   0.219  14.093 -1.9889  0.6543 -0.0751
17565TIP3    H274111   0.546   0.153  14.227  0.3990 -0.8008 -1.1341
17566TIP3   OH274112   0.821   2.471  16.562  0.3560 -0.8279 -0.3032
17566TIP3    H174113   0.758   2.502  16.627 -0.0188 -0.3156 -0.8957
17566TIP3    H274114   0.907   2.487  16.601  0.1317 -0.8116  0.1891
17567TIP3   OH274115   1.183   6.017   5.812 -0.1508 -0.1682  0.1534
17567TIP3    H174116   1.152   6.108   5.805 -3.0781 -1.1669 -1.8620
17567TIP3    H274117   1.262   6.023   5.865 -0.2673  3.5370  0.1896
17568TIP3   OH274118   4.575   4.593  15.707 -0.3296 -0.5522  0.3076
17568TIP3    H174119   4.508   4.656  15.678  1.1362  1.0658  0.2883
17568TIP3    H274120   4.592   4.540  15.629 -0.0538  0.4585 -0.3465
17569TIP3   OH274121   3.139   0.751  11.611  0.3952 -0.3381 -0.3187
17569TIP3    H174122   3.226   0.717  11.630  1.2361  1.3195 -0.9560
17569TIP3    H274123   3.135   0.755  11.516 -1.2678 -2.4403 -0.4103
17570TIP3   OH274124   2.972   2.311  16.944  0.1142  0.3353  0.4920
17570TIP3    H174125   2.887   2.322  16.986 -0.5236  1.7188 -1.0142
17570TIP3    H274126   2.957   2.246  16.875  0.3778  0.2634  0.4995
17571TIP3   OH274127   2.768   4.219   2.146  0.1662  0.2335 -0.3099
17571TIP3    H174128   2.817   4.300   2.129 -0.8201  0.8380 -0.3261
17571TIP3    H274129   2.818   4.151   2.101  1.9443  0.5280  1.0766
17572TIP3   OH274130   6.599   6.061  16.317 -0.0936 -0.4633 -0.9921
17572TIP3    H174131   6.567   6.046  16.407  0.0998  2.0947 -0.4108
17572TIP3    H274132   6.521   6.086  16.268 -0.0894 -1.1989 -1.3856
17573TIP3   OH274133   0.802   5.498  15.466  0.0549 -0.0674  0.2144
17573TIP3    H174134   0.892   5.529  15.451  0.4087 -1.3506 -0.4436
17573TIP3    H274135   0.796   5.488  15.561  0.2196  1.1044  0.3701
17574TIP3   OH274136   0.935   4.339  15.280  0.4188 -0.0350  0.3798
17574TIP3    H174137   0.885   4.393  15.341 -1.3817 -1.4488  0.2333
17574TIP3    H274138   0.997   4.400  15.240  0.3953  1.3050  2.2489
17575TIP3   OH274139   6.121   5.631  13.312 -0.1551  0.1243 -0.1506
17575TIP3    H174140   6.156   5.716  13.339 -0.7286 -0.0181  1.1430
17575TIP3    H274141   6.043   5.652  13.262 -0.4679  0.3771  0.4260
17576TIP3   OH274142   0.299   4.166  14.389 -0.1669 -0.3903  0.3605
17576TIP3    H174143   0.216   4.121  14.372 -0.4570  0.4529 -0.5584
17576TIP3    H274144   0.310   4.163  14.484 -1.9390  0.6864  0.6379
17577TIP3   OH274145   5.478   3.565  17.096  0.4443  0.0253 -0.2773
17577TIP3    H174146   5.552   3.523  17.140  0.4215 -0.3615 -0.6018
17577TIP3    H274147   5.487   3.658  17.116 -0.4399 -0.2825  1.8650
17578TIP3   OH274148   6.654   4.484   3.190 -0.6986 -0.3805  0.2768
17578TIP3    H174149   6.617   4.555   3.244 -2.1141 -2.0188  1.6060
17578TIP3    H274150   6.718   4.527   3.134 -1.4802  1.9386  1.0402
17579TIP3   OH274151   2.650   3.085   5.043  0.0127 -0.1703  0.3630
17579TIP3    H174152   2.714   3.014   5.049  2.4401  1.8168 -0.6747
17579TIP3    H274153   2.641   3.101   4.949  0.1198  1.4202  0.6053
17580TIP3   OH274154   5.901   2.332   2.821 -0.5171  0.0300  0.1147
17580TIP3    H174155   5.907   2.237   2.834 -1.2261  0.1246  1.3011
17580TIP3    H274156   5.854   2.343   2.739  2.8513 -0.6179 -2.1347
17581TIP3   OH274157   4.218   5.189  14.659 -0.2104  0.0556  0.1837
17581TIP3    H174158   4.150   5.250  14.629 -0.7133 -0.4689  0.2269
17581TIP3    H274159   4.219   5.120  14.591  1.4109  0.8651 -0.6624
17582TIP3   OH274160   6.723   0.603  17.018 -0.1417 -0.3257 -0.3744
17582TIP3    H174161   6.786   0.580  17.086  0.1200  2.0577  0.2646
17582TIP3    H274162   6.638   0.601  17.063  0.0747  1.6966  0.2274
17583TIP3   OH274163   0.019   5.019  12.744 -0.1452 -0.0968  0.1889
17583TIP3    H174164  -0.064   5.058  12.772 -0.4615 -0.3043 -0.4413
17583TIP3    H274165   0.036   4.950  12.808 -1.0467 -0.8111 -0.3192
17584TIP3   OH274166   3.088   2.849  15.002  0.2773 -0.2613 -0.7662
17584TIP3    H174167   3.094   2.858  14.907 -0.4149 -0.0201 -0.7916
17584TIP3    H274168   3.022   2.782  15.017 -0.7715  0.8176 -0.4437
17585TIP3   OH274169   0.407   3.516  13.115  0.0227  0.4878  0.0875
17585TIP3    H174170   0.460   3.552  13.186  0.7703  0.5160 -0.4777
17585TIP3    H274171   0.318   3.515  13.150  0.3122  0.9335  0.8567
17586TIP3   OH274172   1.592   2.147  16.276 -0.4795  0.4079  0.0581
17586TIP3    H174173   1.612   2.093  16.200  0.2633  1.3124 -0.4020
17586TIP3    H274174   1.549   2.225  16.240  1.1198  1.4932  0.3958
17587TIP3   OH274175   4.360   5.014  13.413  0.0110  0.0351 -0.0506
17587TIP3    H174176   4.356   5.084  13.348  0.6330  1.8904  1.8205
17587TIP3    H274177   4.281   5.026  13.466 -0.0237 -0.8987  0.1332
17588TIP3   OH274178   2.117   3.969  14.703  0.1349  0.1457  0.7217
17588TIP3    H174179   2.149   3.991  14.791  1.0793  1.0668  0.1649
17588TIP3    H274180   2.170   4.022  14.644 -0.5484 -0.3980 -0.4126
17589TIP3   OH274181   5.748   1.337  12.483  0.0282  0.2565  0.1046
17589TIP3    H174182   5.686   1.392  12.436  0.2573 -0.6080 -1.2518
17589TIP3    H274183   5.799   1.294  12.415  0.9139 -0.4239  1.1621
17590TIP3   OH274184   1.980   5.134  11.770  0.3037  0.1974  0.3629
17590TIP3    H174185   1.961   5.226  11.751 -1.9228 -0.4009 -0.7287
17590TIP3    H274186   2.053   5.136  11.831  1.4214  2.6314 -0.8991
17591TIP3   OH274187   5.569   6.665   5.098  0.2031  1.0661  0.2623
17591TIP3    H174188   5.544   6.754   5.072  0.9200  1.0191 -0.6687
17591TIP3    H274189   5.664   6.670   5.110  0.0570  0.7776  1.7323
17592TIP3   OH274190   1.108   5.879   5.595  0.4920  0.0465 -0.4507
17592TIP3    H174191   1.161   5.910   5.668  1.9924  0.6921 -1.7591
17592TIP3    H274192   1.054   5.809   5.632  2.2828 -0.6598  0.9549
17593TIP3   OH274193   0.128   4.049   1.530 -0.4156  0.5562  0.1634
17593TIP3    H174194   0.109   4.000   1.610  1.1498 -0.4759 -0.0449
17593TIP3    H274195   0.101   4.138   1.549 -2.2984 -0.1323  0.9718
17594TIP3   OH274196   4.273   4.225   0.169  0.0638 -0.2430 -0.5169
17594TIP3    H174197   4.271   4.301   0.111  2.9461  1.4343  1.3328
17594TIP3    H274198   4.304   4.153   0.113 -3.5999 -0.4796 -2.5224
17595TIP3   OH274199   5.864   0.016  13.617  0.1574  0.3352 -0.1365
17595TIP3    H174200   5.838   0.096  13.663 -1.1353 -0.2429  0.2026
17595TIP3    H274201   5.785  -0.011  13.570  0.8744 -0.1955 -1.0682
17596TIP3   OH274202   0.539   3.147  15.440 -0.2334  0.6860 -0.1120
17596TIP3    H174203   0.516   3.133  15.348  1.1628  0.6118 -0.4761
17596TIP3    H274204   0.589   3.229  15.440  0.7267  0.1141  0.4000
17597TIP3   OH274205   5.116   5.275   2.807  0.3779  0.0215  0.1727
17597TIP3    H174206   5.120   5.267   2.902 -1.2917  0.0692  0.2742
17597TIP3    H274207   5.207   5.289   2.780  0.9171 -0.3340  1.7188
17598TIP3   OH274208   1.982   6.680  15.179  0.4859 -0.4309 -0.4612
17598TIP3    H174209   1.936   6.764  15.182 -1.8439 -1.6772  1.0300
17598TIP3    H274210   2.043   6.690  15.105 -1.7000  1.5584 -2.1729
17599TIP3   OH274211   1.965   0.443  12.441  0.2536  0.3059 -0.3110
17599TIP3    H174212   1.998   0.366  12.488 -1.0149  0.9090  1.7324
17599TIP3    H274213   1.873   0.422  12.422 -0.0933  1.2480  0.2230
17600TIP3   OH274214   1.613   3.313  16.385  0.3286  0.0190 -0.6150
17600TIP3    H174215   1.583   3.373  16.316  0.1856  0.4628 -0.1677
17600TIP3    H274216   1.641   3.370  16.456  1.1858 -0.4221 -0.5854
17601TIP3   OH274217   2.971   3.775  13.003  0.2217 -0.5949  0.5392
17601TIP3    H174218   3.057   3.780  12.962 -0.3688 -0.6083 -0.7517
17601TIP3    H274219   2.909   3.778  12.930 -0.9311  0.9075  1.5114
17602TIP3   OH274220   4.770   6.016  12.886  0.4345 -0.0287  0.8625
17602TIP3    H174221   4.854   6.052  12.914  1.5654  0.2297 -2.4335
17602TIP3    H274222   4.785   5.922  12.879 -0.0184 -0.1655  1.6339
17603TIP3   OH274223   6.782   0.425   4.323 -0.2740  0.0756  0.0345
17603TIP3    H174224   6.720   0.352   4.326  1.2805 -1.3122 -0.0569
17603TIP3    H274225   6.827   0.422   4.408 -1.3310  2.0407  0.7342
17604TIP3   OH274226   0.965   1.748  17.180 -0.1088 -0.2817 -0.6635
17604TIP3    H174227   0.872   1.770  17.182  0.1387  0.7524  0.3877
17604TIP3    H274228   1.009   1.833  17.183  0.8700 -0.7851  1.9373
17605TIP3   OH274229   2.696   3.597   2.081  0.2147  0.5218  0.3961
17605TIP3    H174230   2.622   3.542   2.104 -0.3190  0.9020 -0.3818
17605TIP3    H274231   2.773   3.548   2.111 -0.3312  0.0448  1.0446
17606TIP3   OH274232   1.467   0.026   4.653  0.2233  0.2007  0.0575
17606TIP3    H174233   1.465  -0.066   4.626  0.6461  0.3698 -0.5753
17606TIP3    H274234   1.473   0.075   4.571 -0.6021  0.8237  0.3602
17607TIP3   OH274235   1.934   5.865  15.885  1.1354  0.2566  0.0937
17607TIP3    H174236   1.977   5.783  15.861  0.9156 -0.1795  1.1189
17607TIP3    H274237   1.975   5.931  15.830  0.7738 -0.6506 -1.3090
17608TIP3   OH274238   2.267   1.380  15.965 -0.0954 -0.4201  0.2212
17608TIP3    H174239   2.242   1.288  15.961 -2.8319  0.2171  0.9132
17608TIP3    H274240   2.305   1.390  16.053 -0.1203 -0.7925  0.2775
17609TIP3   OH274241   3.863   4.119  11.764  0.0658 -0.2497  0.1729
17609TIP3    H174242   3.841   4.074  11.682 -0.2065  2.2346 -1.2176
17609TIP3    H274243   3.805   4.195  11.766  2.6874  1.9041  0.6746
17610TIP3   OH274244   5.651   2.252  14.053 -0.1789  0.0135  0.1925
17610TIP3    H174245   5.727   2.298  14.088  0.8242 -0.2324 -1.5008
17610TIP3    H274246   5.641   2.288  13.964  0.1321 -2.3492 -0.8851
17611TIP3   OH274247   1.740   3.904  13.130 -0.1508 -0.6394 -0.3550
17611TIP3    H174248   1.829   3.890  13.163  0.4455 -0.3556 -1.7611
17611TIP3    H274249   1.732   3.844  13.056  0.4747  2.2422 -2.9991
17612TIP3   OH274250   6.579   6.036  16.611 -0.1264 -0.5730 -0.2523
17612TIP3    H174251   6.658   6.006  16.656  0.1570 -0.7712 -0.8674
17612TIP3    H274252   6.531   5.956  16.590 -0.1570 -0.4960 -0.4781
17613TIP3   OH274253   4.945   1.185  12.692  0.7088 -0.5008 -0.3032
17613TIP3    H174254   4.962   1.237  12.770 -2.7790 -0.3202  0.4992
17613TIP3    H274255   4.929   1.097  12.725 -0.3187 -0.5305 -0.8310
17614TIP3   OH274256   2.732   5.683   0.713 -0.1900  0.0758  0.1875
17614TIP3    H174257   2.657   5.733   0.746  1.1896  0.5902  2.7814
17614TIP3    H274258   2.797   5.749   0.689  0.2816 -0.4180  0.0746
17615TIP3   OH274259   6.450   2.095  12.903  0.2454 -0.0350  0.1988
17615TIP3    H174260   6.363   2.120  12.935  0.0977 -2.8013  2.3879
17615TIP3    H274261   6.510   2.121  12.973  0.6936 -1.0788  0.2337
17616TIP3   OH274262   6.107   2.937  10.381 -0.1779  0.2674 -0.1294
17616TIP3    H174263   6.109   2.976  10.468 -1.2604  2.1631 -0.9040
17616TIP3    H274264   6.123   2.844  10.396 -0.4801  0.5287  2.1036
17617TIP3   OH274265   3.003   3.001  14.115 -0.1872 -0.4187 -0.2262
17617TIP3    H174266   2.913   2.988  14.086  0.2167 -1.0259 -1.2292
17617TIP3    H274267   3.052   3.021  14.036  0.5535  0.0240  0.3242
17618TIP3   OH274268   2.443   3.829  16.928  0.1679 -0.0266  0.6871
17618TIP3    H174269   2.354   3.861  16.938  0.5383  1.1393  0.4201
17618TIP3    H274270   2.451   3.809  16.834 -0.1248 -1.1315  0.8838
17619TIP3   OH274271   3.759   2.924   0.236 -0.0943 -0.1537  0.3083
17619TIP3    H174272   3.849   2.893   0.240 -0.7976 -2.1933  1.5669
17619TIP3    H274273   3.755   2.978   0.157  1.7373 -1.6282 -0.8487
17620TIP3   OH274274   0.688   0.011   5.635 -0.7347  0.0408  0.4552
17620TIP3    H174275   0.706   0.079   5.570 -0.7783  1.7332  2.1462
17620TIP3    H274276   0.594   0.015   5.648 -0.6528  0.0908  1.0326
17621TIP3   OH274277   4.793   0.706   4.703  0.4026 -0.1364  0.2120
17621TIP3    H174278   4.874   0.669   4.668  0.2105  1.0386 -1.6426
17621TIP3    H274279   4.725   0.644   4.679  0.4759 -0.0412 -0.2629
17622TIP3   OH274280   0.079   4.211  11.599  0.4594  0.4616 -0.2572
17622TIP3    H174281   0.137   4.191  11.673  0.6786  0.2718 -0.4807
17622TIP3    H274282   0.105   4.298  11.570 -0.8318  1.3293  1.0403
17623TIP3   OH274283   0.437   5.736  11.847  0.4042  0.3986 -0.2563
17623TIP3    H174284   0.366   5.741  11.782  1.3669 -0.8807 -1.4740
17623TIP3    H274285   0.516   5.723  11.795  1.3971  0.6727  1.1355
17624TIP3   OH274286   3.161   5.076  13.069  0.3060 -0.5563 -0.2511
17624TIP3    H174287   3.127   5.163  13.088  3.6143  0.9144 -0.5011
17624TIP3    H274288   3.250   5.076  13.104  0.8242 -3.4438 -1.2874
17625TIP3   OH274289   5.684   3.720  12.547  0.5767  0.1607 -0.7784
17625TIP3    H174290   5.640   3.731  12.463 -1.0801  1.6442  0.2005
17625TIP3    H274291   5.674   3.806  12.590  0.6072 -0.7987  1.2635
17626TIP3   OH274292   5.910   1.492  13.046 -0.3770 -0.1409 -0.0435
17626TIP3    H174293   5.982   1.549  13.022  1.2903 -1.4457  1.5381
17626TIP3    H274294   5.929   1.465  13.136 -2.8596 -0.5407  0.4464
17627TIP3   OH274295   1.700   0.325  16.973  0.0689  0.0996 -0.1124
17627TIP3    H174296   1.679   0.413  17.004 -0.4836 -0.3116  0.7153
17627TIP3    H274297   1.776   0.299  17.025 -0.0723 -0.0965 -0.0010
17628TIP3   OH274298   6.696   2.036  12.416  0.3301  0.5598 -0.4647
17628TIP3    H174299   6.786   2.043  12.384  1.2500 -2.8771  0.9255
17628TIP3    H274300   6.688   2.107  12.480  3.0436 -0.6101  1.3289
17629TIP3   OH274301   0.529   3.912   5.801  0.7619  0.5425 -0.4510
17629TIP3    H174302   0.474   3.945   5.730  1.5365 -3.1971 -3.1378
17629TIP3    H274303   0.600   3.976   5.808 -0.5106  2.1416 -1.4853
17630TIP3   OH274304   0.972   0.435   1.121  0.0059  0.5528 -0.3209
17630TIP3    H174305   0.917   0.505   1.154 -0.3928  0.8164 -1.5006
17630TIP3    H274306   1.011   0.470   1.041  0.0472 -0.4504 -0.7617
17631TIP3   OH274307   3.824   0.540  10.242 -0.0062 -0.6546 -0.5045
17631TIP3    H174308   3.854   0.613  10.187  1.5981 -1.4057 -0.6566
17631TIP3    H274309   3.746   0.575  10.285  0.6861  1.1455 -0.5957
17632TIP3   OH274310   3.438   2.463  14.331 -0.4031  0.2931 -0.7964
17632TIP3    H174311   3.443   2.431  14.421  0.8906 -0.6843 -1.1832
17632TIP3    H274312   3.394   2.548  14.338 -1.7662 -0.4756  0.5511
17633TIP3   OH274313   1.648   5.757  15.822 -0.0798 -0.1341 -0.2790
17633TIP3    H174314   1.639   5.753  15.917  1.2310  0.1292 -0.1230
17633TIP3    H274315   1.733   5.800  15.808 -0.2571 -0.1673 -1.5653
17634TIP3   OH274316   4.837   3.364   2.247  0.0470 -0.4011  0.2036
17634TIP3    H174317   4.802   3.433   2.303  1.0764  1.5457 -1.4170
17634TIP3    H274318   4.772   3.293   2.253 -2.1854  1.5213  0.3136
17635TIP3   OH274319   0.706   3.761  10.785 -0.0695  0.3817  0.2444
17635TIP3    H174320   0.726   3.760  10.691 -0.6483  3.0900  0.0008
17635TIP3    H274321   0.626   3.815  10.791 -1.0117 -1.1305  2.1541
17636TIP3   OH274322   6.685   1.892  13.896 -0.0225 -0.0522 -0.1661
17636TIP3    H174323   6.728   1.814  13.860  0.8914  0.5404 -0.3809
17636TIP3    H274324   6.669   1.870  13.988  0.6362 -0.3308 -0.1123
17637TIP3   OH274325   2.618   5.157  15.049  0.2132  0.4058 -0.0292
17637TIP3    H174326   2.659   5.243  15.038 -0.5097  0.6742 -0.7249
17637TIP3    H274327   2.654   5.104  14.978 -0.4255  0.5627 -0.4750
17638TIP3   OH274328   5.681   3.386  15.830 -0.8541 -0.2681 -0.2317
17638TIP3    H174329   5.665   3.386  15.736  1.4459 -1.7917 -0.7153
17638TIP3    H274330   5.732   3.466  15.845 -2.0084  0.4565 -0.0883
17639TIP3   OH274331   4.317   3.717   1.198 -0.2485 -0.1067 -0.2113
17639TIP3    H174332   4.277   3.784   1.143 -0.1904  0.6943  0.7116
17639TIP3    H274333   4.344   3.649   1.136 -1.2378  0.2380 -1.0470
17640TIP3   OH274334   5.832   4.282   4.864  0.0321 -0.7849  0.3009
17640TIP3    H174335   5.923   4.260   4.883 -0.3706 -1.6122  1.4355
17640TIP3    H274336   5.831   4.377   4.860  0.7723 -0.7118  1.3125
17641TIP3   OH274337   0.422   2.546  11.112  0.2393 -0.4413 -0.0006
17641TIP3    H174338   0.498   2.491  11.127  0.8968  0.0320 -1.3808
17641TIP3    H274339   0.357   2.488  11.073  0.9036 -0.2982 -1.3846
17642TIP3   OH274340   5.473   2.858  13.409  0.5746  0.6136 -1.0510
17642TIP3    H174341   5.448   2.836  13.499  0.7153 -0.7765 -1.3393
17642TIP3    H274342   5.419   2.934  13.387  0.5697  0.9908  0.2148
17643TIP3   OH274343   2.195   5.836   1.487 -0.0472  0.0549 -0.1594
17643TIP3    H174344   2.245   5.756   1.504 -1.2690 -0.7099 -0.0483
17643TIP3    H274345   2.258   5.907   1.500  0.6511 -0.7937  1.3456
17644TIP3   OH274346   5.133   3.246  17.084  0.3660 -0.2320  0.2189
17644TIP3    H174347   5.198   3.291  17.031  0.1624  1.2543  1.1643
17644TIP3    H274348   5.058   3.235  17.026  0.5141  0.4458 -0.1119
17645TIP3   OH274349   6.716   2.933   3.808  0.3970  0.5200  0.2111
17645TIP3    H174350   6.793   2.953   3.862  0.0516 -0.7922  1.2346
17645TIP3    H274351   6.643   2.932   3.870 -0.3382  0.9690 -0.6238
17646TIP3   OH274352   4.710   3.692  11.033  0.4346  0.2083  0.1592
17646TIP3    H174353   4.774   3.693  11.104  0.1148 -1.0534  0.4883
17646TIP3    H274354   4.715   3.603  10.998 -1.5685 -0.1067  0.5786
17647TIP3   OH274355   3.675   1.359   4.578  0.7694 -0.2785  0.6726
17647TIP3    H174356   3.755   1.405   4.553  0.5642  0.0181  0.5674
17647TIP3    H274357   3.610   1.387   4.514  0.3403  0.1980  1.3122
17648TIP3   OH274358   4.227   5.191  14.044  0.0383  0.3902 -0.4462
17648TIP3    H174359   4.157   5.237  14.091 -0.6442 -0.7442 -0.2985
17648TIP3    H274360   4.277   5.146  14.113 -1.6328 -2.1914 -0.7605
17649TIP3   OH274361   1.144   2.497   3.995  0.0551  0.7402  0.3802
17649TIP3    H174362   1.093   2.431   3.949 -0.6725  2.2449 -1.1112
17649TIP3    H274363   1.162   2.564   3.929  1.0582  1.8736  1.7223
17650TIP3   OH274364   3.263   2.389   2.827 -0.2930  0.3612 -0.2385
17650TIP3    H174365   3.321   2.457   2.794 -0.5571  0.4732 -0.4790
17650TIP3    H274366   3.191   2.386   2.764 -0.1810 -0.2845 -0.3347
17651TIP3   OH274367   3.696   0.456  14.443 -0.1519  0.4008 -0.0154
17651TIP3    H174368   3.628   0.517  14.469  0.4804  0.3681  1.8167
17651TIP3    H274369   3.772   0.512  14.425  0.0300  0.2526  0.2997
17652TIP3   OH274370   5.956   5.962   4.024 -0.6045 -0.6639  0.5894
17652TIP3    H174371   6.037   5.911   4.019  0.0065  0.3379 -0.2730
17652TIP3    H274372   5.984   6.048   4.055 -1.6152 -0.8104  2.0073
17653TIP3   OH274373   4.727   1.434   1.643 -0.1305  0.8872 -0.1581
17653TIP3    H174374   4.735   1.446   1.548  1.5243  0.0770 -0.1473
17653TIP3    H274375   4.801   1.483   1.680 -0.6717  1.0648  0.7158
17654TIP3   OH274376   3.490   3.973  12.490  0.2998 -0.0164 -0.5988
17654TIP3    H174377   3.433   3.928  12.427 -0.0847 -1.7914  0.9186
17654TIP3    H274378   3.430   4.023  12.545  0.4525  0.0105 -0.4556
17655TIP3   OH274379   4.334   4.269   3.323  0.2856 -0.3652 -0.3786
17655TIP3    H174380   4.377   4.272   3.238 -0.8508 -1.6933 -1.0274
17655TIP3    H274381   4.347   4.179   3.353 -0.6269 -0.3276  0.1606
17656TIP3   OH274382   1.259   0.944  16.050 -0.1731 -0.0513  0.6917
17656TIP3    H174383   1.248   0.883  16.123 -0.9986 -0.3655  0.3146
17656TIP3    H274384   1.245   1.031  16.089 -3.0653 -0.3436  0.4857
17657TIP3   OH274385   5.452   6.299  15.414 -0.4599  0.0658  0.2420
17657TIP3    H174386   5.396   6.373  15.387  0.4706  0.8565  0.4149
17657TIP3    H274387   5.404   6.258  15.486 -0.5107  1.1712  0.8671
17658TIP3   OH274388   4.464   6.447   0.561  0.2191 -0.0508 -0.6811
17658TIP3    H174389   4.513   6.510   0.508  0.4627 -1.6775 -2.5392
17658TIP3    H274390   4.518   6.433   0.638  0.2468  1.8156 -0.3126
17659TIP3   OH274391   3.744   5.911   0.500 -0.0740  0.4938  0.1741
17659TIP3    H174392   3.744   5.845   0.431 -0.2025  2.2112 -1.5481
17659TIP3    H274393   3.776   5.990   0.458  0.7654  1.3882  2.3526
17660TIP3   OH274394   6.402   2.443   4.940 -0.8201 -0.1439 -0.2380
17660TIP3    H174395   6.420   2.536   4.953 -2.6862 -0.0330  2.3130
17660TIP3    H274396   6.334   2.441   4.872  0.0596  0.2222 -1.1604
17661TIP3   OH274397   5.133   2.552   1.690 -0.2745 -0.1524  0.0169
17661TIP3    H174398   5.228   2.546   1.701 -0.5831 -0.9786  3.3067
17661TIP3    H274399   5.099   2.475   1.735 -2.6201  1.7058  1.6269
17662TIP3   OH274400   2.241   1.225  14.763  0.1080 -0.3153 -0.6038
17662TIP3    H174401   2.335   1.205  14.754 -0.0955 -0.8599 -1.7080
17662TIP3    H274402   2.239   1.310  14.807  1.1324  0.0479 -1.2122
17663TIP3   OH274403   0.048   5.301  13.890  0.4037 -0.3057 -0.0405
17663TIP3    H174404   0.141   5.292  13.873  0.6496  3.3624 -1.4818
17663TIP3    H274405   0.006   5.243  13.825  1.6435 -0.1012 -1.0517
17664TIP3   OH274406   3.243   2.774   3.449 -0.1407 -0.2723 -0.3927
17664TIP3    H174407   3.293   2.847   3.484 -2.7119  1.3185  0.2942
17664TIP3    H274408   3.245   2.786   3.354  0.4972 -0.0499 -0.3527
17665TIP3   OH274409   6.753   6.783   2.674  0.2566 -0.2621 -0.2205
17665TIP3    H174410   6.822   6.828   2.627 -0.9109  0.0873 -1.6830
17665TIP3    H274411   6.796   6.745   2.751  2.0800 -0.2376 -1.1882
17666TIP3   OH274412   4.157   3.178   5.540 -0.7685 -0.1175 -0.3671
17666TIP3    H174413   4.153   3.176   5.444  0.1284 -1.9975 -0.4187
17666TIP3    H274414   4.128   3.266   5.564 -1.3817  0.2637 -2.3393
17667TIP3   OH274415   0.920   5.260   4.110  0.0386  0.0448  0.0915
17667TIP3    H174416   0.945   5.353   4.116 -0.4114  0.1075  1.1181
17667TIP3    H274417   0.891   5.249   4.020 -0.8388  1.1507  0.2252
17668TIP3   OH274418   6.325   4.878  14.625 -0.2258  1.0805 -0.1537
17668TIP3    H174419   6.274   4.803  14.594  1.0326  0.3120 -0.4738
17668TIP3    H274420   6.264   4.928  14.679 -0.9093 -0.5973  0.7220
17669TIP3   OH274421   3.710   2.090  15.871 -0.7225 -0.6841  0.3579
17669TIP3    H174422   3.687   2.017  15.815  0.4080  0.2963 -1.4966
17669TIP3    H274423   3.677   2.167  15.825  0.9242  0.2240  0.6074
17670TIP3   OH274424   6.392   3.299   1.895 -0.1423 -0.2959  0.7319
17670TIP3    H174425   6.302   3.326   1.915 -0.1023  0.3561  0.0707
17670TIP3    H274426   6.390   3.278   1.802 -0.0265 -2.0561  1.0972
17671TIP3   OH274427   5.252   5.205  14.466  0.1466  0.1288 -0.1983
17671TIP3    H174428   5.179   5.181  14.523  0.5215 -0.7143 -0.0582
17671TIP3    H274429   5.305   5.126  14.460  1.3373  0.8785  0.1220
17672TIP3   OH274430   1.603   6.655   4.858  0.4151 -0.7414  0.4441
17672TIP3    H174431   1.564   6.728   4.810  4.3873  0.7486 -0.9701
17672TIP3    H274432   1.556   6.578   4.827 -1.4653  0.8413 -0.8613
17673TIP3   OH274433   1.991   6.018   4.774  0.2829 -0.0676  0.1690
17673TIP3    H174434   2.037   6.101   4.763  0.9725 -0.0810  2.3955
17673TIP3    H274435   2.061   5.952   4.775  0.2347 -0.1787  2.6707
17674TIP3   OH274436   4.172   3.576   0.380 -0.4291  0.9138  0.5571
17674TIP3    H174437   4.183   3.627   0.300  0.6083  0.1417  0.1909
17674TIP3    H274438   4.079   3.553   0.382 -0.3460  0.4141 -0.7525
17675TIP3   OH274439   3.671   6.733   4.112  0.3111  0.5388 -0.8096
17675TIP3    H174440   3.691   6.727   4.206  0.8754  0.1408 -0.9517
17675TIP3    H274441   3.675   6.827   4.093 -1.7914  0.8477 -0.0191
17676TIP3   OH274442   0.545   4.476   4.872  0.0507  0.2023 -0.0301
17676TIP3    H174443   0.618   4.424   4.839  1.0554  2.0081 -0.8409
17676TIP3    H274444   0.525   4.537   4.801 -1.8833  0.1524  0.4019
17677TIP3   OH274445   0.688   4.559  11.539 -0.1620 -0.3007 -0.0609
17677TIP3    H174446   0.769   4.605  11.563 -0.1890 -0.3420  0.1063
17677TIP3    H274447   0.717   4.491  11.479 -0.0245 -0.5530  0.2906
17678TIP3   OH274448   1.703   6.005   6.057 -0.3000 -0.2346 -0.7606
17678TIP3    H174449   1.728   6.011   5.964 -0.2272 -0.8570 -0.7863
17678TIP3    H274450   1.767   6.059   6.102 -0.9048  0.8492 -1.1669
17679TIP3   OH274451   3.525   4.605  14.276 -0.6755 -0.0370  0.0749
17679TIP3    H174452   3.546   4.610  14.369  0.3404  0.5547 -0.1726
17679TIP3    H274453   3.478   4.686  14.258 -1.0318 -0.2346  0.1012
17680TIP3   OH274454   6.424   2.098   2.231 -0.1951 -0.5081  0.1993
17680TIP3    H174455   6.499   2.066   2.282  0.6030 -0.3258 -0.8332
17680TIP3    H274456   6.455   2.097   2.141 -1.4781 -0.5046 -0.2505
17681TIP3   OH274457   5.203   5.966   6.702 -0.2452  0.2819 -0.0706
17681TIP3    H174458   5.137   6.025   6.740  0.2421  0.5631  0.3432
17681TIP3    H274459   5.252   6.021   6.641  0.3402  0.3608  0.4653
17682TIP3   OH274460   0.864   1.440   5.318 -0.2258  0.0394 -0.1427
17682TIP3    H174461   0.852   1.350   5.288  1.8944  0.1840 -1.6057
17682TIP3    H274462   0.821   1.494   5.251  1.2079  0.2120 -0.9505
17683TIP3   OH274463   6.037   0.338  12.096  0.0331 -0.3417 -0.2088
17683TIP3    H174464   6.093   0.399  12.048 -0.4824  1.5814  1.4939
17683TIP3    H274465   6.097   0.268  12.123  1.7187  1.5745  1.4190
17684TIP3   OH274466   0.046   3.282  16.769 -0.0875 -0.4089 -0.2032
17684TIP3    H174467  -0.014   3.327  16.710  0.6923 -0.8241 -1.3346
17684TIP3    H274468   0.102   3.230  16.712  1.4130  0.0329  0.7932
17685TIP3   OH274469   5.687   1.541  16.110  0.5932 -0.9876 -0.0019
17685TIP3    H174470   5.644   1.467  16.070 -2.4578  0.5796  0.0938
17685TIP3    H274471   5.701   1.515  16.202 -4.8534 -0.0290  1.4094
17686TIP3   OH274472   0.127   2.191  11.507  0.1279  0.5077 -0.0143
17686TIP3    H174473   0.188   2.166  11.438 -0.7135 -1.2776 -0.1765
17686TIP3    H274474   0.052   2.229  11.461 -0.8586 -1.5688 -0.2369
17687TIP3   OH274475   1.764   2.492  14.084  0.6614 -0.9894  0.4951
17687TIP3    H174476   1.823   2.424  14.117  1.8019 -0.3885 -0.2227
17687TIP3    H274477   1.682   2.477  14.130  0.3332 -3.9010 -0.8008
17688TIP3   OH274478   0.150   1.752   2.089 -0.2960  0.1022  0.3488
17688TIP3    H174479   0.184   1.840   2.107 -1.7699  0.6110  0.8449
17688TIP3    H274480   0.056   1.765   2.077 -0.1421 -0.8987 -3.1621
17689TIP3   OH274481   0.999   0.010   2.129 -0.6179 -0.5802  0.1518
17689TIP3    H174482   1.011  -0.071   2.079 -0.0078 -0.5912  0.3009
17689TIP3    H274483   1.042   0.077   2.076  0.2257 -0.6295  0.7554
17690TIP3   OH274484   5.919   2.459   4.485 -0.0814 -0.6196 -0.0420
17690TIP3    H174485   5.906   2.547   4.521 -1.1237 -1.1414  0.9091
17690TIP3    H274486   5.880   2.401   4.549 -0.9626 -1.6810 -1.4883
17691TIP3   OH274487   1.894   0.706  13.697 -0.1847  0.3495  0.0973
17691TIP3    H174488   1.922   0.660  13.618 -2.0270  0.6197 -0.7646
17691TIP3    H274489   1.897   0.639  13.766 -0.9713 -0.5763 -0.7363
17692TIP3   OH274490   4.750   4.102   3.246  0.3546  0.6147 -0.2674
17692TIP3    H174491   4.660   4.109   3.213  0.0501  1.2055  0.6424
17692TIP3    H274492   4.805   4.125   3.171 -0.2112 -0.4613 -1.0399
17693TIP3   OH274493   6.343   3.799   5.796 -0.5072 -0.0095 -0.5062
17693TIP3    H174494   6.391   3.772   5.874  0.3538  1.3829 -0.5080
17693TIP3    H274495   6.411   3.821   5.732 -1.1584 -2.9982 -2.4113
17694TIP3   OH274496   5.527   2.007   0.510 -0.0738 -0.2260  0.3332
17694TIP3    H174497   5.622   1.993   0.507 -0.3645 -2.5681  0.6130
17694TIP3    H274498   5.497   1.987   0.421 -0.3775  0.1144  0.3550
17695TIP3   OH274499   4.623   6.782   4.759  0.6889 -0.0601 -0.3634
17695TIP3    H174500   4.589   6.757   4.845 -0.4860  1.0781 -0.4680
17695TIP3    H274501   4.599   6.874   4.749 -0.0243 -0.4014 -2.2650
17696TIP3   OH274502   6.127   0.781   2.898  0.4200  0.2681 -0.1799
17696TIP3    H174503   6.068   0.727   2.951  0.2182  1.1394  0.5054
17696TIP3    H274504   6.215   0.746   2.917  0.6998  2.3029  3.0156
17697TIP3   OH274505   6.086   5.096   1.292 -0.5400  0.1246 -0.5524
17697TIP3    H174506   6.150   5.153   1.336 -0.8058  0.6427 -0.8318
17697TIP3    H274507   6.109   5.100   1.199  0.2037 -1.2055 -0.4512
17698TIP3   OH274508   2.374   5.747   4.395  1.0407 -0.3997  0.3726
17698TIP3    H174509   2.360   5.722   4.486  1.1030 -0.2518  0.4223
17698TIP3    H274510   2.295   5.794   4.370  0.0486 -2.2869 -0.3066
17699TIP3   OH274511   6.272   1.236   2.960  0.0421 -0.1210 -0.0412
17699TIP3    H174512   6.300   1.161   2.907 -2.7692 -0.3240 -1.4089
17699TIP3    H274513   6.209   1.199   3.022  0.8844  0.6828  1.3627
17700TIP3   OH274514   4.939   4.830   3.197 -0.1087 -0.0510 -0.4052
17700TIP3    H174515   4.855   4.800   3.232  0.7591 -2.8794 -0.5520
17700TIP3    H274516   4.997   4.834   3.273  0.6739 -2.1779 -0.8292
17701TIP3   OH274517   6.517   3.462   0.091 -0.1699  0.0180  0.0553
17701TIP3    H174518   6.468   3.445   0.011 -0.9161  1.5450  0.1399
17701TIP3    H274519   6.456   3.438   0.161 -0.6777  1.5319  0.1594
17702TIP3   OH274520   3.577   3.360  17.194  0.3490  0.6011 -0.0260
17702TIP3    H174521   3.593   3.453  17.209 -0.6958  0.9691 -1.0985
17702TIP3    H274522   3.602   3.318  17.277  1.2175  1.7741  0.3329
17703TIP3   OH274523   4.848   1.056   0.749 -0.6303 -0.5469 -0.3244
17703TIP3    H174524   4.849   1.078   0.656  0.1042 -0.0351 -0.2072
17703TIP3    H274525   4.786   1.118   0.787  0.1878  0.2570 -0.2556
17704TIP3   OH274526   1.875   4.632  14.417 -0.5119  0.1443 -0.3876
17704TIP3    H174527   1.904   4.714  14.378 -3.1240  0.9316 -0.8812
17704TIP3    H274528   1.805   4.658  14.478 -0.3300 -1.5754  0.6083
17705TIP3   OH274529   5.277   3.926  15.923  0.2592  0.0802 -0.4295
17705TIP3    H174530   5.334   3.927  15.847  0.4883  0.7642 -0.2556
17705TIP3    H274531   5.201   3.874  15.896 -0.1207  1.1218 -1.4551
17706TIP3   OH274532   0.685   0.754   6.092 -0.6011  0.9100  0.0136
17706TIP3    H174533   0.681   0.737   6.186 -2.0558 -0.3053 -0.2373
17706TIP3    H274534   0.777   0.777   6.076  0.1084 -0.6780  1.4337
17707TIP3   OH274535   3.322   0.612   4.740  0.1147 -0.9712 -0.2467
17707TIP3    H174536   3.292   0.702   4.749 -0.2871 -1.1543  0.2916
17707TIP3    H274537   3.246   0.559   4.761  0.6831 -1.4422  0.7003
17708TIP3   OH274538   1.789   2.267  14.296  0.2391 -0.0610 -0.1872
17708TIP3    H174539   1.775   2.307  14.381  1.0802  0.3897 -0.2460
17708TIP3    H274540   1.880   2.238  14.297 -0.5154 -2.6412  0.1042
17709TIP3   OH274541   5.690   2.646  13.056 -0.5347 -0.2347  0.3621
17709TIP3    H174542   5.712   2.680  13.142 -0.5658 -1.4252  0.8549
17709TIP3    H274543   5.686   2.723  13.000 -0.3218  0.5303  1.3804
17710TIP3   OH274544   1.578   4.277  16.745  0.2780 -0.2797  0.4662
17710TIP3    H174545   1.654   4.284  16.686  0.8274  0.2070  1.2041
17710TIP3    H274546   1.561   4.183  16.750  0.1022 -0.3190 -0.6076
17711TIP3   OH274547   5.270   5.694  12.496 -0.0622 -0.5047  0.9715
17711TIP3    H174548   5.301   5.603  12.490  0.5489 -0.2497 -0.1341
17711TIP3    H274549   5.177   5.689  12.474  0.2145 -0.7466 -0.2355
17712TIP3   OH274550   6.135   2.329   5.536 -0.4889 -0.0183  0.0451
17712TIP3    H174551   6.218   2.375   5.521 -0.3768 -0.2204  0.0474
17712TIP3    H274552   6.126   2.327   5.631  0.3071 -1.4154  0.1210
17713TIP3   OH274553   6.600   5.321   5.765 -0.0355  0.4732 -0.1528
17713TIP3    H174554   6.596   5.349   5.674  0.4355 -0.2370 -0.3992
17713TIP3    H274555   6.640   5.234   5.762 -4.3143 -1.7621  0.3030
17714TIP3   OH274556   4.013   2.834  16.096 -0.1886 -0.0180  0.2545
17714TIP3    H174557   3.974   2.868  16.177 -0.3103  0.6784 -0.0896
17714TIP3    H274558   4.028   2.741  16.114  0.6506  0.3197  1.3997
17715TIP3   OH274559   3.119   2.282   1.962  0.0587 -0.4089  0.3821
17715TIP3    H174560   3.101   2.223   1.889 -0.0444 -0.0958  0.1515
17715TIP3    H274561   3.163   2.357   1.923 -0.1602 -0.1561  0.6129
17716TIP3   OH274562   5.870   4.184   2.362  0.1869  0.4368 -0.8719
17716TIP3    H174563   5.784   4.161   2.396 -1.1720  2.2801 -2.7614
17716TIP3    H274564   5.912   4.100   2.342 -1.2837 -0.4976 -0.1677
17717TIP3   OH274565   1.327   5.729  14.845 -0.2754 -0.1823 -0.3678
17717TIP3    H174566   1.391   5.760  14.781  2.0706  0.8988  2.2722
17717TIP3    H274567   1.304   5.806  14.897 -1.1335 -1.2088  0.8765
17718TIP3   OH274568   1.014   5.067   3.871 -0.3397  0.0144  0.0167
17718TIP3    H174569   0.975   4.981   3.856 -0.0397 -0.2994  0.9902
17718TIP3    H274570   1.106   5.048   3.889 -0.4101  0.4877  0.8917
17719TIP3   OH274571   0.636   0.971  11.395 -0.1426  1.0966  0.4242
17719TIP3    H174572   0.708   0.922  11.433 -0.2528  0.7907  0.2392
17719TIP3    H274573   0.653   0.971  11.301 -0.8610  0.2368  0.2826
17720TIP3   OH274574   4.543   4.743   4.844  0.2508 -0.0790  0.0008
17720TIP3    H174575   4.482   4.755   4.772  0.2869  1.0370  0.1403
17720TIP3    H274576   4.566   4.650   4.841  1.0839  0.1462 -2.0914
17721TIP3   OH274577   2.536   2.409   1.265 -0.1744 -0.0131 -0.2343
17721TIP3    H174578   2.575   2.330   1.228  0.9099 -0.2728  1.3420
17721TIP3    H274579   2.460   2.427   1.210 -0.6266 -2.3328 -0.4467
17722TIP3   OH274580   3.616   4.142  11.028  0.5101 -0.1949  1.2427
17722TIP3    H174581   3.663   4.101  10.955  1.2155 -1.0296  2.1427
17722TIP3    H274582   3.683   4.160  11.093 -0.3812 -1.2416  2.4912
17723TIP3   OH274583   5.171   0.018  15.504 -0.0369 -0.5545  0.4309
17723TIP3    H174584   5.082  -0.017  15.498  0.2824 -1.2960  0.0353
17723TIP3    H274585   5.225  -0.056  15.531  0.8534 -0.7106 -1.5991
17724TIP3   OH274586   3.186   6.086  16.791 -0.3985  0.0436  0.2357
17724TIP3    H174587   3.101   6.045  16.772 -0.2438 -0.7433  1.1571
17724TIP3    H274588   3.236   6.075  16.711 -0.2289 -1.9579  0.5575
17725TIP3   OH274589   3.049   1.641   3.112  0.2553 -0.2513 -0.6463
17725TIP3    H174590   3.134   1.610   3.080  1.7847  1.1138  1.7930
17725TIP3    H274591   3.059   1.736   3.116 -1.6168 -0.0141 -0.8144
17726TIP3   OH274592   6.701   2.278   4.129  0.2147  0.0963  0.5727
17726TIP3    H174593   6.763   2.271   4.201 -0.4796  1.1459  1.3160
17726TIP3    H274594   6.732   2.353   4.079 -0.0375  0.1788  0.5372
17727TIP3   OH274595   2.709   2.769  15.727  0.3987 -0.5608  0.0131
17727TIP3    H174596   2.633   2.733  15.773  0.0456  0.6482  0.4217
17727TIP3    H274597   2.734   2.701  15.665 -3.4365  0.4181 -2.9535
17728TIP3   OH274598   0.642   2.560  16.749  0.1636  0.1017  0.2803
17728TIP3    H174599   0.590   2.487  16.782 -0.6231  0.7380  0.4730
17728TIP3    H274600   0.578   2.628  16.727  0.9158  1.0225  0.8334
17729TIP3   OH274601   1.253   2.335  16.904 -0.0809  0.0025 -0.1301
17729TIP3    H174602   1.217   2.302  16.822 -1.5262  1.6361 -0.2015
17729TIP3    H274603   1.283   2.423  16.884  0.4558  0.0651  0.8827
17730TIP3   OH274604   2.265   4.612  13.948  0.0295  0.1254 -0.0670
17730TIP3    H174605   2.330   4.664  13.996  0.1607 -2.1579  2.4857
17730TIP3    H274606   2.181   4.649  13.974  0.1275 -0.7265  1.6201
17731TIP3   OH274607   5.260   5.299  13.330  0.0280 -0.0545  0.4345
17731TIP3    H174608   5.167   5.274  13.330  0.2915 -1.2904 -1.5703
17731TIP3    H274609   5.307   5.216  13.316  1.3642  0.6761  0.4481
17732TIP3   OH274610   1.301   5.250   3.848  0.0102 -0.0899 -0.4630
17732TIP3    H174611   1.341   5.217   3.768  0.6131  0.9173 -0.6049
17732TIP3    H274612   1.278   5.172   3.898 -1.2386 -0.7659 -2.0098
17733TIP3   OH274613   6.394   6.061  14.249  0.3470  0.0709 -0.3536
17733TIP3    H174614   6.393   6.156  14.243  0.2970  0.2008  1.3019
17733TIP3    H274615   6.487   6.038  14.246  0.4622  0.3180  0.7728
17734TIP3   OH274616   3.739   0.431   3.562  0.6593 -0.6559 -0.1203
17734TIP3    H174617   3.659   0.397   3.522 -0.8160  2.1543  0.1989
17734TIP3    H274618   3.800   0.438   3.489 -0.2759 -0.4016 -0.9041
17735TIP3   OH274619   6.700   5.895  13.613  0.0603  0.0098  0.2966
17735TIP3    H174620   6.648   5.815  13.607 -0.6697  0.5246 -0.3914
17735TIP3    H274621   6.775   5.880  13.556 -1.4642  0.8270 -2.0551
17736TIP3   OH274622   2.425   0.035   2.320  0.3110  0.2737  0.3825
17736TIP3    H174623   2.440  -0.054   2.351 -0.5288  0.4857  1.4507
17736TIP3    H274624   2.388   0.081   2.395  1.3516  1.7134  0.0567
17737TIP3   OH274625   0.937   5.913  14.953  0.0787 -0.6593 -0.6754
17737TIP3    H174626   0.864   5.973  14.939 -1.2537 -1.7513  1.1281
17737TIP3    H274627   0.942   5.861  14.873 -1.5778 -0.9948 -0.5830
17738TIP3   OH274628   6.195   2.295   0.794  0.6536  0.4873 -0.0467
17738TIP3    H174629   6.125   2.361   0.800 -1.1777 -1.0756 -2.4034
17738TIP3    H274630   6.235   2.295   0.881 -0.0818  3.7735  0.4124
17739TIP3   OH274631   1.491   3.424  10.952 -0.8980 -0.4712 -0.3426
17739TIP3    H174632   1.570   3.413  11.005 -1.0899  0.0184  0.0532
17739TIP3    H274633   1.522   3.420  10.861 -0.6642 -1.9748 -0.2067
17740TIP3   OH274634   2.363   1.666  17.129 -0.4931 -0.2021  0.3138
17740TIP3    H174635   2.380   1.757  17.102 -0.8131 -0.0514  0.6206
17740TIP3    H274636   2.275   1.668  17.167  0.0258 -0.3765  1.5519
17741TIP3   OH274637   1.402   4.990  10.184  0.0117 -0.2988  0.0313
17741TIP3    H174638   1.377   4.900  10.202  1.2442 -0.3226  1.8090
17741TIP3    H274639   1.354   5.041  10.250 -1.0468  0.4429 -1.2490
17742TIP3   OH274640   0.495   0.429  15.642 -0.4122 -0.5936 -0.7162
17742TIP3    H174641   0.508   0.362  15.575 -0.6294  1.0721 -2.5081
17742TIP3    H274642   0.404   0.420  15.669 -0.1082 -1.7866 -0.0307
17743TIP3   OH274643   0.128   6.411  10.690 -0.1489  0.1744 -0.2907
17743TIP3    H174644   0.046   6.407  10.740 -0.0068 -1.0410 -0.1260
17743TIP3    H274645   0.102   6.398  10.599 -0.3273  1.6683 -0.4779
17744TIP3   OH274646   1.934   5.422  14.910  0.4192 -0.2222  0.1414
17744TIP3    H174647   1.881   5.499  14.931  1.4328  1.2507 -2.2812
17744TIP3    H274648   1.881   5.374  14.847  1.1393  0.2726 -0.8630
17745TIP3   OH274649   1.063   1.983  14.852  0.0068 -0.3570  0.0561
17745TIP3    H174650   0.991   2.030  14.895 -0.0304  0.6460 -1.0511
17745TIP3    H274651   1.077   1.906  14.907  0.2710  1.0772  2.1205
17746TIP3   OH274652   3.667   2.608   6.064  0.3624 -0.9193  0.4616
17746TIP3    H174653   3.614   2.673   6.018  2.1644  0.8597  0.7639
17746TIP3    H274654   3.656   2.527   6.013 -2.1478 -0.5063  0.2377
17747TIP3   OH274655   4.413   1.180   1.939 -0.1198 -0.4469 -0.1437
17747TIP3    H174656   4.496   1.145   1.971  0.2107  0.1469 -0.3488
17747TIP3    H274657   4.426   1.193   1.846 -0.3711 -0.1529 -0.1410
17748TIP3   OH274658   5.498   1.156   0.335  0.2411 -0.1713 -0.4750
17748TIP3    H174659   5.583   1.122   0.364  1.6774  1.6853 -2.2005
17748TIP3    H274660   5.452   1.177   0.417  2.4573  1.0164  0.5678
17749TIP3   OH274661   1.010   3.641  13.036 -0.2964  0.5464 -0.3144
17749TIP3    H174662   1.033   3.644  13.129  0.1052  0.0737 -0.3959
17749TIP3    H274663   0.940   3.706  13.027  0.4095  1.3845  0.0979
17750TIP3   OH274664   4.840   3.416   3.793 -0.3818 -0.5461 -0.4902
17750TIP3    H174665   4.880   3.349   3.849  0.8019  1.1494  0.7904
17750TIP3    H274666   4.754   3.432   3.833 -0.1569 -0.4321 -0.0402
17751TIP3   OH274667   2.864   6.735   4.640 -0.2704  0.2855  0.2473
17751TIP3    H174668   2.815   6.659   4.609 -0.5589  0.7134 -0.3727
17751TIP3    H274669   2.805   6.809   4.625 -0.0356  0.6247  0.9391
17752TIP3   OH274670   2.237   4.708   5.232 -0.0600 -0.3972  0.5105
17752TIP3    H174671   2.239   4.726   5.326 -0.3424 -1.1680  0.6781
17752TIP3    H274672   2.306   4.643   5.219  1.8137  1.6458 -0.2949
17753TIP3   OH274673   2.430   5.907   2.160  0.0820 -0.1108 -0.1137
17753TIP3    H174674   2.510   5.856   2.147  0.6552  0.2534  1.6270
17753TIP3    H274675   2.452   5.995   2.130  0.4954  0.0808  0.7064
17754TIP3   OH274676   0.573   2.797  11.947  0.5271 -0.7233  0.2679
17754TIP3    H174677   0.591   2.865  11.882 -0.4757  0.9262  1.6135
17754TIP3    H274678   0.531   2.844  12.019 -2.0999 -3.0730  0.4457
17755TIP3   OH274679   6.214   0.697  15.893 -0.9557 -0.2793 -0.0681
17755TIP3    H174680   6.130   0.743  15.901 -0.3813  1.1356 -1.5247
17755TIP3    H274681   6.206   0.649  15.810 -1.1520 -2.0208  0.9222
17756TIP3   OH274682   2.268   2.348  13.372  0.1977  0.0298  0.8434
17756TIP3    H174683   2.224   2.372  13.290 -0.0283 -1.7259  0.4122
17756TIP3    H274684   2.350   2.398  13.370  1.7809 -2.3220 -2.1159
17757TIP3   OH274685   6.383   3.821   5.277  0.5218  0.1613 -0.9527
17757TIP3    H174686   6.287   3.815   5.274  0.6206 -2.0744 -2.1393
17757TIP3    H274687   6.411   3.734   5.303  2.2443  1.6272  2.7784
17758TIP3   OH274688   4.180   4.444  13.769  0.4043  0.3289 -0.1467
17758TIP3    H174689   4.201   4.420  13.859 -0.7805  0.4544  0.1806
17758TIP3    H274690   4.084   4.445  13.766  0.4143 -0.4036 -1.6009
17759TIP3   OH274691   6.058   0.270   0.789  0.0943  0.0604 -0.1230
17759TIP3    H174692   6.030   0.217   0.715  3.7192 -0.3773 -1.3753
17759TIP3    H274693   6.063   0.359   0.755  2.1152 -0.1957 -0.6219
17760TIP3   OH274694   5.342   4.655   4.570  0.2806 -0.8241 -0.5005
17760TIP3    H174695   5.401   4.588   4.604  1.7931  1.0296  0.7462
17760TIP3    H274696   5.270   4.658   4.633  0.4952 -0.8922 -0.2511
17761TIP3   OH274697   2.751   2.110   0.784  0.1910 -0.0292  0.0956
17761TIP3    H174698   2.676   2.109   0.724 -0.0179 -0.0177  0.3584
17761TIP3    H274699   2.713   2.095   0.871  0.6448 -1.5607  0.0680
17762TIP3   OH274700   2.939   0.956  15.263 -0.3022 -0.2383  0.1360
17762TIP3    H174701   2.845   0.962  15.279 -0.1165 -0.2327  1.3243
17762TIP3    H274702   2.974   1.041  15.290 -0.1241  0.2879 -1.6620
17763TIP3   OH274703   2.353   3.323  12.100  0.2248  0.0627 -0.4548
17763TIP3    H174704   2.406   3.314  12.178  0.4598 -0.2437 -0.6458
17763TIP3    H274705   2.400   3.273  12.033 -0.7030 -0.9017 -0.4247
17764TIP3   OH274706   1.746   1.207   3.118  0.4826  0.1958 -0.3265
17764TIP3    H174707   1.695   1.128   3.133 -2.0325  1.3547 -2.0087
17764TIP3    H274708   1.814   1.180   3.056  1.7244 -1.2846  1.5859
17765TIP3   OH274709   5.258   6.389  13.596 -0.4212  0.4836  0.8231
17765TIP3    H174710   5.343   6.347  13.606 -0.9293 -0.5856  0.8223
17765TIP3    H274711   5.256   6.456  13.663  1.4902  2.3938 -0.8785
17766TIP3   OH274712   0.258   4.273   2.504  0.3170 -0.0693 -0.2711
17766TIP3    H174713   0.187   4.210   2.494 -1.3385  1.8688 -1.2736
17766TIP3    H274714   0.263   4.287   2.599  1.7195 -2.7112  0.1319
17767TIP3   OH274715   6.262   2.973   2.094 -0.0900 -0.0125 -0.6371
17767TIP3    H174716   6.242   2.945   2.005 -0.0386 -1.0571 -0.3363
17767TIP3    H274717   6.336   2.918   2.120 -0.7805 -0.4827  0.4172
17768TIP3   OH274718   2.424   1.754   0.232  0.0081  0.2882 -0.4159
17768TIP3    H174719   2.428   1.684   0.297  1.0841  0.1172 -0.6383
17768TIP3    H274720   2.361   1.724   0.166  0.9106 -0.7665 -0.8277
17769TIP3   OH274721   2.580   5.212   0.322 -0.2120 -0.2323 -0.3481
17769TIP3    H174722   2.541   5.235   0.238  1.4711 -0.1218 -1.1537
17769TIP3    H274723   2.651   5.151   0.299 -0.0504 -0.5898  1.0428
17770TIP3   OH274724   0.373   0.469  16.753  0.3929  0.3734  0.1325
17770TIP3    H174725   0.356   0.400  16.688  3.6435 -0.3699 -0.0780
17770TIP3    H274726   0.416   0.538  16.704 -0.8002  1.6396  0.8028
17771TIP3   OH274727   1.598   3.426  14.053  0.0109  0.1856  0.6142
17771TIP3    H174728   1.559   3.342  14.032  0.5929  0.1554 -0.3724
17771TIP3    H274729   1.657   3.407  14.126 -1.2478  0.1058  1.6559
17772TIP3   OH274730   1.785   0.716   5.273  0.0836 -0.1483 -0.2980
17772TIP3    H174731   1.777   0.796   5.326  2.3730 -0.8138  1.1937
17772TIP3    H274732   1.879   0.700   5.268 -0.3007 -2.5369 -0.9222
17773TIP3   OH274733   0.040   1.877  14.629 -0.1552  0.0881 -0.1849
17773TIP3    H174734   0.081   1.791  14.635 -0.8476 -0.1816  1.0130
17773TIP3    H274735  -0.017   1.882  14.706 -0.5564  1.3933 -0.5392
17774TIP3   OH274736   6.269   5.858  12.383 -0.6312  0.0020 -0.1520
17774TIP3    H174737   6.323   5.876  12.306 -1.6332 -1.3288 -1.2122
17774TIP3    H274738   6.218   5.781  12.359  0.6113 -1.8577  2.6644
17775TIP3   OH274739   1.172   4.876  14.213 -0.5415  0.3489  0.5189
17775TIP3    H174740   1.250   4.839  14.172 -0.8112  0.0034  0.3128
17775TIP3    H274741   1.122   4.800  14.243  0.0439  0.6050  2.2588
17776TIP3   OH274742   0.338   5.709  10.580  0.5020 -0.0013 -0.0291
17776TIP3    H174743   0.384   5.690  10.498  1.0275  0.8459  0.0566
17776TIP3    H274744   0.386   5.658  10.646 -0.1669 -1.0019 -0.2908
17777TIP3   OH274745   1.627   2.700  11.480 -0.0939  0.1303  0.0028
17777TIP3    H174746   1.679   2.671  11.554  1.5354  0.6487 -0.8872
17777TIP3    H274747   1.537   2.699  11.511  0.3721 -1.4497  1.3827
17778TIP3   OH274748   2.215   4.859   4.509  0.1942 -0.0911 -0.3002
17778TIP3    H174749   2.282   4.850   4.441  0.0625  1.3417 -0.6568
17778TIP3    H274750   2.172   4.774   4.511  0.3238 -0.2325 -1.9108
17779TIP3   OH274751   2.192   1.772   4.648 -0.0765 -0.6072  0.2789
17779TIP3    H174752   2.181   1.868   4.646  0.1407 -0.5905 -0.2482
17779TIP3    H274753   2.183   1.745   4.557 -0.7539 -1.1663  0.5022
17780TIP3   OH274754   0.237   4.579   1.369 -0.3133  0.1301 -0.3863
17780TIP3    H174755   0.158   4.543   1.329 -0.9042  0.3433  0.5592
17780TIP3    H274756   0.306   4.563   1.305 -0.8717 -1.1996 -0.6790
17781TIP3   OH274757   2.469   2.916   0.795 -0.3042 -0.6453  0.1405
17781TIP3    H174758   2.409   2.991   0.799  1.0431  0.4590  0.5905
17781TIP3    H274759   2.520   2.930   0.715 -1.6334 -2.4159 -1.1001
17782TIP3   OH274760   0.125   5.815   3.623 -0.5012  0.2536 -0.2943
17782TIP3    H174761   0.200   5.866   3.593  0.8562 -0.8372  1.0631
17782TIP3    H274762   0.094   5.861   3.701 -0.7658  0.2812 -0.4149
17783TIP3   OH274763   0.343   2.953  13.449  0.7176 -0.4350  0.0246
17783TIP3    H174764   0.323   3.037  13.490  1.3250 -0.8061  1.1333
17783TIP3    H274765   0.258   2.918  13.422  0.2328 -0.3899  1.4238
17784TIP3   OH274766   5.734   2.100  16.324  0.4575  0.0703  0.0039
17784TIP3    H174767   5.695   2.014  16.339 -0.8946  0.2746 -1.9294
17784TIP3    H274768   5.695   2.156  16.392  0.1855 -0.5230  0.3475
17785TIP3   OH274769   1.410   0.926  11.893  0.8356 -0.5526  0.0819
17785TIP3    H174770   1.325   0.901  11.856  0.6796 -1.0512  0.7605
17785TIP3    H274771   1.474   0.887  11.835  0.5954 -1.2879  0.3046
17786TIP3   OH274772   6.717   2.357  12.094 -0.6140  0.7872  0.6243
17786TIP3    H174773   6.650   2.338  12.028  1.7598 -0.1501 -1.7232
17786TIP3    H274774   6.752   2.442  12.068  0.1064  0.5819  0.9157
17787TIP3   OH274775   5.966   6.048   0.171 -0.4144 -0.2631  0.0979
17787TIP3    H174776   6.019   6.120   0.136  1.6867 -1.4849  0.6335
17787TIP3    H274777   5.909   6.023   0.098  0.2987  0.5908 -0.7728
17788TIP3   OH274778   5.663   4.187   2.715  0.0789 -0.2287 -0.0538
17788TIP3    H174779   5.725   4.242   2.763 -0.9557 -0.2861  1.4192
17788TIP3    H274780   5.588   4.244   2.699  0.1230 -0.4241 -1.0073
17789TIP3   OH274781   2.030   1.853  11.882  0.4333 -0.3987 -0.4825
17789TIP3    H174782   2.015   1.945  11.903 -1.7051 -0.3952 -1.7343
17789TIP3    H274783   2.018   1.847  11.788  1.5260 -1.8266 -0.5706
17790TIP3   OH274784   3.902   3.721  13.433  0.3831  0.1345 -0.2104
17790TIP3    H174785   3.897   3.811  13.464  2.3040  1.4663 -3.3376
17790TIP3    H274786   3.817   3.705  13.393  0.2006  0.7057 -0.0615
17791TIP3   OH274787   6.205   5.097  15.717  0.5103 -0.0972 -0.2732
17791TIP3    H174788   6.130   5.045  15.688 -0.0727  1.5409 -1.8391
17791TIP3    H274789   6.173   5.146  15.793 -0.6756  2.0423 -2.0676
17792TIP3   OH274790   2.112   0.887  10.418  0.0069  0.1004  0.1525
17792TIP3    H174791   2.078   0.962  10.369 -1.1950 -0.2750  0.3790
17792TIP3    H274792   2.116   0.816  10.354  0.9012  0.2868 -0.0015
17793TIP3   OH274793   1.808   4.657  13.444  0.1494  0.3247 -0.3724
17793TIP3    H174794   1.859   4.715  13.387 -0.0318  0.3244 -0.5351
17793TIP3    H274795   1.728   4.705  13.462  0.0543  0.1788 -0.4038
17794TIP3   OH274796   2.615   3.680  15.126 -0.2019  0.2114  0.0884
17794TIP3    H174797   2.577   3.692  15.213 -0.2689  1.9460 -0.1427
17794TIP3    H274798   2.542   3.647  15.072 -0.6915  1.0237  0.2420
17795TIP3   OH274799   4.280   0.600   1.821  0.1131  0.0210 -0.4352
17795TIP3    H174800   4.212   0.659   1.787  1.0725  0.6706 -1.2804
17795TIP3    H274801   4.285   0.622   1.914 -2.1678 -1.3979  0.1074
17796TIP3   OH274802   6.656   0.997  16.194 -0.6273  0.1072 -0.1053
17796TIP3    H174803   6.744   1.020  16.224  0.2090 -0.7580 -1.7750
17796TIP3    H274804   6.634   1.065  16.130 -0.2605 -0.8210 -1.2545
17797TIP3   OH274805   1.295   5.873  10.209 -0.2216 -0.0111 -0.6742
17797TIP3    H174806   1.220   5.835  10.165 -0.6938  0.4322 -0.2619
17797TIP3    H274807   1.370   5.852  10.153 -0.2497 -2.6503  0.1368
17798TIP3   OH274808   1.531   2.983  14.331  0.4825 -0.3347 -0.7479
17798TIP3    H174809   1.457   2.925  14.312  0.9278 -0.7698 -1.1868
17798TIP3    H274810   1.589   2.972  14.256  1.5458 -0.8773  0.1306
17799TIP3   OH274811   5.298   1.457  14.599 -0.3790 -0.5448 -0.2723
17799TIP3    H174812   5.319   1.364  14.607 -0.1194 -0.6834 -2.0595
17799TIP3    H274813   5.216   1.457  14.549  0.0452  0.1907 -0.9827
17800TIP3   OH274814   3.043   3.902   5.737 -0.3294  0.7391 -0.0026
17800TIP3    H174815   3.046   3.982   5.790 -0.9252  0.2986  0.7074
17800TIP3    H274816   3.045   3.831   5.801 -0.5971  0.1940 -0.5927
17801TIP3   OH274817   4.964   2.637   5.427 -0.4348 -0.0126 -0.2407
17801TIP3    H174818   5.042   2.594   5.392 -0.4911  1.3531 -2.2428
17801TIP3    H274819   4.917   2.668   5.349 -2.1098  0.6948  0.9807
17802TIP3   OH274820   6.393   0.059  14.924  0.0193  0.4699 -0.5278
17802TIP3    H174821   6.403  -0.035  14.911 -2.0118  0.3299 -1.4859
17802TIP3    H274822   6.419   0.074  15.015 -1.1512 -1.2785  0.1399
17803TIP3   OH274823   1.434   6.277   1.776 -0.0724 -0.3350 -0.3877
17803TIP3    H174824   1.503   6.211   1.766  0.5960  0.2154  0.4639
17803TIP3    H274825   1.481   6.360   1.782 -0.9690  0.4323 -2.9276
17804TIP3   OH274826   0.480   2.096   2.526 -0.2477  0.3401 -0.6387
17804TIP3    H174827   0.551   2.094   2.590 -0.2403  1.0623 -0.6235
17804TIP3    H274828   0.436   2.012   2.537  1.6628 -0.9114 -1.8492
17805TIP3   OH274829   0.856   5.848   0.432  0.5451 -0.2807  0.5072
17805TIP3    H174830   0.792   5.889   0.489  1.0651  0.8464  0.3057
17805TIP3    H274831   0.809   5.829   0.351  0.2854 -0.1437  0.6277
17806TIP3   OH274832   5.914   5.119   3.994  0.1323  0.1143  0.5004
17806TIP3    H174833   5.897   5.030   3.963 -2.8932  1.3144 -1.6800
17806TIP3    H274834   5.852   5.132   4.066 -2.3047  1.5734 -1.6800
17807TIP3   OH274835   0.318   2.925   5.151  0.1835  0.1550  0.0000
17807TIP3    H174836   0.292   2.850   5.097  0.7397 -0.6274  0.7811
17807TIP3    H274837   0.403   2.900   5.188 -0.2037  0.6164  1.2818
17808TIP3   OH274838   0.695   2.940   1.270 -0.8929  0.2111 -0.2501
17808TIP3    H174839   0.727   3.014   1.321 -3.4571  1.8146 -0.8036
17808TIP3    H274840   0.756   2.935   1.196  0.1778  0.7858  0.5460
17809TIP3   OH274841   5.295   2.274   4.242  0.1758  0.2574 -0.1630
17809TIP3    H174842   5.303   2.272   4.146  1.5682 -0.2246 -0.0630
17809TIP3    H274843   5.209   2.312   4.258  0.0971  0.7645 -1.6090
17810TIP3   OH274844   3.239   6.020   2.485 -0.2221 -0.1878  0.2525
17810TIP3    H174845   3.284   5.936   2.478 -2.1808 -1.1603 -2.2347
17810TIP3    H274846   3.149   5.998   2.506 -0.6477  1.3386  0.1674
17811TIP3   OH274847   2.218   3.062  10.940  0.8719 -0.6931  0.0196
17811TIP3    H174848   2.262   3.146  10.952 -1.2711  0.6743 -1.2181
17811TIP3    H274849   2.249   3.031  10.855  0.8547 -0.6539 -0.0008
17812TIP3   OH274850   5.527   5.824   3.992 -0.6587 -0.6025  0.0853
17812TIP3    H174851   5.498   5.783   3.910  1.0266 -0.0932 -0.8329
17812TIP3    H274852   5.617   5.851   3.973 -0.2637 -0.3941  2.1059
17813TIP3   OH274853   6.259   4.910  15.176 -0.4963 -0.3527  0.0771
17813TIP3    H174854   6.283   4.994  15.216 -1.1889  0.5405 -1.3150
17813TIP3    H274855   6.342   4.873  15.145 -0.4486  1.1117 -1.6824
17814TIP3   OH274856   2.527   5.303  16.083  0.1433  0.0167 -0.5968
17814TIP3    H174857   2.602   5.272  16.134  0.2736  0.6489 -0.3952
17814TIP3    H274858   2.564   5.371  16.026  0.1181 -1.0515 -1.9553
17815TIP3   OH274859   5.167   3.174   0.181 -0.1197  0.5908 -0.3880
17815TIP3    H174860   5.203   3.232   0.115 -0.6373  0.9660 -0.3475
17815TIP3    H274861   5.108   3.229   0.233  0.5130  0.3789  0.5842
17816TIP3   OH274862   2.451   5.067  15.852 -0.1756 -0.3451 -0.1398
17816TIP3    H174863   2.525   5.070  15.790  0.1003 -0.1234  0.1991
17816TIP3    H274864   2.492   5.055  15.937 -0.4715  0.7096  0.1618
17817TIP3   OH274865   3.015   1.891  14.067 -0.1737  0.2356 -0.5849
17817TIP3    H174866   3.097   1.927  14.033 -0.2450  0.9047 -0.0818
17817TIP3    H274867   2.965   1.968  14.095  0.2399 -0.2981  1.8180
17818TIP3   OH274868   5.898   5.628   0.134 -0.3211 -0.1575  0.2852
17818TIP3    H174869   5.940   5.656   0.053  1.4679  1.3846  1.6572
17818TIP3    H274870   5.805   5.646   0.120 -0.2081 -0.8909 -1.7599
17819TIP3   OH274871   0.022   4.677   4.507 -0.0483 -0.3145  0.4813
17819TIP3    H174872  -0.039   4.721   4.448  0.0901 -1.6149 -0.6827
17819TIP3    H274873   0.090   4.743   4.524 -1.7163  1.1605  1.8191
17820TIP3   OH274874   5.606   2.098  12.200  0.2229 -0.1391  0.5803
17820TIP3    H174875   5.607   2.002  12.205 -2.0923 -0.2051  0.7048
17820TIP3    H274876   5.694   2.121  12.171  0.9655 -2.2760  0.9503
17821TIP3   OH274877   1.239   6.047  10.439  0.4875 -0.3864  0.2821
17821TIP3    H174878   1.273   5.999  10.364 -0.7228  0.2465 -0.7083
17821TIP3    H274879   1.249   6.139  10.415  0.5607 -0.1594  1.1335
17822TIP3   OH274880   4.993   5.611  17.060 -0.3752 -0.2573  0.0082
17822TIP3    H174881   5.062   5.620  16.994  0.4048 -1.6145  0.6069
17822TIP3    H274882   4.995   5.519  17.085 -1.7924 -0.1258  0.7345
17823TIP3   OH274883   2.419   3.655  14.496  0.3260 -0.2631 -0.1398
17823TIP3    H174884   2.378   3.739  14.475  0.0867 -0.3207  0.0856
17823TIP3    H274885   2.346   3.596  14.514  0.5131 -0.0022  1.6716
17824TIP3   OH274886   1.830   2.424   2.320 -0.1555 -0.4039 -0.5146
17824TIP3    H174887   1.882   2.504   2.315  0.0017 -0.3312  1.5969
17824TIP3    H274888   1.776   2.435   2.398 -2.3045 -1.1133 -1.8348
17825TIP3   OH274889   2.188   0.843   4.685 -0.5600 -0.5417  0.6675
17825TIP3    H174890   2.170   0.758   4.646  0.2838 -0.3695 -0.1481
17825TIP3    H274891   2.280   0.860   4.664  0.2903 -0.8731  3.5944
17826TIP3   OH274892   3.893   2.453  16.589  0.0972 -0.2783 -0.1125
17826TIP3    H174893   3.870   2.534  16.636  0.7159  0.5703 -1.2184
17826TIP3    H274894   3.975   2.425  16.628 -1.1350 -1.5674  1.6941
17827TIP3   OH274895   5.547   4.789  16.221  0.1707 -0.1027 -0.1282
17827TIP3    H174896   5.520   4.699  16.199  1.6021 -0.4485 -0.5896
17827TIP3    H274897   5.484   4.844  16.175 -0.8090 -0.8690  0.2565
17828TIP3   OH274898   1.656   0.075  13.082  0.4481  0.1176  0.0328
17828TIP3    H174899   1.746   0.104  13.070  1.2207 -1.7623  0.8645
17828TIP3    H274900   1.609   0.111  13.007  2.3198 -0.5489 -1.5307
17829TIP3   OH274901   2.053   1.436   4.527  0.0337 -0.7806 -0.2543
17829TIP3    H174902   2.134   1.464   4.569 -0.7462 -0.5051  1.1291
17829TIP3    H274903   2.060   1.340   4.523  0.9143 -0.6874 -1.2072
17830TIP3   OH274904   6.130   1.949  13.076  0.7920  0.3408  0.5855
17830TIP3    H174905   6.164   2.020  13.022 -2.2862  1.4331 -0.1290
17830TIP3    H274906   6.065   1.992  13.132 -0.2431 -1.7229  1.0340
17831TIP3   OH274907   5.487   0.630   4.075 -0.1007 -0.2525 -0.5105
17831TIP3    H174908   5.452   0.671   4.154  0.2552 -0.2816 -0.3410
17831TIP3    H274909   5.523   0.547   4.104 -0.1478 -0.3535 -0.7357
17832TIP3   OH274910   5.776   3.045  10.829  0.3286  0.3777  0.3044
17832TIP3    H174911   5.793   3.004  10.914 -0.5954  1.1719  0.8971
17832TIP3    H274912   5.814   3.133  10.838 -0.1716  0.6188  0.0654
17833TIP3   OH274913   2.640   1.345  14.785  0.0580  0.1014 -0.1180
17833TIP3    H174914   2.667   1.318  14.872 -0.3891 -1.5593 -0.4597
17833TIP3    H274915   2.626   1.439  14.793  0.7453  0.1131  1.3964
17834TIP3   OH274916   4.434   1.695   3.341  0.1875 -0.2998 -0.2662
17834TIP3    H174917   4.432   1.774   3.396 -0.5192 -0.2322 -0.3690
17834TIP3    H274918   4.435   1.623   3.403 -0.2520 -0.2178 -0.1535
17835TIP3   OH274919   5.975   2.676  11.080  0.3709 -0.0759 -0.5389
17835TIP3    H174920   6.021   2.620  11.018  2.7798  2.2277 -0.9883
17835TIP3    H274921   5.939   2.746  11.026 -2.1216 -0.7429  0.0869
17836TIP3   OH274922   3.018   2.147   1.471  0.9868  0.0068  0.2491
17836TIP3    H174923   3.088   2.150   1.406  0.4600  1.3744 -0.3017
17836TIP3    H274924   2.942   2.114   1.424  1.0306 -0.6343  0.6182
17837TIP3   OH274925   4.238   2.269  14.848  0.2607 -0.4277 -0.2587
17837TIP3    H174926   4.312   2.253  14.906 -1.7385 -1.1657  2.2889
17837TIP3    H274927   4.214   2.182  14.815 -1.6727 -0.8472  1.9654
17838TIP3   OH274928   5.444   6.157   5.496  0.3805 -0.5893  0.3790
17838TIP3    H174929   5.535   6.180   5.516  0.1154  1.6594 -0.7024
17838TIP3    H274930   5.450   6.101   5.418  0.8869 -1.9582  1.3528
17839TIP3   OH274931   6.079   0.765   4.315 -0.5753 -0.0837  0.1436
17839TIP3    H174932   6.166   0.732   4.335 -0.4673 -0.3651 -0.7545
17839TIP3    H274933   6.093   0.855   4.286 -0.1897 -0.9710 -2.8178
17840TIP3   OH274934   5.778   2.804   1.509 -0.5006  0.4383  0.3328
17840TIP3    H174935   5.764   2.812   1.414 -0.7747 -1.3024  0.1936
17840TIP3    H274936   5.738   2.720   1.532  2.2020 -0.6563  1.4469
17841TIP3   OH274937   5.762   2.000  11.546 -0.1562 -0.3497 -0.4765
17841TIP3    H174938   5.691   2.061  11.528 -1.3256 -1.8359 -1.0686
17841TIP3    H274939   5.720   1.914  11.554  1.3363 -1.0244  1.0146
17842TIP3   OH274940   6.676   0.396   4.846  0.1136  0.5385 -0.3717
17842TIP3    H174941   6.601   0.447   4.816 -0.0783  1.0063  0.8714
17842TIP3    H274942   6.677   0.319   4.788  0.3826  1.8777 -2.2694
17843TIP3   OH274943   5.098   4.138  11.282  0.1635 -0.1469  0.3159
17843TIP3    H174944   5.073   4.209  11.223 -0.2360  0.7452  1.5119
17843TIP3    H274945   5.123   4.182  11.363 -0.3171 -1.3890  1.1667
17844TIP3   OH274946   1.185   5.875  16.937  0.0200  0.4342 -0.6626
17844TIP3    H174947   1.212   5.783  16.944 -0.9977  0.1220 -0.6721
17844TIP3    H274948   1.182   5.892  16.843 -2.4699 -0.3830 -0.8007
17845TIP3   OH274949   4.760   5.643   3.012  0.5250 -0.0909 -0.3207
17845TIP3    H174950   4.822   5.612   3.078 -0.3857  0.3964  0.8000
17845TIP3    H274951   4.773   5.738   3.009 -1.0707  0.1972  0.9189
17846TIP3   OH274952   1.689   5.458  15.169  0.4912  0.1064 -0.1579
17846TIP3    H174953   1.668   5.545  15.204 -2.0494  0.2690 -1.8839
17846TIP3    H274954   1.702   5.472  15.075 -3.5999 -1.7469 -1.2112
17847TIP3   OH274955   3.629   2.671  16.379  0.4210  0.0070  0.3907
17847TIP3    H174956   3.651   2.764  16.369  1.7061 -0.3927 -0.8227
17847TIP3    H274957   3.698   2.625  16.331  1.4542 -1.7202  3.2430
17848TIP3   OH274958   2.722   1.744   5.810 -0.3414  0.0555  0.3387
17848TIP3    H174959   2.752   1.798   5.883 -1.2552 -0.7604  1.3601
17848TIP3    H274960   2.661   1.682   5.850 -2.3469  0.7826 -1.4144
17849TIP3   OH274961   3.792   0.166   4.744  0.1918 -0.1719  0.4683
17849TIP3    H174962   3.715   0.116   4.717  0.9412 -0.4570 -1.2602
17849TIP3    H274963   3.764   0.257   4.742 -0.2922 -0.3160  0.5768
17850TIP3   OH274964   1.252   2.768   1.211  0.1835  0.1041 -0.4233
17850TIP3    H174965   1.246   2.817   1.293 -0.9114  0.9979 -1.0001
17850TIP3    H274966   1.342   2.781   1.182  0.3895  0.3418  0.2996
17851TIP3   OH274967   5.228   4.002   0.099  0.3920  0.0718  0.0010
17851TIP3    H174968   5.244   3.918   0.142 -1.2763 -0.1632  0.2316
17851TIP3    H274969   5.191   3.978   0.014 -0.2831  0.5630  0.1472
17852TIP3   OH274970   5.133   4.858   2.486  0.1358 -0.4084 -0.2475
17852TIP3    H174971   5.189   4.784   2.512  1.4092  0.5822 -0.0544
17852TIP3    H274972   5.098   4.891   2.569 -0.2424 -0.6347 -0.3135
17853TIP3   OH274973   1.275   3.859  12.060 -0.1226  0.0552 -0.2654
17853TIP3    H174974   1.326   3.940  12.060  0.0906 -0.0443  1.1770
17853TIP3    H274975   1.184   3.888  12.066 -0.0835  0.2087 -0.4302
17854TIP3   OH274976   5.935   2.402  13.967 -0.3434  0.0467  0.1140
17854TIP3    H174977   5.917   2.313  13.937 -0.5628 -0.5451  1.8408
17854TIP3    H274978   6.029   2.414  13.955 -0.3203 -0.4088 -0.1495
17855TIP3   OH274979   2.304   1.152  13.541  0.8209 -0.3463  0.2230
17855TIP3    H174980   2.349   1.131  13.459  2.3521 -1.7355  1.3544
17855TIP3    H274981   2.374   1.170  13.603 -0.1486 -2.0637  1.9218
17856TIP3   OH274982   1.017   5.041   6.438  0.2721  0.0439 -0.0570
17856TIP3    H174983   1.014   4.970   6.502 -1.2797  1.0434  1.0515
17856TIP3    H274984   0.953   5.017   6.371 -0.2943  0.4030  0.3474
17857TIP3   OH274985   6.432   6.472   1.019  0.2151 -0.1174  0.4905
17857TIP3    H174986   6.375   6.541   0.986 -0.3529  0.3171  2.2887
17857TIP3    H274987   6.498   6.461   0.951 -1.4718 -0.0024 -1.2435
17858TIP3   OH274988   0.486   1.796   2.578  0.3963 -0.2459 -0.2482
17858TIP3    H174989   0.508   1.705   2.600 -0.3204 -0.9364 -2.1704
17858TIP3    H274990   0.517   1.807   2.488  1.0557  1.6540  0.1524
17859TIP3   OH274991   1.870   2.246  17.139  0.0837 -0.4657  0.3801
17859TIP3    H174992   1.787   2.255  17.092  0.4394  0.2405 -0.1465
17859TIP3    H274993   1.924   2.191  17.082  1.2287  2.0295 -1.1171
17860TIP3   OH274994   5.534   6.614  16.206 -0.3565  0.6565 -0.7766
17860TIP3    H174995   5.456   6.664  16.180 -1.5761  1.3229  3.3387
17860TIP3    H274996   5.596   6.681  16.237  0.6392 -0.0664 -1.1418
17861TIP3   OH274997   3.767   3.330   3.517  0.0875  1.2746 -0.0404
17861TIP3    H174998   3.856   3.297   3.528  0.4862  1.7138 -1.6424
17861TIP3    H274999   3.714   3.277   3.576  1.5327  1.6179  1.6578
17862TIP3   OH275000   1.185   0.841  15.261 -0.4832 -0.2718 -0.3081
17862TIP3    H175001   1.093   0.847  15.236 -1.0683  4.3669  2.0256
17862TIP3    H275002   1.230   0.906  15.207  1.1401 -1.2310 -0.1890
17863TIP3   OH275003   2.711   1.835  10.601 -0.1315 -0.2235 -0.0444
17863TIP3    H175004   2.643   1.901  10.593 -1.3202 -1.5341 -1.5304
17863TIP3    H275005   2.712   1.811  10.693 -1.7754 -0.2236  0.0008
17864TIP3   OH275006   5.963   2.615  16.340  0.2886  0.1014  0.4253
17864TIP3    H175007   5.949   2.683  16.274  1.4938  1.7756  1.8000
17864TIP3    H275008   5.876   2.583  16.361 -0.1644 -0.1927 -1.6328
17865TIP3   OH275009   4.981   6.637  13.263  0.7330  0.0167  0.1725
17865TIP3    H175010   4.937   6.552  13.267 -1.6879  1.1682 -0.3267
17865TIP3    H275011   5.000   6.658  13.355 -1.9259  0.4629  0.7157
17866TIP3   OH275012   4.324   6.373   0.011 -0.4118 -0.4961 -0.3100
17866TIP3    H175013   4.384   6.353  -0.061  0.2503  2.0723 -0.5546
17866TIP3    H275014   4.305   6.287   0.050  2.2908 -1.5823 -1.1058
17867TIP3   OH275015   1.308   1.286  15.423  0.0801 -0.1907 -0.3178
17867TIP3    H175016   1.319   1.306  15.515 -1.3065 -1.7986  0.2498
17867TIP3    H275017   1.225   1.239  15.418  0.4297 -0.7056 -2.2904
17868TIP3   OH275018   6.695   1.661   4.770  0.0099 -0.7764 -0.5403
17868TIP3    H175019   6.687   1.725   4.840 -2.2322  0.0394 -1.4384
17868TIP3    H275020   6.738   1.586   4.810  0.7631  0.4576  1.0924
17869TIP3   OH275021   2.765   3.960   6.316 -0.0099 -0.3651 -0.0339
17869TIP3    H175022   2.673   3.978   6.297 -0.0300 -0.8196 -0.3749
17869TIP3    H275023   2.805   4.047   6.322 -0.7320 -0.1035  1.5714
17870TIP3   OH275024   1.362   4.085   1.134  0.1639  0.2406  0.4507
17870TIP3    H175025   1.337   3.997   1.161  0.9104 -0.4274 -0.9346
17870TIP3    H275026   1.457   4.081   1.124  0.0870  0.8741 -0.6952
17871TIP3   OH275027   3.001   1.030   0.663 -0.0438 -0.4165 -0.4361
17871TIP3    H175028   3.020   1.121   0.688 -0.4620 -0.5894  0.5390
17871TIP3    H275029   3.070   1.008   0.599 -0.3081  0.7765 -1.1633
17872TIP3   OH275030   4.848   1.509  13.081  0.1105 -0.1502  0.2092
17872TIP3    H175031   4.905   1.585  13.076  0.8927 -0.7907 -1.0476
17872TIP3    H275032   4.887   1.454  13.149  1.1385 -0.6821 -0.7895
17873TIP3   OH275033   2.931   1.889  16.591 -0.5948  0.0262  0.0129
17873TIP3    H175034   2.907   1.822  16.655 -0.9803 -0.0412 -0.2017
17873TIP3    H275035   2.945   1.968  16.643  0.0784 -0.2719  0.2952
17874TIP3   OH275036   6.570   6.718  15.628  0.2202  0.3004 -0.1029
17874TIP3    H175037   6.594   6.632  15.662 -0.5239  0.0855 -0.1144
17874TIP3    H275038   6.547   6.769  15.707  2.8167  1.2333  0.1773
17875TIP3   OH275039   3.867   2.714   3.648  0.3810  0.3394  0.2049
17875TIP3    H175040   3.846   2.635   3.597 -1.1601  0.8953 -0.0607
17875TIP3    H275041   3.883   2.781   3.583 -1.6161  1.0598  0.3977
17876TIP3   OH275042   6.538   3.727  13.181  0.0647 -0.1734  0.2867
17876TIP3    H175043   6.613   3.668  13.170 -0.2330 -0.4100 -0.4910
17876TIP3    H275044   6.562   3.781  13.257  2.1703  1.4879 -1.4218
17877TIP3   OH275045   4.969   1.854  16.525  0.6626 -0.3010 -0.0169
17877TIP3    H175046   4.971   1.806  16.607 -0.2007 -1.1305 -0.4680
17877TIP3    H275047   4.899   1.813  16.474 -1.0262  2.2510  0.0675
17878TIP3   OH275048   2.790   1.413   2.960  0.3292  0.2183  0.2008
17878TIP3    H175049   2.806   1.408   3.055 -0.6022 -0.7314  0.3362
17878TIP3    H275050   2.870   1.377   2.921  1.5944  2.5448  0.5067
17879TIP3   OH275051   1.584   1.263  10.699  0.6027 -0.1089 -1.0015
17879TIP3    H175052   1.502   1.214  10.694  0.9418 -0.7949 -0.1528
17879TIP3    H275053   1.624   1.253  10.613 -0.7374  1.2277 -1.8294
17880TIP3   OH275054   6.145   0.848  14.478 -0.3597  0.2146 -0.5730
17880TIP3    H175055   6.229   0.889  14.497  0.0464 -0.9983  0.3842
17880TIP3    H275056   6.161   0.792  14.403  0.7915 -2.9957  1.8340
17881TIP3   OH275057   5.267   1.058  11.783 -0.1634  0.3263 -0.4036
17881TIP3    H175058   5.181   1.020  11.805 -0.3234  0.5796 -0.5840
17881TIP3    H275059   5.327   0.983  11.785 -0.0419  0.4357  1.5372
17882TIP3   OH275060   1.544   3.518   1.479 -0.2279  0.4791  0.2609
17882TIP3    H175061   1.585   3.461   1.545 -0.3218  0.2322  0.1068
17882TIP3    H275062   1.461   3.475   1.459  0.0238  0.2865 -0.3883
17883TIP3   OH275063   2.640   2.012  16.883  0.4264 -0.0407 -0.4320
17883TIP3    H175064   2.597   1.937  16.924 -0.1581  0.0779 -0.8101
17883TIP3    H275065   2.579   2.039  16.813  1.4931 -0.3775 -1.5246
17884TIP3   OH275066   3.631   0.684   4.969 -0.1653  0.2919 -0.9867
17884TIP3    H175067   3.614   0.712   4.879  0.8627  3.1955 -0.3962
17884TIP3    H275068   3.625   0.764   5.020  3.4065 -0.4369  0.8970
17885TIP3   OH275069   1.568   0.246  12.067 -0.1940 -0.2887 -0.2544
17885TIP3    H175070   1.556   0.315  12.001 -0.1184  0.5959  0.6407
17885TIP3    H275071   1.659   0.217  12.055  0.4738  1.2993  0.7937
17886TIP3   OH275072   0.759   1.997   3.194  0.3039 -0.3067  0.5933
17886TIP3    H175073   0.712   1.968   3.272 -0.5771 -0.8850 -0.1275
17886TIP3    H275074   0.799   1.917   3.159 -1.9053 -0.6926 -1.2489
17887TIP3   OH275075   2.802   0.431  11.631  0.3359 -0.5924  0.0991
17887TIP3    H175076   2.783   0.395  11.545  0.2004 -1.9106  0.6467
17887TIP3    H275077   2.724   0.413  11.683 -0.0779  1.2813  0.2067
17888TIP3   OH275078   2.039   3.664   0.755 -0.0779  0.3674  0.2800
17888TIP3    H175079   2.057   3.613   0.834  0.3141  0.5543  0.3160
17888TIP3    H275080   2.007   3.600   0.691 -0.2329  0.1883  0.5343
17889TIP3   OH275081   3.148   0.144   0.358  0.1268 -0.3717 -0.5172
17889TIP3    H175082   3.172   0.199   0.284 -0.0462  0.3144 -0.0696
17889TIP3    H275083   3.116   0.205   0.424 -1.1106 -1.0929 -0.4207
17890TIP3   OH275084   6.429   5.721   1.420  0.0472 -0.3116 -0.2862
17890TIP3    H175085   6.363   5.659   1.450  0.6088 -1.0029 -0.4642
17890TIP3    H275086   6.423   5.794   1.482 -0.7831 -0.4312 -0.2232
17891TIP3   OH275087   0.056   5.909  14.712  0.3226  0.3666 -0.0460
17891TIP3    H175088   0.139   5.916  14.665  1.1499  2.3888  1.5402
17891TIP3    H275089  -0.008   5.951  14.655  1.4646  3.5700  0.8026
17892TIP3   OH275090   5.019   2.780   1.761  0.4891  0.1057 -0.2348
17892TIP3    H175091   5.075   2.794   1.837  0.5821 -1.0685 -0.0778
17892TIP3    H275092   5.049   2.697   1.723 -0.7277 -0.2303 -0.5158
17893TIP3   OH275093   0.082   4.017   4.389 -0.2820 -0.2279 -0.1380
17893TIP3    H175094   0.119   4.098   4.352  1.0212 -1.3719 -1.4624
17893TIP3    H275095   0.069   4.038   4.482 -0.9578  1.8151 -0.6380
17894TIP3   OH275096   4.536   0.094  17.059  0.0911  0.5014  0.6590
17894TIP3    H175097   4.476   0.050  17.119 -1.1791  0.2652 -0.7160
17894TIP3    H275098   4.485   0.106  16.979  1.4428  1.6008 -0.0840
17895TIP3   OH275099   2.370   1.091   0.973 -0.2401  0.5804  0.2198
17895TIP3    H175100   2.300   1.055   0.918  0.3599  0.0748 -0.2265
17895TIP3    H275101   2.446   1.094   0.916  0.4997 -0.3074  1.1272
17896TIP3   OH275102   1.757   3.758  13.536 -0.1303 -0.6372  0.6512
17896TIP3    H175103   1.800   3.744  13.620  0.4120  1.0550  0.6881
17896TIP3    H275104   1.677   3.707  13.541 -0.1285 -0.5217  2.2180
17897TIP3   OH275105   3.528   4.129  11.610 -0.1687 -0.2210  0.1687
17897TIP3    H175106   3.515   4.199  11.546 -1.5707 -0.5900  0.0374
17897TIP3    H275107   3.619   4.102  11.597 -0.5979 -0.7575 -2.1464
17898TIP3   OH275108   0.822   2.208   2.071 -0.1305  0.2674  0.5461
17898TIP3    H175109   0.781   2.236   2.153 -0.5329 -0.7992  0.7304
17898TIP3    H275110   0.771   2.131   2.044  1.1608 -0.5348  0.2801
17899TIP3   OH275111   0.036   2.670   0.126  0.4564  0.4422  0.1072
17899TIP3    H175112   0.028   2.591   0.073 -0.6250  0.2222  0.5725
17899TIP3    H275113   0.047   2.638   0.215  0.8320  0.8120  0.1955
17900TIP3   OH275114   5.141   4.369   2.741 -0.2066  0.2463  0.2259
17900TIP3    H175115   5.177   4.280   2.742 -1.0947 -0.1349  2.1614
17900TIP3    H275116   5.175   4.409   2.821 -0.3314  1.4502 -0.3114
17901TIP3   OH275117   0.139   6.310  11.846 -0.0686 -0.1591 -0.5506
17901TIP3    H175118   0.081   6.360  11.788 -0.1355  0.5265  0.1053
17901TIP3    H275119   0.115   6.219  11.829 -0.2166  0.0328 -1.4672
17902TIP3   OH275120   4.950   4.305  12.512 -0.2284  0.3022 -0.0337
17902TIP3    H175121   4.981   4.236  12.452 -1.6569 -2.8514  2.5962
17902TIP3    H275122   5.027   4.327  12.565  0.3402  1.1625 -1.1565
17903TIP3   OH275123   4.516   3.336  14.998  0.7206  0.5015 -0.1154
17903TIP3    H175124   4.523   3.430  15.015 -0.2848  1.0207 -2.1725
17903TIP3    H275125   4.579   3.320  14.928  1.4226 -0.5522  0.7237
17904TIP3   OH275126   3.033   5.151   2.009  0.3840 -0.6000 -0.0531
17904TIP3    H175127   2.998   5.239   2.024 -0.3057 -0.6966 -0.9883
17904TIP3    H275128   2.959   5.092   2.027  0.3108 -0.8644 -1.1549
17905TIP3   OH275129   3.432   0.744   4.491  0.4500  0.4527  0.3962
17905TIP3    H175130   3.337   0.747   4.480  0.3448 -1.8273  0.1547
17905TIP3    H275131   3.444   0.714   4.581  0.9345  0.7671  0.4342
17906TIP3   OH275132   2.650   4.752  13.275  0.2452 -0.1419 -0.1204
17906TIP3    H175133   2.659   4.841  13.307 -0.2491  0.2857 -1.1233
17906TIP3    H275134   2.640   4.698  13.354  0.6579  0.6657  0.4928
17907TIP3   OH275135   4.576   3.412  16.981 -0.5834 -0.4297  0.1234
17907TIP3    H175136   4.625   3.483  16.937 -1.8128  0.5648  0.2960
17907TIP3    H275137   4.606   3.415  17.072  1.1515 -1.7667 -0.3430
17908TIP3   OH275138   4.414   6.322   6.010 -0.1919 -0.1710  0.0727
17908TIP3    H175139   4.395   6.299   6.101  1.0595 -0.4076  0.2954
17908TIP3    H275140   4.406   6.417   6.007 -2.1003 -0.2936 -0.0495
17909TIP3   OH275141   5.991   1.135  13.019  0.7449 -0.3631  0.3315
17909TIP3    H175142   5.966   1.185  13.096 -0.9954 -1.2043  0.3775
17909TIP3    H275143   6.053   1.190  12.972 -0.9264  1.7620  0.4732
17910TIP3   OH275144   1.628   1.353   1.940  0.2881  0.5753  0.2563
17910TIP3    H175145   1.718   1.366   1.909  0.4397  0.2657  0.5525
17910TIP3    H275146   1.629   1.383   2.031  0.1693  0.2970  0.3531
17911TIP3   OH275147   1.133   0.956   1.643 -0.1117 -0.4068 -0.4038
17911TIP3    H175148   1.208   0.951   1.584  0.1223 -2.0814 -0.0058
17911TIP3    H275149   1.171   0.976   1.729 -0.3651  1.0242 -0.5884
17912TIP3   OH275150   2.958   5.354   5.901  0.2512  0.3641 -0.4524
17912TIP3    H175151   3.017   5.422   5.935  0.3945  0.1559 -0.2810
17912TIP3    H275152   2.968   5.359   5.806  2.8303 -1.6407 -0.3958
17913TIP3   OH275153   6.581   1.585   1.598  0.3598 -0.5963 -0.4119
17913TIP3    H175154   6.655   1.624   1.551  1.2139 -0.6398  0.8402
17913TIP3    H275155   6.508   1.590   1.536  1.7780 -2.1447 -2.3787
17914TIP3   OH275156   4.181   4.001  15.526  0.1054 -0.1550  0.6556
17914TIP3    H175157   4.113   3.947  15.485  0.0646 -0.8023  1.5591
17914TIP3    H275158   4.196   4.072  15.463 -0.6039 -0.6257 -0.0617
17915TIP3   OH275159   3.788   5.121   0.950  0.1429 -0.3140 -0.1253
17915TIP3    H175160   3.818   5.131   0.860  0.6791  2.1940  0.2503
17915TIP3    H275161   3.863   5.147   1.003 -0.6824 -0.1326  0.9851
17916TIP3   OH275162   2.597   6.325   0.181 -0.2841  0.0540  0.9780
17916TIP3    H175163   2.634   6.265   0.246 -0.3003 -0.9906  0.0607
17916TIP3    H275164   2.618   6.284   0.096 -1.0676  0.8991  0.3554
17917TIP3   OH275165   0.079   4.801  12.889 -0.4895  0.2224 -0.6161
17917TIP3    H175166   0.119   4.718  12.864 -1.3117 -0.0726 -0.9753
17917TIP3    H275167   0.014   4.778  12.956 -0.8304  0.5456 -0.8272
17918TIP3   OH275168   4.022   1.213   4.698  0.2538  0.1059 -0.3533
17918TIP3    H175169   4.101   1.178   4.658 -0.2217 -1.4754  0.0377
17918TIP3    H275170   3.950   1.171   4.651 -0.3531  1.0217 -0.2610
17919TIP3   OH275171   4.032   5.244  14.305 -0.1807 -0.3308 -0.0703
17919TIP3    H175172   4.083   5.190  14.366 -1.5130 -1.0175  0.4673
17919TIP3    H275173   4.091   5.317  14.283  1.3827 -1.5866 -0.2254
17920TIP3   OH275174   5.751   0.130   5.308  0.6210 -0.5487  0.0090
17920TIP3    H175175   5.800   0.190   5.364  0.9355  1.0691 -1.8857
17920TIP3    H275176   5.815   0.099   5.245 -0.3577  0.2651 -1.4560
17921TIP3   OH275177   1.560   6.182  10.593 -0.1368  0.3062  0.4213
17921TIP3    H175178   1.486   6.148  10.642  1.5982 -2.6113  1.2516
17921TIP3    H275179   1.526   6.192  10.503 -0.9614 -3.6173  0.1154
17922TIP3   OH275180   2.040   4.732   3.882 -0.5068 -0.0179  0.8553
17922TIP3    H175181   2.035   4.724   3.978 -1.5366 -0.2323  0.7977
17922TIP3    H275182   1.962   4.685   3.850 -0.3738  0.3683 -0.0683
17923TIP3   OH275183   3.997   1.935   1.598  0.1528  0.5614  0.3304
17923TIP3    H175184   3.947   1.866   1.554 -1.1609 -0.5850  3.3646
17923TIP3    H275185   3.950   2.016   1.578  1.0716  0.5603 -2.3370
17924TIP3   OH275186   0.818   5.399   2.915  0.0121  0.0136  0.2445
17924TIP3    H175187   0.883   5.345   2.960  2.2575  3.2803  1.2582
17924TIP3    H275188   0.774   5.446   2.986 -0.4562  0.9958 -0.6782
17925TIP3   OH275189   1.756   0.034  16.767 -0.0394  0.6056  0.4353
17925TIP3    H175190   1.758   0.089  16.845  2.2407 -0.6186  1.3618
17925TIP3    H275191   1.849   0.018  16.748 -0.5835 -0.2783 -1.7082
17926TIP3   OH275192   6.246   4.807   5.577  0.1518 -0.3506  0.0903
17926TIP3    H175193   6.328   4.857   5.566 -0.1558  0.4424  1.1670
17926TIP3    H275194   6.181   4.874   5.601 -0.2937 -1.2506  1.4949
17927TIP3   OH275195   5.444   3.366  11.777 -0.2396  0.1324  0.4896
17927TIP3    H175196   5.455   3.274  11.803 -1.7303 -0.2223 -0.0222
17927TIP3    H275197   5.507   3.414  11.831 -0.1519 -1.0801  1.5218
17928TIP3   OH275198   2.496   0.599  11.936  0.0055  0.2220 -0.4677
17928TIP3    H175199   2.410   0.642  11.941 -0.1146 -0.1539  1.7117
17928TIP3    H275200   2.480   0.511  11.970  1.1317 -0.0612 -0.6530
17929TIP3   OH275201   6.448   2.883   4.716 -0.4635  0.2280  0.0753
17929TIP3    H175202   6.366   2.932   4.713  0.5741  2.0467 -2.5422
17929TIP3    H275203   6.513   2.943   4.680  2.2443 -0.8585  2.7676
17930TIP3   OH275204   5.342   5.114  13.008 -0.1027  0.5160 -0.2145
17930TIP3    H175205   5.313   5.024  13.022 -0.2260  0.4061 -1.1395
17930TIP3    H275206   5.277   5.152  12.949 -1.1800  1.8556  1.7202
17931TIP3   OH275207   2.334   3.846   0.270 -0.2655  0.0946 -0.3671
17931TIP3    H175208   2.300   3.879   0.353 -1.3497  0.7457 -1.0498
17931TIP3    H275209   2.349   3.753   0.286 -1.4048 -0.0014  0.2659
17932TIP3   OH275210   5.578   3.654   1.577  0.6521 -0.3024  0.6035
17932TIP3    H175211   5.591   3.574   1.627  2.4467 -0.7505 -0.4826
17932TIP3    H275212   5.638   3.717   1.617  0.8333 -0.1579  0.1186
17933TIP3   OH275213   6.538   1.172  15.650 -0.0384  0.1290  0.5287
17933TIP3    H175214   6.587   1.093  15.674 -1.3815 -0.2621  2.2276
17933TIP3    H275215   6.574   1.240  15.707  0.8567  0.6979 -0.6701
17934TIP3   OH275216   3.418   0.362  12.528  0.1685 -0.4679  0.3404
17934TIP3    H175217   3.492   0.392  12.580  0.9330  0.9440 -1.4735
17934TIP3    H275218   3.456   0.335  12.444 -1.2189 -0.9488 -0.1759
17935TIP3   OH275219   2.659   3.394  15.105 -0.0825  0.8080 -0.0357
17935TIP3    H175220   2.621   3.482  15.095 -2.4924  0.0103  1.2329
17935TIP3    H275221   2.624   3.363  15.189  0.7560 -1.3410 -0.4413
17936TIP3   OH275222   0.489   2.099  13.376 -0.0710 -0.4704 -0.2878
17936TIP3    H175223   0.472   2.061  13.290 -0.4887 -0.3112 -0.2781
17936TIP3    H275224   0.416   2.071  13.430 -0.1107 -0.0901 -0.1415
17937TIP3   OH275225   0.517   3.733  15.437  0.2201  0.1530 -0.0546
17937TIP3    H175226   0.590   3.674  15.454 -1.3757 -2.0074 -0.2178
17937TIP3    H275227   0.478   3.747  15.524  0.5845  1.0066 -0.0181
17938TIP3   OH275228   2.764   5.331  13.249  0.0034 -0.3618 -0.0546
17938TIP3    H175229   2.693   5.267  13.240  0.6604 -0.8898 -1.7309
17938TIP3    H275230   2.728   5.398  13.308 -0.5229 -2.4765  2.1880
17939TIP3   OH275231   4.048   1.915   4.447 -0.1182  0.4999  0.9298
17939TIP3    H175232   3.987   1.958   4.388  0.5457  2.0270  1.3266
17939TIP3    H275233   4.091   1.848   4.393 -1.0567  0.4080  0.2762
17940TIP3   OH275234   0.397   3.397   2.457  0.3766 -0.6593 -0.1231
17940TIP3    H175235   0.329   3.360   2.513  0.1762 -0.3523 -0.1605
17940TIP3    H275236   0.371   3.489   2.445  0.1970 -0.8240 -1.0467
17941TIP3   OH275237   2.669   0.954  14.310  0.3220  0.4020  0.1386
17941TIP3    H175238   2.623   1.012  14.249 -1.8727  0.1879  1.4874
17941TIP3    H275239   2.649   0.866  14.280  0.7356  0.3140  0.1207
17942TIP3   OH275240   4.599   4.685  13.016  0.4367 -0.5673  0.0593
17942TIP3    H175241   4.626   4.613  13.074 -1.4553 -0.9344  0.5736
17942TIP3    H275242   4.513   4.657  12.983  0.8999  0.2335 -1.9366
17943TIP3   OH275243   5.833   5.476   5.318  0.3769 -0.0705 -0.0019
17943TIP3    H175244   5.833   5.407   5.384  1.7867  0.2560  0.3815
17943TIP3    H275245   5.885   5.547   5.357  1.0226  0.2292 -1.3381
17944TIP3   OH275246   2.491   1.522   5.055 -0.3089  0.0563  0.1117
17944TIP3    H175247   2.536   1.450   5.010 -1.0941 -0.7811  0.6141
17944TIP3    H275248   2.425   1.478   5.109 -3.1625  1.2313 -2.1211
17945TIP3   OH275249   5.072   3.952   1.352  0.3388  0.0654 -0.0222
17945TIP3    H175250   5.062   4.045   1.333  1.0336 -0.0746 -1.1601
17945TIP3    H275251   5.125   3.918   1.280 -2.4678 -1.8459 -1.3733
17946TIP3   OH275252   5.808   0.993   4.322 -0.0497 -0.1201 -0.0426
17946TIP3    H175253   5.866   0.963   4.252 -1.9457  0.2596 -1.8393
17946TIP3    H275254   5.720   0.971   4.293 -0.9886  0.9944  1.7488
17947TIP3   OH275255   1.398   2.750   2.986 -0.2890  0.0835 -0.2030
17947TIP3    H175256   1.421   2.826   2.933 -1.3654  0.3038 -0.3898
17947TIP3    H275257   1.396   2.677   2.924  1.6850 -0.3087  0.1446
17948TIP3   OH275258   3.592   0.745   1.233  0.3246  0.1399  0.1098
17948TIP3    H175259   3.514   0.773   1.184  1.2463  1.3984 -0.7174
17948TIP3    H275260   3.665   0.785   1.186  1.5535 -1.6758  0.3928
17949TIP3   OH275261   0.691   4.311   6.166  0.5982 -0.2539  0.1161
17949TIP3    H175262   0.759   4.244   6.170  0.1290 -0.7161  0.5628
17949TIP3    H275263   0.738   4.393   6.156  1.1780 -0.6721 -0.6662
17950TIP3   OH275264   5.445   4.333   2.663  0.4260  0.1930 -0.1396
17950TIP3    H175265   5.349   4.328   2.660  0.3973  0.0604  0.7827
17950TIP3    H275266   5.464   4.426   2.668  0.4479  0.3896 -2.4565
17951TIP3   OH275267   0.886   3.107   2.957 -0.4061 -0.1328 -0.0687
17951TIP3    H175268   0.976   3.073   2.959 -0.8452 -1.5331 -1.4358
17951TIP3    H275269   0.896   3.200   2.940  0.8055 -0.5846 -2.2719
17952TIP3   OH275270   5.844   1.735  15.777 -0.6744 -0.1195 -0.3789
17952TIP3    H175271   5.779   1.727  15.847 -0.1457 -0.5235  0.0809
17952TIP3    H275272   5.858   1.645  15.748 -1.4070  0.1154 -1.5022
17953TIP3   OH275273   4.791   5.733   4.599  0.1312 -0.0049  0.0076
17953TIP3    H175274   4.773   5.720   4.506 -1.4444 -1.0408  0.4051
17953TIP3    H275275   4.884   5.713   4.609  0.3921  0.4224 -1.3858
17954TIP3   OH275276   5.030   3.618  11.746 -0.2395  0.1601  0.7394
17954TIP3    H175277   4.978   3.538  11.751 -0.5815  0.3548  0.2951
17954TIP3    H275278   5.114   3.594  11.786 -0.1162 -0.6017  0.0472
17955TIP3   OH275279   2.496   4.600  15.877 -0.0512  0.2449  0.5926
17955TIP3    H175280   2.403   4.578  15.888  0.0065  0.4849  1.7097
17955TIP3    H275281   2.496   4.667  15.808 -0.4577 -1.3848 -1.0699
17956TIP3   OH275282   2.602   5.070   1.298 -0.0704  0.0530 -0.3605
17956TIP3    H175283   2.649   5.152   1.282  0.6269 -0.2065  0.2931
17956TIP3    H275284   2.625   5.015   1.223 -0.2653  0.3339 -0.6287
17957TIP3   OH275285   4.572   5.521  15.684  0.1508 -0.6406 -0.2692
17957TIP3    H175286   4.605   5.610  15.669  1.9869 -1.2807 -0.3197
17957TIP3    H275287   4.480   5.525  15.657 -0.2698  1.6065  1.1666
17958TIP3   OH275288   0.661   0.755   2.556  0.2072  0.4845  0.9873
17958TIP3    H175289   0.708   0.673   2.571  1.8311  1.5832  2.3347
17958TIP3    H275290   0.585   0.750   2.614 -0.2403 -0.4459  0.3433
17959TIP3   OH275291   2.251   5.125   5.260 -0.0147  0.1297  0.6495
17959TIP3    H175292   2.208   5.210   5.247  1.1169  0.7791  0.9888
17959TIP3    H275293   2.345   5.143   5.247  0.2373 -1.0868  0.6425
17960TIP3   OH275294   0.694   1.341   3.301  0.0931 -0.6705  0.5453
17960TIP3    H175295   0.664   1.429   3.325 -1.4745 -1.1101  0.2794
17960TIP3    H275296   0.627   1.282   3.336 -0.5683 -1.5485 -1.9622
17961TIP3   OH275297   2.664   3.840  10.815  0.0842  0.3504 -0.0372
17961TIP3    H175298   2.597   3.872  10.755 -0.4944 -0.0609  0.3814
17961TIP3    H275299   2.616   3.813  10.893  0.6149 -0.8576 -0.0971
17962TIP3   OH275300   3.972   6.016  11.192  0.5102 -0.3235 -0.3255
17962TIP3    H175301   3.934   6.102  11.208 -0.1383 -0.8683  1.2234
17962TIP3    H275302   4.035   6.030  11.121  0.3052  1.3810 -0.1970
17963TIP3   OH275303   2.060   0.522   2.543 -0.5596  0.5285 -0.3955
17963TIP3    H175304   1.968   0.535   2.567 -0.7518 -1.1434 -0.1612
17963TIP3    H275305   2.057   0.476   2.460 -0.0088 -1.5355  0.6527
17964TIP3   OH275306   4.898   1.948   0.561 -0.3404  0.2513  0.6527
17964TIP3    H175307   4.922   1.936   0.653 -0.5122  0.0892  0.6760
17964TIP3    H275308   4.966   1.901   0.513  0.3786  1.2600  0.6498
17965TIP3   OH275309   6.109   3.404  11.622 -0.0007  0.1637 -0.1630
17965TIP3    H175310   6.092   3.410  11.716 -1.3221  1.0089 -0.4334
17965TIP3    H275311   6.102   3.311  11.602  3.6731 -0.5632  1.1147
17966TIP3   OH275312   2.386   3.291  14.415  0.3402  0.0289  0.0770
17966TIP3    H175313   2.332   3.225  14.372 -0.4561 -0.4069  1.6605
17966TIP3    H275314   2.429   3.245  14.487  0.2720  1.0795  0.8243
17967TIP3   OH275315   0.742   4.807   4.025 -0.1008  0.8116  0.1728
17967TIP3    H175316   0.799   4.757   4.083  0.4200  0.1703 -0.8588
17967TIP3    H275317   0.787   4.805   3.940 -2.1441 -0.6245 -0.9601
17968TIP3   OH275318   5.216   0.635   1.811  0.1174  0.1016 -0.1676
17968TIP3    H175319   5.248   0.671   1.729 -0.4693 -0.8805 -0.8524
17968TIP3    H275320   5.198   0.543   1.791 -0.2889 -0.0849  0.9862
17969TIP3   OH275321   4.198   5.246   3.895 -0.4060 -0.4589  0.1429
17969TIP3    H175322   4.125   5.213   3.948  0.4365  0.7565  2.2241
17969TIP3    H275323   4.268   5.182   3.909  0.0479  0.2255  1.1690
17970TIP3   OH275324   0.178   3.508  16.573 -0.4643 -0.4542 -0.2644
17970TIP3    H175325   0.125   3.518  16.653  0.6799 -2.4475  0.8358
17970TIP3    H275326   0.267   3.494  16.606  0.5364  1.3611 -2.0204
17971TIP3   OH275327   2.493   4.570  14.930 -0.4510 -0.6241 -0.0607
17971TIP3    H175328   2.496   4.583  15.025  1.0987  2.2357 -0.3776
17971TIP3    H275329   2.418   4.622  14.901  0.0218 -0.1821 -0.5181
17972TIP3   OH275330   2.959   0.483  12.681  0.6510  0.3568  0.0325
17972TIP3    H175331   2.952   0.486  12.777  0.9837  0.1321  0.0646
17972TIP3    H275332   2.878   0.523  12.650  0.6667  0.6869  0.4116
17973TIP3   OH275333   3.026   1.101   1.280  0.6817 -0.1759  0.2624
17973TIP3    H175334   3.104   1.049   1.263  0.6499 -0.1516  0.0410
17973TIP3    H275335   3.035   1.128   1.371  2.3336  2.1628 -0.4869
17974TIP3   OH275336   2.303   4.586   1.034 -0.7477  0.1418 -0.0602
17974TIP3    H175337   2.394   4.562   1.054 -1.5262 -2.2193  0.9402
17974TIP3    H275338   2.265   4.610   1.118 -0.9134  1.8644 -0.5769
17975TIP3   OH275339   3.562   2.589   1.466  0.2040 -0.6756  0.2815
17975TIP3    H175340   3.499   2.661   1.457 -1.6172 -2.0406  1.4994
17975TIP3    H275341   3.646   2.633   1.480 -0.7659  1.2123  0.5189
17976TIP3   OH275342   3.826   1.258  13.285 -0.2033  0.1166 -0.1973
17976TIP3    H175343   3.844   1.342  13.328 -2.4097  0.3392  0.4492
17976TIP3    H275344   3.896   1.200  13.315  0.1429  1.1571  1.1027
17977TIP3   OH275345   3.047   0.118   2.741  0.0782 -0.2158 -0.0132
17977TIP3    H175346   2.964   0.113   2.693  0.0892  0.3940 -0.0922
17977TIP3    H275347   3.055   0.210   2.766  0.0846 -0.5131  1.1423
17978TIP3   OH275348   0.202   1.793   0.398  0.2203 -0.1956 -0.1612
17978TIP3    H175349   0.187   1.863   0.462  1.7776 -1.3243  1.5654
17978TIP3    H275350   0.272   1.826   0.343  0.7978 -0.2665  0.5094
17979TIP3   OH275351   3.271   0.521  15.132  0.3830  0.3904  0.2953
17979TIP3    H175352   3.233   0.599  15.093  2.5859  0.1938 -2.6257
17979TIP3    H275353   3.262   0.454  15.064  3.2188 -0.3622  0.5167
17980TIP3   OH275354   0.071   0.586   3.786  0.5923 -0.3608  0.1803
17980TIP3    H175355   0.032   0.524   3.848 -0.8864  0.0047 -0.3609
17980TIP3    H275356   0.094   0.532   3.710  0.2259 -0.4135  0.1061
17981TIP3   OH275357   0.179   0.886  15.799  0.0111  0.3721 -0.2534
17981TIP3    H175358   0.175   0.933  15.882  1.2220  1.5968 -0.8360
17981TIP3    H275359   0.273   0.883  15.779 -0.2285 -0.3493 -1.3245
17982TIP3   OH275360   0.420   3.118  16.477  0.1415  0.1031 -0.0665
17982TIP3    H175361   0.484   3.057  16.441  2.3818  1.5605  1.1998
17982TIP3    H275362   0.405   3.181  16.406  1.2251  0.5259  0.0517
17983TIP3   OH275363   6.239   2.856  11.552 -0.1352 -0.1131  0.0603
17983TIP3    H175364   6.306   2.830  11.489  1.1317  0.7070  0.9944
17983TIP3    H275365   6.276   2.831  11.637 -0.9471  0.5020  0.6064
17984TIP3   OH275366   6.008   2.817  11.401 -0.0735  0.0783 -0.0906
17984TIP3    H175367   6.085   2.812  11.457 -0.1634 -1.0779 -0.0429
17984TIP3    H275368   5.973   2.728  11.400 -0.7183  0.3234 -1.0802
17985TIP3   OH275369   4.628   5.305   2.592  0.2510 -0.0103  0.1715
17985TIP3    H175370   4.674   5.225   2.619 -0.3423 -0.6147 -0.5523
17985TIP3    H275371   4.565   5.322   2.662  1.1254  0.4624  0.8620
17986TIP3   OH275372   0.176   0.751   2.207  0.1624 -0.2220 -0.1698
17986TIP3    H175373   0.268   0.754   2.180  0.1883 -0.5943 -0.1327
17986TIP3    H275374   0.135   0.825   2.163  0.3379 -0.4569 -0.7334
17987TIP3   OH275375   0.176   5.358   2.647  0.1027  0.1964 -0.1055
17987TIP3    H175376   0.117   5.432   2.664  0.0455  0.0539  0.3256
17987TIP3    H275377   0.251   5.398   2.602  0.0144  0.5025  0.0109
17988TIP3   OH275378   1.819   5.130  16.053 -0.2194  0.0370 -0.3993
17988TIP3    H175379   1.914   5.124  16.036  0.2914 -0.0211  2.1050
17988TIP3    H275380   1.780   5.133  15.966  2.0400 -0.6561 -1.5319
17989TIP3   OH275381   5.938   5.768   3.335  0.4966  0.0620 -0.0874
17989TIP3    H175382   5.906   5.829   3.402 -0.2252  0.9423 -1.1920
17989TIP3    H275383   5.863   5.711   3.316  1.0641 -0.9691  0.6926
17990TIP3   OH275384   4.182   1.843   4.013  0.3975  0.0814 -0.7980
17990TIP3    H175385   4.165   1.789   3.936  0.9019  0.4956 -1.2155
17990TIP3    H275386   4.276   1.837   4.026  0.2178 -0.6349  0.2944
17991TIP3   OH275387   0.091   3.767   0.448  0.1629 -0.2526  0.0669
17991TIP3    H175388   0.162   3.823   0.416  0.2603  0.6162  1.7221
17991TIP3    H275389   0.013   3.798   0.404  0.6288 -0.5595 -1.0098
17992TIP3   OH275390   5.320   4.270  15.595  0.5443 -0.2236 -0.1011
17992TIP3    H175391   5.254   4.305  15.536 -1.0284 -1.3159  0.9503
17992TIP3    H275392   5.383   4.226  15.537  0.0226  0.2745 -1.0751
17993TIP3   OH275393   5.450   0.472   4.970 -1.4034  0.1559 -0.7848
17993TIP3    H175394   5.539   0.505   4.983 -0.7157 -1.1349 -1.8728
17993TIP3    H275395   5.461   0.396   4.913 -2.9563 -1.5193  0.9869
17994TIP3   OH275396   2.487   4.196   0.995  0.3871  0.0816 -0.2546
17994TIP3    H175397   2.432   4.272   0.978  0.4895  0.1551 -0.2563
17994TIP3    H275398   2.453   4.128   0.936  1.0315  0.4686 -1.0989
17995TIP3   OH275399   6.021   2.183  10.810 -0.4241  0.2415  0.4561
17995TIP3    H175400   6.012   2.116  10.742  2.0452 -0.2181  0.4629
17995TIP3    H275401   5.934   2.222  10.818 -1.4413 -1.5552 -1.0110
17996TIP3   OH275402   1.981   0.120   3.756 -0.8191 -0.3369  0.1003
17996TIP3    H175403   2.037   0.194   3.735  0.2926 -0.9231  0.8993
17996TIP3    H275404   1.908   0.158   3.805  0.0566  0.1747  1.0376
17997TIP3   OH275405   1.112   6.561  13.940 -0.6486  0.0186 -0.5607
17997TIP3    H175406   1.020   6.578  13.961 -1.3055 -2.7755 -0.6611
17997TIP3    H275407   1.121   6.466  13.950  1.5828 -0.1652 -3.0979
17998TIP3   OH275408   4.260   4.219  15.960 -0.0005  0.0615 -0.0916
17998TIP3    H175409   4.336   4.276  15.955  0.6189 -0.6956  0.4082
17998TIP3    H275410   4.223   4.219  15.871 -0.8475  2.3106  0.2064
17999TIP3   OH275411   2.125   3.432   2.785 -0.4051 -0.4294  0.0890
17999TIP3    H175412   2.098   3.364   2.723 -0.1176 -0.6495  0.2044
17999TIP3    H275413   2.044   3.479   2.806 -0.3987  0.1185 -1.0164
18000TIP3   OH275414   3.691   1.968   1.458  0.5098  0.3532  0.8383
18000TIP3    H175415   3.750   2.015   1.399 -1.3616  0.2883 -1.2435
18000TIP3    H275416   3.727   1.880   1.463 -0.0202 -0.0640 -1.4708
18001TIP3   OH275417   6.091   3.384  14.709  0.6897  0.0232  0.0559
18001TIP3    H175418   6.172   3.423  14.675  1.1159 -0.1396  0.8741
18001TIP3    H275419   6.030   3.389  14.635  1.5313 -0.1257 -0.6732
18002TIP3   OH275420   4.844   0.944  14.653  0.0238 -0.3073  0.0830
18002TIP3    H175421   4.919   0.984  14.696 -0.6115  2.2549 -1.0082
18002TIP3    H275422   4.768   0.992  14.685 -0.6487  0.4324 -2.3665
18003TIP3   OH275423   2.390   3.127   3.992  0.2129  0.1552 -0.0901
18003TIP3    H175424   2.432   3.211   4.014  0.6804 -0.1946  0.3942
18003TIP3    H275425   2.390   3.079   4.075 -1.1884  0.1533 -0.0703
18004TIP3   OH275426   6.251   3.478   6.456 -0.4652 -0.2477  0.2859
18004TIP3    H175427   6.255   3.405   6.518 -2.7917 -0.8647 -0.1848
18004TIP3    H275428   6.314   3.542   6.490  3.2398 -3.1764 -0.3852
18005TIP3   OH275429   4.364   4.727  10.199  0.4907 -0.1256 -0.1372
18005TIP3    H175430   4.345   4.820  10.184  0.8872 -0.1005 -0.4960
18005TIP3    H275431   4.296   4.699  10.260 -0.9404 -0.1181 -1.6477
18006TIP3   OH275432   3.159   2.630   2.933 -0.2349 -0.8411 -0.2331
18006TIP3    H175433   3.149   2.554   2.990 -0.5517  0.9005  2.1888
18006TIP3    H275434   3.250   2.626   2.903  0.4972 -0.9369  1.8338
18007TIP3   OH275435   6.308   0.290  11.733 -0.1158  0.1604 -0.1289
18007TIP3    H175436   6.265   0.206  11.721  0.1973 -0.0865  0.4639
18007TIP3    H275437   6.399   0.268  11.754 -0.0351  0.6463  0.0443
18008TIP3   OH275438   6.621   2.815   2.813  0.0289  0.1531  0.4370
18008TIP3    H175439   6.675   2.891   2.790 -0.1839  0.9011  2.2169
18008TIP3    H275440   6.667   2.740   2.774  0.4730  1.1206 -0.9927
18009TIP3   OH275441   4.854   6.131  12.058  0.6727 -0.4112 -0.1410
18009TIP3    H175442   4.883   6.212  12.015  0.0535  0.4052  0.9112
18009TIP3    H275443   4.780   6.158  12.112 -0.1253 -1.8712 -0.4576
18010TIP3   OH275444   2.231   3.282   1.475 -0.0439 -0.1001 -0.0612
18010TIP3    H175445   2.245   3.292   1.381  0.2345 -2.1325 -0.2803
18010TIP3    H275446   2.315   3.303   1.514 -0.2212  0.9816 -0.2109
18011TIP3   OH275447   3.139   5.760   4.578 -0.0203 -0.0138  0.0697
18011TIP3    H175448   3.115   5.718   4.661 -0.8871 -1.6860 -0.9874
18011TIP3    H275449   3.084   5.839   4.575  2.1632  1.7880  2.4252
18012TIP3   OH275450   1.386   1.516   3.134 -0.1957 -0.0849  0.0328
18012TIP3    H175451   1.477   1.499   3.158 -0.2823  0.0692  0.4807
18012TIP3    H275452   1.339   1.517   3.217 -0.4947  0.5302 -0.1368
18013TIP3   OH275453   4.692   0.648  12.850  0.1052 -0.1196 -0.3621
18013TIP3    H175454   4.620   0.710  12.833  0.3850 -0.0232 -1.2650
18013TIP3    H275455   4.748   0.656  12.773 -0.7847 -2.8088 -1.3857
18014TIP3   OH275456   6.455   6.531  13.217  0.1144  0.4106  0.1682
18014TIP3    H175457   6.424   6.619  13.238  1.4334  1.2815 -1.3256
18014TIP3    H275458   6.421   6.477  13.288 -1.1244  2.0227  0.8868
18015TIP3   OH275459   5.075   4.250  16.330  0.4055  0.6158  0.3071
18015TIP3    H175460   5.114   4.165  16.351 -1.5136 -1.0923 -2.3266
18015TIP3    H275461   5.115   4.275  16.247 -0.5590  1.2127  0.0025
18016TIP3   OH275462   0.443   5.983   1.327  0.7002  0.1196 -0.7850
18016TIP3    H175463   0.497   5.949   1.398 -0.5900 -2.1062 -0.7802
18016TIP3    H275464   0.489   5.957   1.247 -0.1945 -1.5936 -0.7781
18017TIP3   OH275465   1.966   5.322  15.335 -0.2796 -0.2955  0.1848
18017TIP3    H175466   1.942   5.256  15.270 -1.4124  0.6496 -0.4230
18017TIP3    H275467   1.897   5.316  15.401  0.5684 -0.8781  1.0263
18018TIP3   OH275468   6.757   4.048   1.298 -0.0392  1.1062  0.0750
18018TIP3    H175469   6.686   4.032   1.361 -0.7625 -0.2657 -1.0375
18018TIP3    H275470   6.831   4.075   1.352  0.4389 -3.2749  2.0230
18019TIP3   OH275471   1.359   1.417  12.388  0.0505  0.0337  0.2456
18019TIP3    H175472   1.382   1.479  12.457  0.5401 -0.9587  0.9969
18019TIP3    H275473   1.264   1.406  12.396 -0.1515  1.1931 -0.3475
18020TIP3   OH275474   6.325   1.813  10.930  0.0967 -0.0117  0.4856
18020TIP3    H175475   6.299   1.870  11.002 -0.9061  1.9355 -1.3023
18020TIP3    H275476   6.248   1.759  10.913  0.2731 -0.3502  0.7550
18021TIP3   OH275477   0.376   5.351  12.362 -0.7558  0.1542 -0.4984
18021TIP3    H175478   0.361   5.329  12.270  2.4522  0.4043 -1.2108
18021TIP3    H275479   0.389   5.267  12.405  0.1398  0.1111 -0.8258
18022TIP3   OH275480   3.919   0.347   4.311 -0.2236 -0.4086  0.0340
18022TIP3    H175481   3.982   0.290   4.266 -0.4014  0.0890 -0.8645
18022TIP3    H275482   3.904   0.419   4.250 -0.7463  0.1048  0.7514
18023TIP3   OH275483   4.013   3.628   0.927  0.4513 -0.3899  0.5903
18023TIP3    H175484   3.999   3.620   0.833 -2.5172 -0.5893  0.9398
18023TIP3    H275485   4.073   3.557   0.949  0.0130 -1.2854 -0.9565
18024TIP3   OH275486   0.826   3.468  12.785 -0.1102 -0.0269  0.0860
18024TIP3    H175487   0.878   3.542  12.756  1.2718 -1.1436 -0.4278
18024TIP3    H275488   0.814   3.481  12.879  0.1563  0.8087  0.0041
18025TIP3   OH275489   0.656   1.276   2.032 -0.1956 -0.2512  0.8221
18025TIP3    H175490   0.748   1.264   2.055  0.2298 -1.0504 -1.1964
18025TIP3    H275491   0.615   1.192   2.050  0.2898 -1.1272 -1.8318
18026TIP3   OH275492   6.630   0.763   0.230  0.0556 -0.6284 -0.0209
18026TIP3    H175493   6.609   0.730   0.143 -0.1784 -2.3260  0.6491
18026TIP3    H275494   6.559   0.730   0.286  0.6490 -0.2624  0.9754
18027TIP3   OH275495   5.492   4.044   6.400  0.2993  0.3008  0.0971
18027TIP3    H175496   5.516   4.136   6.393 -0.2553  0.4072 -0.4949
18027TIP3    H275497   5.420   4.043   6.464  0.0464  0.3314 -0.1846
18028TIP3   OH275498   2.596   5.028  12.648 -0.3394 -0.2841  0.6323
18028TIP3    H175499   2.680   5.062  12.619  1.0008 -1.1278  3.2285
18028TIP3    H275500   2.559   4.986  12.571  1.8907 -0.3972 -0.4398
18029TIP3   OH275501   4.314   3.189  11.504  0.4148 -0.5375 -0.3258
18029TIP3    H175502   4.229   3.187  11.461  0.1623  0.0146  0.1396
18029TIP3    H275503   4.371   3.237  11.444  0.2685 -0.4517 -0.3962
18030TIP3   OH275504   3.425   3.427  10.001 -0.4316 -0.2762 -0.2000
18030TIP3    H175505   3.471   3.490  10.056 -0.8785  0.7497 -0.9718
18030TIP3    H275506   3.350   3.475   9.966 -0.0208 -0.8015 -1.9248
18031TIP3   OH275507   1.119   2.112  12.529  0.6270 -0.0403  0.0635
18031TIP3    H175508   1.050   2.175  12.507  1.3219  1.1291  1.0854
18031TIP3    H275509   1.158   2.090  12.445 -0.4380 -0.0801 -0.4449
18032TIP3   OH275510   3.378   3.001   2.212 -0.2653 -0.2410  0.2852
18032TIP3    H175511   3.360   2.995   2.118 -0.9741 -0.0279  0.4018
18032TIP3    H275512   3.416   2.915   2.235  0.4234 -0.0993 -0.2932
18033TIP3   OH275513   4.742   1.726  11.186  0.2079 -0.1010 -0.1477
18033TIP3    H175514   4.824   1.753  11.228  0.0709 -0.7763  0.5851
18033TIP3    H275515   4.679   1.725  11.257 -0.8978  2.1964 -1.0258
18034TIP3   OH275516   0.220   2.439   5.014 -0.3085 -0.1045 -0.2822
18034TIP3    H175517   0.212   2.396   4.930 -1.0852  0.1184 -0.3273
18034TIP3    H275518   0.130   2.463   5.038  0.0502  1.1260 -0.0788
18035TIP3   OH275519   2.386   5.441  14.519 -0.2530 -0.1394  0.6135
18035TIP3    H175520   2.404   5.363  14.573  0.6468  0.3527  1.0468
18035TIP3    H275521   2.311   5.482  14.562  0.1618 -0.0039  1.2283
18036TIP3   OH275522   6.466   5.253   2.371 -0.3421  0.0894  0.5638
18036TIP3    H175523   6.536   5.188   2.368  0.6748  0.9547  2.9784
18036TIP3    H275524   6.448   5.274   2.279  1.2994 -1.4657 -0.1669
18037TIP3   OH275525   1.688   1.087  16.035  0.1512 -0.1995 -0.2530
18037TIP3    H175526   1.704   0.993  16.046  0.2630 -0.4413 -2.1188
18037TIP3    H275527   1.614   1.105  16.093  1.1103 -1.0757  1.3231
18038TIP3   OH275528   3.951   1.649   2.974  0.0127 -0.1543 -0.2569
18038TIP3    H175529   4.023   1.600   3.014 -0.4648  0.1809  1.0568
18038TIP3    H275530   3.983   1.738   2.967 -0.5523  0.1934  1.1659
18039TIP3   OH275531   4.520   1.391   1.150 -0.0726  0.9134 -0.6931
18039TIP3    H175532   4.437   1.418   1.189 -0.9774 -0.2942 -1.7211
18039TIP3    H275533   4.583   1.398   1.221 -1.1733  1.2325  0.2805
18040TIP3   OH275534   0.661   5.713  14.753  0.1063  0.3560 -0.1939
18040TIP3    H175535   0.677   5.796  14.709 -0.2575 -0.6381 -2.3485
18040TIP3    H275536   0.745   5.667  14.749  0.0534  0.2270  0.1198
18041TIP3   OH275537   3.614   1.043  10.631 -0.2782  0.0405  0.4350
18041TIP3    H175538   3.607   0.961  10.583  1.2359 -0.3076  0.7749
18041TIP3    H275539   3.524   1.076  10.634 -1.0148 -1.8686  0.7897
18042TIP3   OH275540   5.771   2.331   5.186  0.5141 -0.2867  0.5348
18042TIP3    H175541   5.800   2.378   5.264 -2.0971  1.3179  0.6362
18042TIP3    H275542   5.804   2.242   5.198  2.2327  0.5078  2.2460
18043TIP3   OH275543   2.699   1.608   2.757  0.3870  0.3518  0.0539
18043TIP3    H175544   2.762   1.680   2.759 -1.2133  1.8327 -0.4669
18043TIP3    H275545   2.728   1.548   2.826  3.2790  0.1169 -1.2211
18044TIP3   OH275546   3.648   3.941  17.147 -0.2740 -0.3578  0.1265
18044TIP3    H175547   3.716   3.974  17.087  0.8403 -3.3833 -0.4461
18044TIP3    H275548   3.633   3.851  17.119 -3.0312 -0.4792  1.6303
18045TIP3   OH275549   1.247   2.873  10.376  0.1540  0.2919  0.0618
18045TIP3    H175550   1.151   2.869  10.386  0.1727 -1.3149 -0.2745
18045TIP3    H275551   1.281   2.837  10.458  0.4585 -0.3126 -0.3287
18046TIP3   OH275552   3.335   5.268   2.698 -0.0638  0.2163  0.2505
18046TIP3    H175553   3.304   5.259   2.608  0.7119 -1.2621  0.1112
18046TIP3    H275554   3.399   5.340   2.693 -1.2533  1.3051 -0.0110
18047TIP3   OH275555   3.736   1.468  15.206  0.3731 -0.1521  0.3197
18047TIP3    H175556   3.649   1.479  15.168 -0.7674  0.9953  3.0058
18047TIP3    H275557   3.795   1.509  15.143 -1.0836 -0.2452 -1.1933
18048TIP3   OH275558   2.095   2.429   0.011  0.6050 -0.3483 -0.2264
18048TIP3    H175559   2.079   2.410   0.104  0.7750  1.0858  0.1077
18048TIP3    H275560   2.039   2.366  -0.035 -0.5022 -0.1990  0.8604
18049TIP3   OH275561   0.386   1.050   2.327 -0.2373 -0.1710 -0.1620
18049TIP3    H175562   0.291   1.048   2.331 -0.2594  0.5037 -0.2251
18049TIP3    H275563   0.410   0.970   2.281 -0.7368 -0.6535  0.3997
18050TIP3   OH275564   4.534   3.121   3.226 -0.1520  0.2447  0.1491
18050TIP3    H175565   4.613   3.104   3.175  1.1764  1.9784  1.4964
18050TIP3    H275566   4.499   3.202   3.189  0.4065  1.1046  1.4140
18051TIP3   OH275567   4.396   2.077  12.227  0.4499  0.0934 -0.0778
18051TIP3    H175568   4.359   2.050  12.143  0.2163 -5.2831  1.3443
18051TIP3    H275569   4.490   2.064  12.217  0.4977  0.1667  0.2480
18052TIP3   OH275570   3.029   4.909  16.811  0.4753  0.7438  0.3469
18052TIP3    H175571   2.941   4.892  16.844  0.0217 -1.5899 -1.7450
18052TIP3    H275572   3.017   4.927  16.718  2.2152 -0.2718 -0.1310
18053TIP3   OH275573   3.275   4.302   6.723 -0.1515 -0.7914 -0.1929
18053TIP3    H175574   3.326   4.247   6.783 -2.3111 -2.7465 -0.0188
18053TIP3    H275575   3.184   4.287   6.748 -1.0412 -0.4215 -2.9040
18054TIP3   OH275576   6.087   3.902   6.095 -0.7985  0.4208 -0.3756
18054TIP3    H175577   6.152   3.832   6.105 -0.9506  0.2422 -0.6184
18054TIP3    H275578   6.112   3.967   6.160 -0.1869  0.4929 -0.6684
18055TIP3   OH275579   0.966   4.656   0.258 -0.2959  0.0511 -0.6150
18055TIP3    H175580   0.934   4.613   0.338  1.0014  0.6722  0.2698
18055TIP3    H275581   1.036   4.713   0.288 -1.0722  1.8068 -1.9496
18056TIP3   OH275582   3.405   2.389  12.262  0.4733 -0.0217 -0.2233
18056TIP3    H175583   3.353   2.343  12.328 -0.6387 -0.3047 -1.2590
18056TIP3    H275584   3.379   2.481  12.270 -1.0505 -0.3215 -1.4791
18057TIP3   OH275585   6.764   5.899   5.008 -0.0746 -0.2319  0.2332
18057TIP3    H175586   6.806   5.909   4.923 -0.1448  0.0958  0.2394
18057TIP3    H275587   6.837   5.886   5.069 -0.0710 -3.2614 -0.2289
18058TIP3   OH275588   2.017   5.101  16.710  0.9025 -0.4122 -0.7777
18058TIP3    H175589   1.982   5.170  16.768 -1.5189 -0.0053 -2.5413
18058TIP3    H275590   2.107   5.088  16.740 -0.1559 -0.2216  3.0057
18059TIP3   OH275591   5.969   1.626  11.757 -0.1826 -0.6214  0.2288
18059TIP3    H175592   5.876   1.610  11.737 -0.7342 -1.9552  3.2473
18059TIP3    H275593   6.008   1.539  11.758  1.3473 -0.0219 -1.6624
18060TIP3   OH275594   0.185   1.641  14.571 -0.5682  0.2911 -0.0808
18060TIP3    H175595   0.229   1.595  14.642 -0.5862 -0.5655 -0.6208
18060TIP3    H275596   0.221   1.603  14.491 -0.7809  1.0278 -0.5415
18061TIP3   OH275597   5.878   2.629   1.040  0.0902  0.6699  0.6564
18061TIP3    H175598   5.787   2.631   1.071  0.3384  0.5429  1.4187
18061TIP3    H275599   5.930   2.653   1.116  0.7809 -0.5136  0.5847
18062TIP3   OH275600   2.406   5.457   2.957 -0.6054  0.7682 -0.1338
18062TIP3    H175601   2.447   5.528   3.006  0.0146 -0.6065  1.4443
18062TIP3    H275602   2.331   5.430   3.010  0.2124 -0.9046  0.2433
18063TIP3   OH275603   0.572   3.749  12.851 -0.0582  0.1042  0.0550
18063TIP3    H175604   0.621   3.817  12.898 -0.2979 -0.1862  0.7409
18063TIP3    H275605   0.592   3.764  12.759  1.6941 -0.2765  0.3432
18064TIP3   OH275606   1.922   6.300   5.299  0.1333 -0.3642 -0.2299
18064TIP3    H175607   1.907   6.252   5.381  0.5807  0.5347  0.3949
18064TIP3    H275608   1.948   6.232   5.237 -0.9615 -1.1738  0.1500
18065TIP3   OH275609   1.735   1.587  10.409 -0.6069  0.0222 -0.4956
18065TIP3    H175610   1.659   1.645  10.411 -0.8174 -0.2350 -0.9446
18065TIP3    H275611   1.765   1.584  10.500 -3.2818 -2.6563  0.4771
18066TIP3   OH275612   0.947   0.048   4.599  0.3102 -0.0411 -0.2437
18066TIP3    H175613   0.877  -0.009   4.566  1.4317 -1.6563  0.0264
18066TIP3    H275614   0.939   0.043   4.695  0.6486 -0.0809 -0.2139
18067TIP3   OH275615   1.046   3.484   3.574  0.4021 -0.6246 -0.1568
18067TIP3    H175616   0.965   3.511   3.531  0.3720 -2.5458 -1.4141
18067TIP3    H275617   1.023   3.478   3.667 -0.4319  0.3794 -0.2792
18068TIP3   OH275618   5.792   0.812  17.024  0.7177  0.1522 -0.1415
18068TIP3    H175619   5.841   0.869  17.084 -0.5069  0.3769  0.6763
18068TIP3    H275620   5.700   0.832  17.042  0.1779  2.7726 -4.4608
18069TIP3   OH275621   1.358   5.276  16.404  0.4909 -0.2469 -0.0183
18069TIP3    H175622   1.432   5.225  16.372  0.6994 -0.9188  1.4535
18069TIP3    H275623   1.396   5.361  16.428  0.5323 -0.1298 -0.4905
18070TIP3   OH275624   3.773   3.261  12.160  0.3972 -0.4777  0.0614
18070TIP3    H175625   3.852   3.300  12.197  1.0436 -1.6224 -0.0943
18070TIP3    H275626   3.701   3.304  12.207  1.1097  0.2574  0.5037
18071TIP3   OH275627   1.496   4.010  17.039 -0.2977  0.6541 -0.2381
18071TIP3    H175628   1.532   3.926  17.069 -0.4838  0.5400 -0.3346
18071TIP3    H275629   1.544   4.075  17.089  2.0999  0.6734 -2.3715
18072TIP3   OH275630   3.302   6.155  12.419  0.9430  0.3076  0.1674
18072TIP3    H175631   3.304   6.160  12.324  0.6744  0.0489  0.1466
18072TIP3    H275632   3.210   6.172  12.442  1.3407  2.1877  0.4945
18073TIP3   OH275633   5.547   5.384   5.342 -0.0647 -0.1450 -0.1226
18073TIP3    H175634   5.552   5.440   5.419  1.0080 -2.6627  1.7649
18073TIP3    H275635   5.639   5.371   5.317 -0.3919  0.5437 -1.8135
18074TIP3   OH275636   4.524   6.401  12.028 -0.4864 -0.0148  0.4707
18074TIP3    H175637   4.604   6.429  11.984 -1.1892 -0.3812 -1.1422
18074TIP3    H275638   4.554   6.342  12.097  0.6941  0.8919  0.7728
18075TIP3   OH275639   5.998   3.478   6.026  0.2503  0.3295  0.4818
18075TIP3    H175640   5.947   3.489   6.106  0.2391  1.1499  0.3763
18075TIP3    H275641   6.036   3.391   6.032  1.6804  1.0166  2.2120
18076TIP3   OH275642   1.166   2.518   1.182  0.1455  0.4061  0.4811
18076TIP3    H175643   1.178   2.473   1.265 -0.0214 -0.6864 -0.0626
18076TIP3    H275644   1.187   2.610   1.200  1.5303 -0.0723  1.3790
18077TIP3   OH275645   0.152   0.752  11.889  0.4258 -0.2166  0.0434
18077TIP3    H175646   0.064   0.731  11.858 -0.0170  0.5713  0.7189
18077TIP3    H275647   0.176   0.832  11.842 -0.3994  1.1964  1.9275
18078TIP3   OH275648   2.615   1.158  15.488  0.3153  0.1489  0.4333
18078TIP3    H175649   2.545   1.125  15.431 -0.7796  0.4284  1.5531
18078TIP3    H275650   2.587   1.246  15.511  2.2606  1.1962 -0.9753
18079TIP3   OH275651   4.892   4.595   2.855 -0.8255 -0.5141  0.1481
18079TIP3    H175652   4.921   4.515   2.811 -1.0654  0.3589 -1.6615
18079TIP3    H275653   4.973   4.636   2.885 -0.2344  0.8539 -3.0272
18080TIP3   OH275654   4.335   4.288   4.862  0.2021 -0.2739 -0.1741
18080TIP3    H175655   4.315   4.204   4.904  1.2644  0.1817  1.3101
18080TIP3    H275656   4.299   4.353   4.922 -1.3116  0.3779 -1.6890
18081TIP3   OH275657   1.999   5.656   1.351 -0.2915 -0.2788 -0.3853
18081TIP3    H175658   2.085   5.700   1.351 -0.6924  0.5615 -1.4548
18081TIP3    H275659   1.956   5.689   1.272 -1.6953 -0.5162  0.2604
18082TIP3   OH275660   2.682   1.477   4.314 -0.0391 -0.0653  0.7882
18082TIP3    H175661   2.631   1.446   4.240  2.6484  2.1525 -2.2978
18082TIP3    H275662   2.692   1.400   4.371 -2.6401 -1.7458 -0.8579
18083TIP3   OH275663   1.403   3.717  13.763 -0.0027 -0.0850 -0.0901
18083TIP3    H175664   1.472   3.697  13.826  1.0220  0.4953 -0.9950
18083TIP3    H275665   1.429   3.801  13.725 -0.7718 -0.2612 -1.0456
18084TIP3   OH275666   5.789   3.468  11.799 -0.1304  0.3639  0.8132
18084TIP3    H175667   5.873   3.507  11.773 -0.0945  0.3745  0.9418
18084TIP3    H275668   5.736   3.469  11.720  0.5341 -1.0591  0.3111
18085TIP3   OH275669   2.913   4.378  11.804 -0.2931  0.9347  0.0631
18085TIP3    H175670   2.885   4.466  11.779 -0.4217  1.3681  1.6187
18085TIP3    H275671   3.007   4.376  11.786 -0.0443  1.8337  1.1382
18086TIP3   OH275672   6.328   5.736   3.198  0.3627  0.0785  0.0288
18086TIP3    H175673   6.290   5.821   3.222  0.3919  0.0683  0.1140
18086TIP3    H275674   6.335   5.689   3.281  0.6154  0.1025  0.0234
18087TIP3   OH275675   5.627   4.295   5.700 -0.0982 -0.1688  0.1201
18087TIP3    H175676   5.649   4.204   5.720 -0.5236 -0.0181  1.3909
18087TIP3    H275677   5.532   4.295   5.686 -0.0205 -0.0077 -0.4461
18088TIP3   OH275678   4.754   6.330  16.441 -0.4014  0.0112  0.5056
18088TIP3    H175679   4.739   6.306  16.533  1.1269  0.0177  0.7776
18088TIP3    H275680   4.698   6.270  16.392  0.7236 -1.8321  1.3329
18089TIP3   OH275681   3.457   3.889   4.921 -0.1466  0.0772  0.0487
18089TIP3    H175682   3.412   3.909   5.003  0.7819 -1.9717  1.1176
18089TIP3    H275683   3.390   3.902   4.854 -1.8665 -1.1789  1.4111
18090TIP3   OH275684   2.978   5.818  12.936 -0.0676 -0.5347 -0.5948
18090TIP3    H175685   3.058   5.866  12.958 -0.7962  0.1467  0.6715
18090TIP3    H275686   2.952   5.853  12.851  1.2128 -1.1072 -1.2627
18091TIP3   OH275687   3.539   4.444  10.772 -0.5539  0.1315  0.2421
18091TIP3    H175688   3.543   4.464  10.679 -1.3444  2.2555  0.6083
18091TIP3    H275689   3.494   4.359  10.777 -0.4196 -0.0508 -1.2911
18092TIP3   OH275690   5.500   2.079   4.051 -0.3800 -0.2238 -0.2439
18092TIP3    H175691   5.472   2.088   4.142 -0.1854 -1.3443 -0.0569
18092TIP3    H275692   5.522   2.168   4.024 -3.5827  0.7071 -0.2436
18093TIP3   OH275693   0.623   5.888   3.848  0.5738  0.2840  0.5482
18093TIP3    H175694   0.532   5.862   3.839 -0.3405  3.5116 -1.1292
18093TIP3    H275695   0.630   5.919   3.939  0.6784 -1.8754  1.3437
18094TIP3   OH275696   3.692   5.583  10.079 -0.3274  0.1719  0.5371
18094TIP3    H175697   3.783   5.598  10.104  0.2825 -2.4313  0.1624
18094TIP3    H275698   3.650   5.667  10.092  1.7249  1.0126  2.4646
18095TIP3   OH275699   0.232   6.596  14.120  0.5326 -0.1926  0.1124
18095TIP3    H175700   0.326   6.590  14.141  0.5253  0.9716  0.5830
18095TIP3    H275701   0.210   6.510  14.085  1.4694 -0.9433  1.2538
18096TIP3   OH275702   5.000   3.910  15.052 -0.0184  0.1053  0.4333
18096TIP3    H175703   4.955   3.936  15.132 -1.8241  0.2758 -0.5967
18096TIP3    H275704   4.959   3.828  15.026  2.2015 -1.2639  0.9290
18097TIP3   OH275705   5.174   1.823   4.753  0.2338  0.1537 -0.1027
18097TIP3    H175706   5.097   1.862   4.710  0.3168  0.6629  0.2017
18097TIP3    H275707   5.138   1.769   4.823  0.0134 -1.8714 -1.7005
18098TIP3   OH275708   2.931   5.559  11.412  0.4958  0.7860  0.0891
18098TIP3    H175709   2.853   5.582  11.462  0.7110 -0.5667  1.1143
18098TIP3    H275710   2.919   5.602  11.327 -0.5309  2.0064  0.8143
18099TIP3   OH275711   4.004   4.015   5.591  0.0581  0.5713 -0.4600
18099TIP3    H175712   3.919   4.024   5.549 -0.2925 -1.4272 -0.2703
18099TIP3    H275713   4.066   4.004   5.519 -0.0108  0.7793 -0.5523
18100TIP3   OH275714   2.834   3.080  11.402  0.2288 -0.1006 -0.6360
18100TIP3    H175715   2.813   3.137  11.328 -0.2250  2.1330  1.0977
18100TIP3    H275716   2.873   3.139  11.467  0.3299 -1.9063  1.0184
18101TIP3   OH275717   3.770   2.221  14.133 -0.1328 -0.4114 -0.1039
18101TIP3    H175718   3.801   2.278  14.203 -1.8513 -0.0903  0.4401
18101TIP3    H275719   3.783   2.133  14.166 -0.5026 -0.2700  0.4254
18102TIP3   OH275720   5.227   4.792  11.875  0.3524 -0.3203 -0.1563
18102TIP3    H175721   5.269   4.713  11.842  2.3292  0.4325  0.3877
18102TIP3    H275722   5.261   4.862  11.820 -0.2727  0.3268  0.2632
18103TIP3   OH275723   3.872   0.761  15.382  0.0697 -0.7303 -0.0036
18103TIP3    H175724   3.821   0.699  15.435  0.5993 -1.6473 -0.5323
18103TIP3    H275725   3.912   0.707  15.314 -0.9792  0.4936 -1.6711
18104TIP3   OH275726   2.880   3.014  14.608  0.2654  0.0771 -0.1857
18104TIP3    H175727   2.827   2.934  14.612  0.3407  0.0781  2.3446
18104TIP3    H275728   2.883   3.036  14.514 -2.4044 -1.1059 -0.6444
18105TIP3   OH275729   6.466   5.376  10.927 -0.6142  0.2258 -0.0161
18105TIP3    H175730   6.478   5.459  10.972 -1.3494 -0.5302  1.6761
18105TIP3    H275731   6.418   5.398  10.847 -1.8600  1.2835  0.9878
18106TIP3   OH275732   1.200   5.558   0.373 -0.3855  0.0944  0.7998
18106TIP3    H175733   1.292   5.575   0.394 -0.3081 -0.9790  1.3661
18106TIP3    H275734   1.152   5.619   0.429 -0.0149  1.5149 -0.3572
18107TIP3   OH275735   1.830   1.438  15.176  0.5869  0.4425  0.7824
18107TIP3    H175736   1.742   1.428  15.212 -0.0239 -1.9642 -1.1012
18107TIP3    H275737   1.822   1.503  15.107 -0.2507 -1.1450 -0.6957
18108TIP3   OH275738   5.913   6.429  11.918  0.5622  0.2666 -0.7323
18108TIP3    H175739   5.838   6.473  11.878 -1.9550 -0.4393  2.8100
18108TIP3    H275740   5.921   6.467  12.005  1.3240 -2.8304  0.7020
18109TIP3   OH275741   3.724   1.604  13.242  0.3629  0.3554 -0.2439
18109TIP3    H175742   3.755   1.684  13.199  1.0592  0.3490  0.2263
18109TIP3    H275743   3.803   1.564  13.279 -0.2721  0.6666  1.5533
18110TIP3   OH275744   5.545   3.752  14.884  0.3289 -0.6262  0.8859
18110TIP3    H175745   5.533   3.685  14.817 -1.1587  0.2990  0.1670
18110TIP3    H275746   5.622   3.723  14.933  1.4177 -1.4094 -1.1356
18111TIP3   OH275747   4.943   3.328  15.065 -0.3763  0.3054 -0.4718
18111TIP3    H175748   4.912   3.290  14.983 -0.2922  0.2852 -0.4942
18111TIP3    H275749   4.904   3.275  15.134 -0.1802  0.1155 -0.5046
18112TIP3   OH275750   0.067   5.184  15.643 -0.1215 -0.1562  0.1435
18112TIP3    H175751   0.148   5.146  15.675 -0.1464  0.1820  0.6218
18112TIP3    H275752   0.032   5.119  15.583 -1.0877 -1.7511  2.2939
18113TIP3   OH275753   2.030   3.543  15.670 -0.5305  0.1968  0.1324
18113TIP3    H175754   2.094   3.481  15.707 -1.1616 -0.3373  0.3426
18113TIP3    H275755   1.988   3.582  15.747 -0.9317  0.0483 -0.0123
18114TIP3   OH275756   1.082   2.242   4.798  0.2438 -0.1392  0.3961
18114TIP3    H175757   1.141   2.300   4.845  0.2694 -0.9094  1.3372
18114TIP3    H275758   1.131   2.160   4.788  0.2054 -0.0213 -0.9034
18115TIP3   OH275759   0.660   0.745   3.543  0.4495 -0.8825  0.0760
18115TIP3    H175760   0.664   0.800   3.620 -1.7673 -2.0420  1.0995
18115TIP3    H275761   0.710   0.667   3.567  0.0316 -1.1046  0.2372
18116TIP3   OH275762   2.933   2.688   2.786  0.3145 -0.1297  0.4171
18116TIP3    H175763   3.020   2.673   2.822  0.8615  1.8529  0.0834
18116TIP3    H275764   2.933   2.642   2.702  2.0735  1.9249 -0.8362
18117TIP3   OH275765   4.091   5.238   6.298  0.2304  0.1001  0.5112
18117TIP3    H175766   4.042   5.229   6.380  0.5428 -0.4693  0.6446
18117TIP3    H275767   4.172   5.189   6.313 -0.1233 -0.8185 -0.4519
18118TIP3   OH275768   2.756   4.252   3.287 -0.1185  0.3181  0.0532
18118TIP3    H175769   2.765   4.263   3.192 -1.2979  0.7794 -0.0164
18118TIP3    H275770   2.838   4.210   3.314  0.5486  0.8645 -1.0545
18119TIP3   OH275771   1.807   6.376  13.633  0.5264 -0.2426  0.4450
18119TIP3    H175772   1.733   6.383  13.572  0.1627  0.4319  0.9508
18119TIP3    H275773   1.883   6.368  13.577  0.1443 -0.1387 -0.0963
18120TIP3   OH275774   0.880   3.368  16.630 -0.0716 -0.1145 -0.0962
18120TIP3    H175775   0.887   3.273  16.641  2.0979  0.0212  0.1994
18120TIP3    H275776   0.825   3.396  16.703  0.1520 -1.0523  0.4515
18121TIP3   OH275777   3.804   1.086   5.210  0.0678 -0.4531 -0.8266
18121TIP3    H175778   3.837   1.066   5.123 -0.0745 -0.0900 -0.9640
18121TIP3    H275779   3.751   1.009   5.233  1.3939 -1.2747 -0.3913
18122TIP3   OH275780   2.442   1.790  15.764 -0.2418 -0.1332 -0.0743
18122TIP3    H175781   2.458   1.843  15.842 -0.4958 -0.6683  0.3520
18122TIP3    H275782   2.384   1.720  15.795  0.7389 -1.1280 -0.4224
18123TIP3   OH275783   1.705   4.455   0.376  0.1180  0.2474 -0.0340
18123TIP3    H175784   1.740   4.543   0.387 -0.0437  0.2537  0.4674
18123TIP3    H275785   1.782   4.400   0.365  0.2152  0.4626 -0.4542
18124TIP3   OH275786   4.543   6.590   1.309  0.0686  0.0776  0.0681
18124TIP3    H175787   4.496   6.637   1.377  1.0240 -0.4276  1.1185
18124TIP3    H275788   4.493   6.509   1.297  0.3991 -0.2601  0.8638
18125TIP3   OH275789   0.435   6.504   5.000  0.6589  0.4913 -0.8530
18125TIP3    H175790   0.441   6.445   4.925  1.4656  0.1041 -0.4969
18125TIP3    H275791   0.354   6.479   5.044  0.9913 -0.3541 -0.7071
18126TIP3   OH275792   2.182   1.806   0.772  0.3240  0.0133  0.5510
18126TIP3    H175793   2.108   1.748   0.756 -0.7431  0.4231  3.4136
18126TIP3    H275794   2.164   1.885   0.721 -0.4177 -0.5000  0.0146
18127TIP3   OH275795   2.652   2.080   4.450 -0.2057 -0.6817 -0.0172
18127TIP3    H175796   2.691   2.099   4.365  0.1277 -1.9349 -0.1571
18127TIP3    H275797   2.723   2.093   4.513 -1.0937  2.9894  0.4827
18128TIP3   OH275798   5.344   5.485  12.120  0.9542  0.2156 -0.0893
18128TIP3    H175799   5.318   5.476  12.029  0.9554 -0.4325 -0.0338
18128TIP3    H275800   5.352   5.579  12.134 -0.3504  0.3899 -0.3883
18129TIP3   OH275801   0.740   0.156   5.975  0.5392  0.0958  0.1330
18129TIP3    H175802   0.666   0.110   5.934  0.2239 -1.3855  2.1848
18129TIP3    H275803   0.700   0.202   6.049  1.3418  1.3170 -0.1648
18130TIP3   OH275804   6.127   6.119   5.031  0.6222  0.6914  0.7264
18130TIP3    H175805   6.145   6.170   4.951 -2.2050  1.2847  0.3535
18130TIP3    H275806   6.099   6.185   5.095  0.3557 -0.0366  1.3723
18131TIP3   OH275807   3.690   1.866   3.190 -0.0991 -0.0654  0.3657
18131TIP3    H175808   3.659   1.925   3.259  0.1263  0.6478 -0.1344
18131TIP3    H275809   3.763   1.819   3.231  0.1917  0.5276  0.5483
18132TIP3   OH275810   0.257   0.842  16.211 -0.0157 -0.5084 -0.8873
18132TIP3    H175811   0.219   0.765  16.252 -0.2034  0.1313  0.1700
18132TIP3    H275812   0.189   0.909  16.217  0.9148  0.3942  0.2563
18133TIP3   OH275813   6.636   5.706   2.184 -0.7222  0.1353  0.4641
18133TIP3    H175814   6.589   5.639   2.234 -0.0221 -0.2392  0.6397
18133TIP3    H275815   6.635   5.675   2.094  1.7238 -1.4318  0.8758
18134TIP3   OH275816   3.524   1.919  16.188 -0.2208 -0.4480 -0.1316
18134TIP3    H175817   3.565   1.832  16.193 -1.4093 -1.0241 -0.0937
18134TIP3    H275818   3.434   1.901  16.160 -1.0164  0.6058  1.6214
18135TIP3   OH275819   6.661   5.665  15.906 -0.4274 -0.2952  0.5013
18135TIP3    H175820   6.753   5.641  15.901 -1.2244 -3.9577  0.7272
18135TIP3    H275821   6.646   5.718  15.827  1.9519  1.0614  0.8738
18136TIP3   OH275822   4.967   1.851   5.144 -0.2913 -0.1511 -0.0273
18136TIP3    H175823   4.992   1.855   5.236 -1.4744 -0.4244  0.3170
18136TIP3    H275824   5.036   1.899   5.098  2.0197 -2.5537  0.6319
18137TIP3   OH275825   0.299   4.278   3.399 -0.1397  0.0013 -0.4536
18137TIP3    H175826   0.339   4.280   3.312  0.8017  0.4027 -0.0365
18137TIP3    H275827   0.353   4.338   3.451 -1.4481  0.7321  0.0894
18138TIP3   OH275828   3.375   0.765  12.655  0.1225 -0.0703 -0.2138
18138TIP3    H175829   3.319   0.709  12.601  0.0842 -0.5307  0.2940
18138TIP3    H275830   3.439   0.706  12.694  0.0825  0.2370  0.3339
18139TIP3   OH275831   4.065   0.875  11.092  0.2118 -0.5341  0.1703
18139TIP3    H175832   4.054   0.958  11.047  1.1388 -0.2830  0.3819
18139TIP3    H275833   4.160   0.859  11.090  0.2636 -0.6164  1.8277
18140TIP3   OH275834   5.485   5.004   3.994  0.3994 -0.0374 -0.2320
18140TIP3    H175835   5.575   4.969   3.993  0.0980 -1.0386  1.8897
18140TIP3    H275836   5.491   5.085   4.045 -0.1203 -0.9297  1.3064
18141TIP3   OH275837   3.986   0.103   1.522  0.0188 -0.1693 -0.0451
18141TIP3    H175838   4.014   0.186   1.560  0.8729 -0.6759  0.4650
18141TIP3    H275839   3.958   0.051   1.598  1.1366 -0.9580 -0.1478
18142TIP3   OH275840   6.254   1.448   6.162  0.1121  0.0231  0.1669
18142TIP3    H175841   6.344   1.415   6.162  0.2616  0.4280 -0.2462
18142TIP3    H275842   6.246   1.495   6.079 -0.4430  0.0948  0.2600
18143TIP3   OH275843   1.919   2.069  15.750 -0.1167 -0.2526  0.1298
18143TIP3    H175844   1.998   2.118  15.773 -0.3130  0.3562 -0.4501
18143TIP3    H275845   1.854   2.101  15.813 -0.6008  1.2700 -1.0618
18144TIP3   OH275846   2.977   1.033   0.068  0.2696  0.4138  0.1498
18144TIP3    H175847   2.940   1.111   0.028  0.3443 -0.2495 -1.2624
18144TIP3    H275848   2.912   1.005   0.132 -0.7852  0.3616 -0.9232
18145TIP3   OH275849   5.376   5.155   2.640  0.1707 -0.3944  0.3915
18145TIP3    H175850   5.355   5.079   2.586  2.8837 -0.9898  0.0136
18145TIP3    H275851   5.372   5.229   2.579  1.4134 -0.8122 -0.2239
18146TIP3   OH275852   6.200   1.304  13.431 -0.5514  0.1261  0.2825
18146TIP3    H175853   6.276   1.353  13.463 -1.8143  2.0407  0.5102
18146TIP3    H275854   6.169   1.255  13.507 -0.4273  0.5288  0.5953
18147TIP3   OH275855   1.560   0.996   3.160  0.3779 -0.0711 -0.1490
18147TIP3    H175856   1.565   0.908   3.122 -1.3067 -0.9146  1.4304
18147TIP3    H275857   1.501   1.044   3.101  0.1044 -0.4502 -0.1839
18148TIP3   OH275858   5.894   1.923   4.777  0.0435  0.2205  0.0869
18148TIP3    H175859   5.865   2.012   4.794  0.2884  0.7161 -1.8435
18148TIP3    H275860   5.841   1.895   4.702 -0.1387 -1.3302  0.7648
18149TIP3   OH275861   2.508   1.629   2.489  0.6939 -0.2747  0.5018
18149TIP3    H175862   2.604   1.620   2.491  0.7890  0.6239  0.3052
18149TIP3    H275863   2.486   1.622   2.396  0.7275  1.0181  0.3898
18150TIP3   OH275864   6.129   1.814   1.982 -0.2556 -0.0800  0.4513
18150TIP3    H175865   6.189   1.754   2.025  1.3916  2.1404  1.4506
18150TIP3    H275866   6.171   1.835   1.898 -0.2399  0.5287  0.6078
18151TIP3   OH275867   4.380   6.006   5.299  0.1504 -0.4182  0.3417
18151TIP3    H175868   4.473   5.991   5.315  0.1412  0.7372  1.7644
18151TIP3    H275869   4.377   6.075   5.233  0.3132 -0.1962  0.5660
18152TIP3   OH275870   3.758   4.132   3.323  0.2174 -0.6738  0.2853
18152TIP3    H175871   3.697   4.086   3.382 -0.3734 -0.5350 -0.2121
18152TIP3    H275872   3.751   4.224   3.349 -0.7133 -0.4826 -0.5662
18153TIP3   OH275873   3.647   2.161  11.843  0.8466  0.0966 -0.5595
18153TIP3    H175874   3.741   2.174  11.857  0.6088 -0.2888  1.8377
18153TIP3    H275875   3.606   2.221  11.905 -0.5058  0.3298 -1.6574
18154TIP3   OH275876   0.602   1.684   1.502  0.1120 -0.6485 -1.0426
18154TIP3    H175877   0.697   1.695   1.505  0.1519 -1.0062 -0.9325
18154TIP3    H275878   0.584   1.613   1.564 -0.2712 -0.2980 -0.7460
18155TIP3   OH275879   2.344   2.507   6.171 -0.4578 -0.3647  0.2432
18155TIP3    H175880   2.309   2.583   6.218  1.5531 -0.0762  1.4139
18155TIP3    H275881   2.358   2.538   6.082 -1.4227  0.0418  0.2200
18156TIP3   OH275882   4.678   4.798  11.350  0.5274  0.2118  0.8132
18156TIP3    H175883   4.707   4.883  11.383  1.8853  0.7369 -1.4395
18156TIP3    H275884   4.586   4.792  11.374 -0.0402  3.0510 -0.2523
18157TIP3   OH275885   2.716   6.694  13.309  0.1277  0.0006  0.2392
18157TIP3    H175886   2.779   6.680  13.238  1.3502  0.2613  1.2522
18157TIP3    H275887   2.641   6.736  13.265  0.5498 -0.4925 -1.0160
18158TIP3   OH275888   4.935   6.424   0.797  0.6051  0.5398  0.0621
18158TIP3    H175889   4.972   6.340   0.771  2.3312  1.2371  0.1494
18158TIP3    H275890   4.886   6.453   0.720  0.3808 -0.3058 -0.1341
18159TIP3   OH275891   1.612   2.060   1.770 -0.4470  0.1763  0.3923
18159TIP3    H175892   1.694   2.100   1.800  0.7730 -0.4256 -1.8751
18159TIP3    H275893   1.637   2.010   1.692 -3.2325  1.2290 -1.3368
18160TIP3   OH275894   3.892   0.691   0.186  0.1766 -0.1676 -0.4733
18160TIP3    H175895   3.858   0.669   0.273  2.1140  1.2238  0.7190
18160TIP3    H275896   3.883   0.787   0.181  1.9255 -0.0030 -0.9610
18161TIP3   OH275897   1.939   3.615   4.684 -0.1795  0.1825  0.6738
18161TIP3    H175898   1.900   3.638   4.768 -1.2026 -0.9483  0.5418
18161TIP3    H275899   1.901   3.530   4.662  0.1030  0.4199 -0.9066
18162TIP3   OH275900   5.831   4.660   6.089  0.4004  0.4376  0.1107
18162TIP3    H175901   5.852   4.749   6.117 -1.0424  0.6510  0.5896
18162TIP3    H275902   5.737   4.652   6.104  0.8095 -1.8553  2.0984
18163TIP3   OH275903   0.763   3.320  15.361  0.0709  0.5886 -0.1935
18163TIP3    H175904   0.834   3.257  15.366  1.2251  1.8689  0.5142
18163TIP3    H275905   0.763   3.350  15.270  1.2325  1.4032  0.0500
18164TIP3   OH275906   5.729   6.750   4.657 -0.8950 -0.2664  0.7259
18164TIP3    H175907   5.730   6.687   4.729 -0.3609 -0.5855  0.4479
18164TIP3    H275908   5.808   6.730   4.607 -1.6793 -0.6154 -0.4245
18165TIP3   OH275909   0.687   5.380  14.543 -0.3040 -0.5840  0.4464
18165TIP3    H175910   0.755   5.326  14.501  0.4915 -0.5506  1.6454
18165TIP3    H275911   0.644   5.424  14.470  1.0430 -0.5143 -0.3450
18166TIP3   OH275912   6.164   0.084   0.133  0.1704 -0.2648  0.3584
18166TIP3    H175913   6.137  -0.007   0.121 -0.6581 -0.1571  1.2267
18166TIP3    H275914   6.103   0.135   0.079  2.4262 -0.3360 -2.5092
18167TIP3   OH275915   4.476   2.636   6.009 -0.4441 -0.7092 -0.2214
18167TIP3    H175916   4.456   2.607   5.920  0.1741 -0.1351 -0.5574
18167TIP3    H275917   4.532   2.566   6.045  0.2253 -0.4125 -0.6786
18168TIP3   OH275918   3.266   5.731  17.187  0.3872  0.3615 -0.0273
18168TIP3    H175919   3.269   5.753  17.280  1.8528  0.5417 -0.0938
18168TIP3    H275920   3.174   5.709  17.171 -0.4082  2.6155  0.9304
18169TIP3   OH275921   0.030   0.037  12.874 -0.1269 -0.9520 -0.3551
18169TIP3    H175922  -0.009   0.121  12.850 -1.2150 -0.7561  1.7936
18169TIP3    H275923  -0.044  -0.020  12.891  0.5415 -1.5475  0.7027
18170TIP3   OH275924   0.777   0.610  13.306 -0.0311 -0.3471 -0.2008
18170TIP3    H175925   0.692   0.644  13.276 -1.4098 -3.0120  0.4137
18170TIP3    H275926   0.783   0.638  13.397 -0.8306 -1.1394  0.1057
18171TIP3   OH275927   6.355   4.421  11.581 -0.2314 -0.0714  0.5090
18171TIP3    H175928   6.299   4.444  11.507  0.9182 -1.3986 -0.8453
18171TIP3    H275929   6.303   4.358  11.631  0.0041 -1.3779 -0.7991
18172TIP3   OH275930   6.568   5.002   4.692  0.2952  0.4670  0.2120
18172TIP3    H175931   6.526   5.072   4.643  0.9850  0.2158 -0.7738
18172TIP3    H275932   6.654   5.038   4.716 -0.1678  0.7195  1.5771
18173TIP3   OH275933   1.345   0.726   4.395  0.1346 -0.0519 -0.0375
18173TIP3    H175934   1.426   0.767   4.424  0.4009 -0.7062  0.1683
18173TIP3    H275935   1.278   0.762   4.453  0.5829 -0.9557  1.0795
18174TIP3   OH275936   0.648   5.392  12.190  0.2591 -0.1414 -0.2279
18174TIP3    H175937   0.572   5.439  12.156  0.2110 -0.3515 -0.4197
18174TIP3    H275938   0.682   5.447  12.260  1.2369  1.0518 -1.5598
18175TIP3   OH275939   2.662   5.514   2.477 -0.2557 -0.0145 -0.3851
18175TIP3    H175940   2.635   5.423   2.464 -1.9112  0.1741  1.3219
18175TIP3    H275941   2.657   5.527   2.572 -3.5581  2.8227 -0.7375
18176TIP3   OH275942   4.881   3.941   0.117  0.3305  0.1442 -0.7123
18176TIP3    H175943   4.924   3.855   0.118 -0.8858 -0.5406 -2.2958
18176TIP3    H275944   4.862   3.957   0.025 -2.1591  0.6998 -0.1768
18177TIP3   OH275945   3.851   3.513   5.870  0.0597 -0.5648  0.0956
18177TIP3    H175946   3.774   3.457   5.870 -0.0594 -0.4511 -1.6566
18177TIP3    H275947   3.914   3.469   5.928 -1.1683 -0.8233  1.2784
18178TIP3   OH275948   3.348   4.209  14.968  0.0475  0.5439  0.1376
18178TIP3    H175949   3.376   4.160  14.891 -0.8649  0.0039  0.1367
18178TIP3    H275950   3.297   4.282  14.932  0.8145  1.1043  0.1709
18179TIP3   OH275951   5.301   1.018  11.305  0.0447 -0.0862 -0.2731
18179TIP3    H175952   5.328   0.927  11.314 -0.6073 -0.1961  0.8107
18179TIP3    H275953   5.223   1.025  11.360  1.0853  1.5396  1.0974
18180TIP3   OH275954   1.914   0.061   0.731 -0.1464 -0.1003  0.4915
18180TIP3    H175955   2.003   0.041   0.763  1.2945  2.2624 -1.6703
18180TIP3    H275956   1.880   0.124   0.795  1.0179  1.3440 -0.2575
18181TIP3   OH275957   2.785   1.793  16.312  0.1435 -0.0105 -0.3104
18181TIP3    H175958   2.842   1.719  16.291 -0.4534 -0.3430 -0.7922
18181TIP3    H275959   2.811   1.819  16.400  0.8869 -0.2952 -0.4326
18182TIP3   OH275960   0.550   3.399  14.691  0.0942 -0.0091 -0.2021
18182TIP3    H175961   0.465   3.397  14.733  1.5878  0.2058  3.1568
18182TIP3    H275962   0.560   3.489  14.660  0.2078  0.8189  2.0748
18183TIP3   OH275963   0.961   6.496   0.026 -0.2240 -0.3825 -0.3340
18183TIP3    H175964   1.049   6.534   0.035 -0.0750 -0.4987 -1.2335
18183TIP3    H275965   0.903   6.572   0.023 -0.0636 -0.2711 -0.6824
18184TIP3   OH275966   1.240   0.544   1.941  0.5722 -0.2751 -0.1443
18184TIP3    H175967   1.186   0.496   2.004 -0.5438  1.4056  0.2365
18184TIP3    H275968   1.185   0.551   1.863  1.5702 -1.4790 -0.9894
18185TIP3   OH275969   1.952   3.474   2.390 -0.0639 -0.4609  0.5927
18185TIP3    H175970   2.008   3.550   2.409  1.1714 -0.3955 -2.6911
18185TIP3    H275971   1.868   3.512   2.364 -0.3685 -0.3782  1.6650
18186TIP3   OH275972   2.151   0.682  12.953 -0.4826  0.0137 -0.5648
18186TIP3    H175973   2.067   0.649  12.921 -1.4312  1.7269  0.0570
18186TIP3    H275974   2.216   0.641  12.896 -1.8594  0.1311 -2.2990
18187TIP3   OH275975   5.123   5.829  15.551  0.2004 -0.0281  0.4514
18187TIP3    H175976   5.217   5.810  15.560  0.0404 -0.8014  0.5436
18187TIP3    H275977   5.120   5.920  15.521  0.9632  0.1977  1.0289
18188TIP3   OH275978   3.005   4.381   1.558  0.9665 -0.3213 -0.0275
18188TIP3    H175979   2.982   4.381   1.465 -0.4152  2.6290  0.2054
18188TIP3    H275980   3.097   4.410   1.559  1.0292 -0.4932 -0.4683
18189TIP3   OH275981   0.721   4.795   5.555  0.2341 -0.1725 -0.4995
18189TIP3    H175982   0.802   4.751   5.581  0.5134  0.8483  0.5018
18189TIP3    H275983   0.745   4.849   5.480  1.4059  2.5965  1.6511
18190TIP3   OH275984   5.931   2.988   5.686 -0.2242 -0.2002  0.1371
18190TIP3    H175985   5.990   2.941   5.744 -0.3140 -0.2798  0.1637
18190TIP3    H275986   5.910   2.925   5.617 -0.7692 -0.3740  0.4605
18191TIP3   OH275987   3.089   6.250  14.343 -0.0454  0.2118  0.4620
18191TIP3    H175988   3.093   6.172  14.398 -0.9145  1.1079  1.8501
18191TIP3    H275989   3.168   6.246  14.289 -0.9423 -2.5347 -0.8286
18192TIP3   OH275990   1.358   6.728  15.010 -0.2279 -0.2979  0.5688
18192TIP3    H175991   1.376   6.637  14.989  2.8026 -0.0609  1.6247
18192TIP3    H275992   1.344   6.729  15.105  1.7798  0.4954  0.9100
18193TIP3   OH275993   4.939   3.253   3.589  0.6691  0.4894 -0.5704
18193TIP3    H175994   4.892   3.301   3.657 -0.1932 -1.4195  0.2401
18193TIP3    H275995   4.871   3.219   3.532  1.0806 -1.3400 -0.0448
18194TIP3   OH275996   0.194   5.580   3.050 -0.7261  0.3976  0.7068
18194TIP3    H175997   0.285   5.552   3.062  0.6128  3.0128 -1.8481
18194TIP3    H275998   0.176   5.636   3.125 -0.1398  0.0368  1.1232
18195TIP3   OH275999   6.447   2.547   2.999  0.2032  0.0370 -0.1674
18195TIP3    H176000   6.359   2.573   3.026  0.6992  0.5535  0.9666
18195TIP3    H276001   6.505   2.614   3.034  1.1075 -0.5269 -0.5380
18196TIP3   OH276002   1.306   6.013   0.845  0.4221  0.5014  0.0493
18196TIP3    H176003   1.382   5.980   0.797  0.1861  1.3646 -0.9390
18196TIP3    H276004   1.341   6.078   0.906  0.3169  2.2546 -1.6736
18197TIP3   OH276005   4.020   3.728   4.672  0.1814  0.1571 -0.1002
18197TIP3    H176006   3.976   3.701   4.753  0.0833  4.6551  1.6038
18197TIP3    H276007   3.949   3.746   4.611  0.1680 -1.0998 -0.4885
18198TIP3   OH276008   6.592   1.803   0.042  0.6507 -0.4147  0.0640
18198TIP3    H176009   6.592   1.773   0.133  1.0699 -2.1916 -0.4782
18198TIP3    H276010   6.681   1.789   0.012  0.0775 -1.6472 -1.1560
18199TIP3   OH276011   1.410   5.500  11.430  0.4216 -0.3218  0.0223
18199TIP3    H176012   1.438   5.490  11.339 -1.5237  1.2859 -0.8324
18199TIP3    H276013   1.483   5.542  11.474  0.8846  0.1266 -1.1484
18200TIP3   OH276014   3.645   4.792   1.862 -0.4993 -0.6622 -0.4674
18200TIP3    H176015   3.697   4.857   1.908 -0.6114 -1.2232  0.4730
18200TIP3    H276016   3.707   4.723   1.840  0.0015  0.4493 -2.9733
18201TIP3   OH276017   1.280   5.342  16.915  0.1354 -0.1862 -0.3346
18201TIP3    H176018   1.272   5.318  16.822  0.3311  1.5755 -0.8464
18201TIP3    H276019   1.200   5.308  16.955 -1.4265  1.5484 -1.7827
18202TIP3   OH276020   6.016   5.942  11.316  0.1404 -0.1920  0.5883
18202TIP3    H176021   6.018   5.859  11.269 -1.3481 -0.7824  1.4783
18202TIP3    H276022   5.935   5.939  11.367  1.1626  0.8328  2.4149
18203TIP3   OH276023   6.537   4.865  12.444 -0.3644 -0.3563  0.7973
18203TIP3    H176024   6.607   4.884  12.382  0.3751 -1.2884  1.3055
18203TIP3    H276025   6.462   4.913  12.411  0.2835 -0.0130 -0.2439
18204TIP3   OH276026   0.522   5.261   6.111 -0.7158 -0.0238 -0.4538
18204TIP3    H176027   0.528   5.219   6.196 -1.3148  0.4581 -0.1678
18204TIP3    H276028   0.490   5.193   6.052 -1.9454  0.0981  0.0588
18205TIP3   OH276029   5.157   1.392   5.899  0.2399  0.1826  0.0670
18205TIP3    H176030   5.084   1.379   5.960 -0.1440 -0.0505 -0.4371
18205TIP3    H276031   5.122   1.369   5.814  0.7989  0.4328 -0.2391
18206TIP3   OH276032   4.405   1.701  16.279  0.1707  0.4009 -0.0326
18206TIP3    H176033   4.465   1.651  16.224  0.6675  1.7795 -0.7948
18206TIP3    H276034   4.318   1.671  16.253  0.2781  2.1739 -2.8885
18207TIP3   OH276035   3.097   6.478  15.207  0.1590 -0.0493  0.5692
18207TIP3    H176036   3.016   6.513  15.171  1.1846  0.5758 -1.2286
18207TIP3    H276037   3.138   6.552  15.251  0.1972 -0.1321  0.6734
18208TIP3   OH276038   0.095   1.795  12.258 -0.0462  0.0710 -0.6426
18208TIP3    H176039   0.137   1.881  12.247  2.1338 -0.7016  0.8567
18208TIP3    H276040   0.118   1.769  12.348 -2.7707 -1.0229 -0.1625
18209TIP3   OH276041   5.239   6.365   1.548  0.9093 -0.1391  0.7968
18209TIP3    H176042   5.280   6.281   1.528  3.8557  1.5597 -0.9651
18209TIP3    H276043   5.276   6.389   1.633 -2.3014 -1.8467  2.8720
18210TIP3   OH276044   4.100   0.396  17.085 -0.2499  0.6874 -0.3990
18210TIP3    H176045   4.129   0.307  17.107 -0.6426  0.3475 -1.2480
18210TIP3    H276046   4.016   0.405  17.130 -0.4883  0.4169 -0.7847
18211TIP3   OH276047   2.078   4.967   1.342  0.6191  0.1201 -0.6864
18211TIP3    H176048   2.008   4.918   1.299 -1.2450  2.2451 -0.2224
18211TIP3    H276049   2.094   5.041   1.284  1.9876  0.0738 -0.4013
18212TIP3   OH276050   4.332   4.811   6.431  0.6061 -0.1155 -0.3445
18212TIP3    H176051   4.402   4.747   6.415  0.2736 -0.2136 -1.4952
18212TIP3    H276052   4.253   4.757   6.441  0.9587 -0.2298  3.4918
18213TIP3   OH276053   3.341   5.049  12.178 -0.0665  0.0158  0.0406
18213TIP3    H176054   3.258   5.051  12.226 -0.8347 -1.9709 -1.0729
18213TIP3    H276055   3.343   5.131  12.130 -0.3564  1.0255  1.7037
18214TIP3   OH276056   5.229   0.041  11.979  0.0002 -0.0480  0.8313
18214TIP3    H176057   5.258   0.123  12.019  2.1665 -0.7541  0.8665
18214TIP3    H276058   5.218  -0.019  12.052  1.6129 -0.6598  0.6159
18215TIP3   OH276059   5.788   1.695  13.218 -0.0639  0.0893 -0.5339
18215TIP3    H176060   5.801   1.669  13.127 -1.7517 -2.2660 -0.2044
18215TIP3    H276061   5.861   1.655  13.266  0.0499  0.1354 -0.6694
18216TIP3   OH276062   0.700   0.600  15.054 -0.5061  1.0292  0.6136
18216TIP3    H176063   0.716   0.642  14.969  0.9232  0.2318  0.4551
18216TIP3    H276064   0.625   0.542  15.038  0.2075  0.3206 -0.3419
18217TIP3   OH276065   0.173   4.474   3.769  0.0939  0.3189  0.2435
18217TIP3    H176066   0.257   4.474   3.723 -1.1716  1.4228 -2.2447
18217TIP3    H276067   0.166   4.386   3.806  2.3755  0.2440  0.6765
18218TIP3   OH276068   0.554   2.061  17.012  0.0230 -0.1221 -0.1599
18218TIP3    H176069   0.597   2.144  17.032 -1.5267  0.2322  2.1412
18218TIP3    H276070   0.470   2.086  16.974 -1.2298 -0.4705  2.1731
18219TIP3   OH276071   5.433   5.611   1.501  0.1946  0.0788 -0.6508
18219TIP3    H176072   5.375   5.663   1.445 -0.1991 -1.1184 -1.3980
18219TIP3    H276073   5.517   5.611   1.456  0.4015  0.6655 -0.2738
18220TIP3   OH276074   5.630   0.379  16.421 -0.4938  0.0552  0.0187
18220TIP3    H176075   5.635   0.411  16.511 -1.2627 -0.1312  0.1384
18220TIP3    H276076   5.660   0.452  16.368 -0.2444  0.2440  0.4094
18221TIP3   OH276077   1.968   2.226  15.144  0.4119 -0.5032 -0.0900
18221TIP3    H176078   2.016   2.308  15.137  0.8118 -0.7169  0.1268
18221TIP3    H276079   1.944   2.205  15.054 -0.2821  0.1961 -0.0749
18222TIP3   OH276080   5.093   1.312   3.038  0.1532 -0.0439 -0.4434
18222TIP3    H176081   5.069   1.297   3.129 -1.7850 -2.5289 -1.2169
18222TIP3    H276082   5.189   1.303   3.037  0.0493 -2.4388  1.0515
18223TIP3   OH276083   2.721   3.031   3.258  0.4832 -0.1410 -0.9383
18223TIP3    H176084   2.651   3.093   3.239 -1.4191 -1.2688  1.6957
18223TIP3    H276085   2.755   3.059   3.343 -0.3420 -2.4746  0.2714
18224TIP3   OH276086   3.635   6.512   4.415  0.0015 -0.4358 -0.3184
18224TIP3    H176087   3.650   6.606   4.419 -4.0328  0.4002 -0.5983
18224TIP3    H276088   3.637   6.484   4.507 -0.2015  0.2253 -0.1069
18225TIP3   OH276089   4.835   0.318  14.656  0.2014 -0.3080 -1.1398
18225TIP3    H176090   4.748   0.304  14.693 -0.3535  1.7973 -1.5315
18225TIP3    H276091   4.882   0.367  14.724 -0.0875  1.5846 -2.2362
18226TIP3   OH276092   2.760   6.386  11.650 -0.4062  0.6431  0.4700
18226TIP3    H176093   2.785   6.294  11.645  0.2914  0.8916 -1.1180
18226TIP3    H276094   2.819   6.424  11.715  0.0631  0.1989  0.3040
18227TIP3   OH276095   0.246   5.327  10.903 -0.6412 -0.2709  0.0649
18227TIP3    H176096   0.263   5.421  10.916 -1.8136 -0.2460  1.7290
18227TIP3    H276097   0.324   5.284  10.937 -0.3936  0.0737 -0.0564
18228TIP3   OH276098   1.203   2.849  12.854  0.0123  0.1114 -0.2131
18228TIP3    H176099   1.204   2.845  12.950  2.1599  0.7660 -0.1346
18228TIP3    H276100   1.257   2.775  12.826  1.1954  1.1228 -0.7635
18229TIP3   OH276101   0.024   1.313  13.364  0.2273 -0.0017  0.0101
18229TIP3    H176102  -0.024   1.345  13.288 -2.2619  0.3655  1.6150
18229TIP3    H276103   0.032   1.219  13.349 -0.8245 -0.0356 -0.4250
18230TIP3   OH276104   2.946   3.699   3.700 -0.4773 -0.4831  0.1981
18230TIP3    H176105   3.002   3.699   3.622  0.5930 -1.1336  0.9363
18230TIP3    H276106   2.998   3.654   3.766 -0.9381  0.9218  1.5898
18231TIP3   OH276107   2.377   4.945  11.357  0.6953  1.3000  0.2433
18231TIP3    H176108   2.322   4.956  11.280 -0.6692 -0.1046  0.9814
18231TIP3    H276109   2.358   5.022  11.411  2.3375  2.7737 -1.1489
18232TIP3   OH276110   1.870   5.908  12.228  0.0254  0.1939  0.2558
18232TIP3    H176111   1.841   5.822  12.257  0.4334  0.3243  1.0675
18232TIP3    H276112   1.874   5.961  12.307  1.4163  0.4816  0.0222
18233TIP3   OH276113   5.548   3.227   6.347 -0.7732 -0.2768 -0.2854
18233TIP3    H176114   5.532   3.133   6.349 -0.2613 -0.4048 -1.5254
18233TIP3    H276115   5.643   3.236   6.348 -0.7797  0.1594 -1.5545
18234TIP3   OH276116   6.569   5.117  16.181  0.2763  0.3244 -0.1712
18234TIP3    H176117   6.505   5.124  16.111  0.2613 -0.0972 -0.2009
18234TIP3    H276118   6.610   5.031  16.168  0.2885  0.2523  0.3222
18235TIP3   OH276119   3.054   1.221   0.381 -0.3009 -0.2600  0.2536
18235TIP3    H176120   3.078   1.230   0.474  0.9440  0.1365 -0.0864
18235TIP3    H276121   3.083   1.134   0.357 -0.3968 -0.2676  0.1650
18236TIP3   OH276122   2.052   4.372   5.555 -0.6590  0.3929 -0.3459
18236TIP3    H176123   2.125   4.433   5.567 -2.3901  2.8955 -1.6064
18236TIP3    H276124   1.988   4.399   5.622 -0.8990 -1.0647  0.0465
18237TIP3   OH276125   0.724   6.341  16.588 -0.0501 -0.3349 -0.1005
18237TIP3    H176126   0.704   6.248  16.578 -0.7327 -0.1860 -0.1391
18237TIP3    H276127   0.733   6.373  16.498  0.5521 -0.4336 -0.0841
18238TIP3   OH276128   3.251   0.944   1.845  0.1666  0.4207  0.0164
18238TIP3    H176129   3.302   0.978   1.772 -0.2191 -1.0854 -1.0171
18238TIP3    H276130   3.315   0.927   1.914  0.6926  0.8361 -0.3677
18239TIP3   OH276131   3.358   5.590  11.887 -0.0161 -0.3945 -0.9893
18239TIP3    H176132   3.270   5.556  11.902  0.9797 -3.2006 -0.8693
18239TIP3    H276133   3.366   5.595  11.792  0.3057 -2.1007 -1.0858
18240TIP3   OH276134   3.946   6.030  15.256  0.1540  0.3315 -0.6080
18240TIP3    H176135   3.990   5.953  15.219 -1.1460  0.4404 -2.5329
18240TIP3    H276136   4.001   6.104  15.231  0.7705  0.1593  0.1979
18241TIP3   OH276137   2.499   0.871  16.398 -0.0286  1.0394  0.0510
18241TIP3    H176138   2.422   0.855  16.344 -0.5088  2.6283  0.2358
18241TIP3    H276139   2.496   0.802  16.465  0.0727 -0.3795 -1.3477
18242TIP3   OH276140   3.343   6.023  14.368  0.0003  0.0131 -0.2179
18242TIP3    H176141   3.256   6.044  14.403 -0.6279 -1.7131 -0.6221
18242TIP3    H276142   3.334   5.934  14.335  1.6637  0.1734 -1.2053
18243TIP3   OH276143   4.442   1.085   6.178 -0.1963  0.2286 -0.1587
18243TIP3    H176144   4.472   1.094   6.269  2.1849  1.7225 -0.9831
18243TIP3    H276145   4.454   0.993   6.157  0.0844  0.0436  0.7823
18244TIP3   OH276146   4.315   2.886   2.929 -0.1467  0.3111  0.5579
18244TIP3    H176147   4.285   2.971   2.962  2.0565  1.2683  0.2685
18244TIP3    H276148   4.392   2.907   2.876 -0.6260 -1.7007 -1.0694
18245TIP3   OH276149   0.653   3.303   5.996 -0.2814 -0.5804  0.4138
18245TIP3    H176150   0.661   3.211   6.024 -0.2310 -0.2597  1.4666
18245TIP3    H276151   0.579   3.337   6.044  0.4903  0.2906  1.0170
18246TIP3   OH276152   5.002   4.193   3.120  0.3870  0.4128  0.6007
18246TIP3    H176153   5.088   4.224   3.093 -1.1662  3.4769 -1.5915
18246TIP3    H276154   4.958   4.272   3.152 -1.3957 -1.1984  2.4070
18247TIP3   OH276155   5.506   4.010   1.104  0.1717 -0.2698  0.7254
18247TIP3    H176156   5.577   4.013   1.168  2.5111 -0.4598 -1.7200
18247TIP3    H276157   5.519   3.927   1.058  0.9463  1.4637 -2.4526
18248TIP3   OH276158   3.641   0.609   0.842 -0.7321 -0.2817  0.1867
18248TIP3    H176159   3.595   0.531   0.813 -0.3676 -0.9886  1.3990
18248TIP3    H276160   3.732   0.595   0.815 -0.6626 -0.2959  0.4207
18249TIP3   OH276161   6.055   2.610   1.641 -1.1275  0.2970  0.2215
18249TIP3    H176162   6.095   2.591   1.557 -0.1563  0.6350  0.5982
18249TIP3    H276163   6.054   2.526   1.687  0.0078  0.4554  0.5606
18250TIP3   OH276164   2.025   4.940   2.467  0.4373  0.2348  0.7773
18250TIP3    H176165   1.970   4.976   2.537 -0.6564  0.6229 -0.2569
18250TIP3    H276166   1.995   4.849   2.457 -0.6024  0.6816 -0.3331
18251TIP3   OH276167   1.218   0.591   5.085  1.1557  0.3172 -0.2534
18251TIP3    H176168   1.201   0.656   5.016  1.6540 -0.0607 -0.7447
18251TIP3    H276169   1.244   0.512   5.038  2.3079  0.2913  0.3825
18252TIP3   OH276170   1.743   1.434   1.432  0.5208  0.2181  0.0915
18252TIP3    H176171   1.648   1.445   1.438  0.4798 -0.5921  5.0393
18252TIP3    H276172   1.778   1.501   1.491  2.8816 -0.9817  0.1442
18253TIP3   OH276173   3.454   4.397  14.758  0.2181  0.4107 -0.6125
18253TIP3    H176174   3.487   4.484  14.776 -0.5468  0.4783  0.5182
18253TIP3    H276175   3.359   4.407  14.753  0.2138 -0.0741 -2.1511
18254TIP3   OH276176   1.544   5.874   0.748 -0.0033  0.6974  0.3490
18254TIP3    H176177   1.514   5.842   0.663 -0.4151 -3.1874  1.7184
18254TIP3    H276178   1.638   5.891   0.736  0.1674 -0.7910 -0.6882
18255TIP3   OH276179   5.441   6.749   5.631  0.3960 -0.3266  0.3098
18255TIP3    H176180   5.399   6.664   5.619 -1.8949  0.5971  1.0994
18255TIP3    H276181   5.441   6.789   5.544  0.6318 -0.7807  0.1032
18256TIP3   OH276182   6.773   1.003   5.905 -0.3893 -0.3977 -0.6395
18256TIP3    H176183   6.821   1.043   5.833 -0.7751  1.7458  0.2155
18256TIP3    H276184   6.681   1.006   5.878 -0.5018  0.1023 -0.2230
18257TIP3   OH276185   6.213   1.580  11.499  0.1559  0.6307 -0.2467
18257TIP3    H176186   6.160   1.614  11.427  0.0487  1.6255  0.2832
18257TIP3    H276187   6.212   1.650  11.565 -1.9344 -1.2030  1.8583
18258TIP3   OH276188   4.383   4.064  11.257  0.1598 -0.1177 -0.0569
18258TIP3    H176189   4.395   3.969  11.253  2.9377  0.2055 -2.0516
18258TIP3    H276190   4.408   4.096  11.170 -0.5438  2.4804  0.5922
18259TIP3   OH276191   0.162   4.811  10.606 -0.2226 -0.0617  0.4150
18259TIP3    H176192   0.069   4.829  10.613 -0.6321  0.9198 -4.1894
18259TIP3    H276193   0.169   4.716  10.608 -0.7171 -0.1707  4.0603
18260TIP3   OH276194   1.251   1.708  14.141  0.2482  0.6063  0.0327
18260TIP3    H176195   1.275   1.642  14.206 -0.1790  0.6554  0.2371
18260TIP3    H276196   1.330   1.761  14.131 -0.6719  2.8220  3.1368
18261TIP3   OH276197   1.897   3.446   1.945  0.3057 -0.4023  0.7111
18261TIP3    H176198   1.822   3.504   1.948 -0.0770 -0.9227  1.8200
18261TIP3    H276199   1.970   3.500   1.975  0.2345 -0.1105  0.3691
18262TIP3   OH276200   2.611   5.266   2.100 -0.9872 -0.5123  0.1273
18262TIP3    H176201   2.649   5.221   2.024 -0.1872  0.0293  0.1891
18262TIP3    H276202   2.607   5.198   2.168 -0.5606 -0.7005 -0.0291
18263TIP3   OH276203   5.980   1.994  10.610 -0.3241  0.1032  0.1069
18263TIP3    H176204   5.888   2.018  10.611 -0.4630 -0.3177  2.3168
18263TIP3    H276205   5.981   1.900  10.629  0.5239 -0.1434 -1.0309
18264TIP3   OH276206   5.298   1.544  13.857 -0.3565  0.5095 -0.3208
18264TIP3    H176207   5.236   1.522  13.926  0.6062  0.6744  0.6239
18264TIP3    H276208   5.357   1.609  13.897  1.8153 -1.2755 -0.4001
18265TIP3   OH276209   5.653   2.346   3.706  0.0024 -0.2866 -0.2000
18265TIP3    H176210   5.667   2.387   3.620 -0.7756 -0.0663 -0.2269
18265TIP3    H276211   5.735   2.299   3.723 -0.0609 -0.8490 -1.3510
18266TIP3   OH276212   3.520   4.032   1.361  0.0694  0.2699 -0.1953
18266TIP3    H176213   3.592   4.058   1.303 -0.7036  0.8400 -0.9268
18266TIP3    H276214   3.479   3.958   1.315 -0.2177  0.3805 -0.1207
18267TIP3   OH276215   2.786   4.858   4.215  0.4155 -0.1959 -0.3028
18267TIP3    H176216   2.775   4.818   4.128  0.4747  0.3208 -0.5549
18267TIP3    H276217   2.748   4.945   4.205 -1.1796 -0.7339  0.6870
18268TIP3   OH276218   6.456   0.169  14.600  0.2835 -0.4589 -0.0313
18268TIP3    H176219   6.451   0.246  14.543  1.8941 -0.1689  0.1980
18268TIP3    H276220   6.365   0.154  14.626 -0.6749 -1.1327 -3.3354
18269TIP3   OH276221   0.816   4.618  13.269  0.1966 -0.0895  0.3287
18269TIP3    H176222   0.866   4.549  13.226 -0.8689  0.8575 -2.7225
18269TIP3    H276223   0.882   4.679  13.302  1.1061 -1.1032  0.4128
18270TIP3   OH276224   6.099   1.244  16.605 -0.3889  0.5564  0.0453
18270TIP3    H176225   6.018   1.294  16.604  0.0073  1.2179 -0.3943
18270TIP3    H276226   6.114   1.221  16.513 -1.3602 -1.7401  0.3934
18271TIP3   OH276227   3.040   4.082  11.860 -0.3123 -0.2485  0.0342
18271TIP3    H176228   3.018   4.111  11.771 -2.8635 -0.9758  0.3537
18271TIP3    H276229   3.135   4.069  11.858  0.3733  3.6325 -1.3872
18272TIP3   OH276230   3.134   4.215  15.737  0.1546 -0.3097  0.0094
18272TIP3    H176231   3.121   4.308  15.755  1.5475  0.1212 -0.9807
18272TIP3    H276232   3.068   4.170  15.790 -1.5981  1.3126 -0.7214
18273TIP3   OH276233   4.279   1.351   3.695 -0.3704  0.3115 -0.1693
18273TIP3    H176234   4.327   1.290   3.751 -1.8249 -1.8673 -1.1633
18273TIP3    H276235   4.202   1.376   3.746  0.0101  1.0168  0.0720
18274TIP3   OH276236   3.111   6.510  14.076 -0.5467  0.2703 -0.2602
18274TIP3    H176237   3.122   6.524  13.982 -1.2160  2.2028 -0.1075
18274TIP3    H276238   3.156   6.428  14.094  1.2850  0.8324 -1.9267
18275TIP3   OH276239   6.302   0.226  16.271 -0.1210  0.2564  0.1011
18275TIP3    H176240   6.274   0.265  16.353 -1.3807 -1.2177  0.4270
18275TIP3    H276241   6.272   0.135  16.276  0.6852 -0.1502 -1.5507
18276TIP3   OH276242   2.660   5.521  14.467 -0.0272 -0.1347  0.5112
18276TIP3    H176243   2.696   5.502  14.380  0.2678  2.3722  0.0138
18276TIP3    H276244   2.569   5.492  14.462  0.0069 -0.1237 -0.6304
18277TIP3   OH276245   4.296   6.183  16.047 -0.4463  0.3205  0.0924
18277TIP3    H176246   4.279   6.276  16.029 -0.1198  0.5847  1.0770
18277TIP3    H276247   4.243   6.136  15.983  0.8158  1.1867 -1.6791
18278TIP3   OH276248   3.629   3.865   1.086  0.2305  0.3429  0.2845
18278TIP3    H176249   3.583   3.833   1.008 -1.8494 -0.4532  1.7358
18278TIP3    H276250   3.567   3.926   1.127  1.1649  0.5399  1.4611
18279TIP3   OH276251   6.676   6.040  14.152  0.1992 -0.2069 -0.0586
18279TIP3    H176252   6.633   5.984  14.087 -0.3592  1.7753 -1.5083
18279TIP3    H276253   6.749   6.079  14.104  0.8304 -0.0238  1.0358
18280TIP3   OH276254   1.060   1.329   3.702 -0.5118  0.5032  0.9939
18280TIP3    H176255   1.077   1.288   3.617 -1.3241  0.5382  0.8046
18280TIP3    H276256   0.986   1.279   3.738 -0.1174  0.4327  1.7214
18281TIP3   OH276257   6.324   4.432   5.740 -0.0474  0.0424 -0.7882
18281TIP3    H176258   6.347   4.524   5.755  1.8036 -0.2494 -1.5710
18281TIP3    H276259   6.408   4.388   5.730 -0.9272 -1.6010 -1.2542
18282TIP3   OH276260   4.019   6.620  10.659 -0.3206  0.3616  0.3411
18282TIP3    H176261   3.962   6.547  10.638 -0.4287  0.2815  0.9056
18282TIP3    H276262   3.963   6.683  10.705  0.1098  0.1380  1.1879
18283TIP3   OH276263   4.624   6.282   1.707 -0.8214 -0.1549 -0.0541
18283TIP3    H176264   4.656   6.296   1.796 -0.3956 -2.0264  0.1430
18283TIP3    H276265   4.671   6.204   1.677 -0.2238  0.9777 -2.2942
18284TIP3   OH276266   4.337   3.230  17.196  0.3829  0.1081  0.1718
18284TIP3    H176267   4.416   3.194  17.155  1.5672  1.9942  0.7286
18284TIP3    H276268   4.363   3.252  17.285 -1.5665 -1.8147  1.3505
18285TIP3   OH276269   3.470   2.391  16.200  0.0075 -0.5929 -0.3682
18285TIP3    H176270   3.517   2.397  16.283 -0.2499 -1.0902 -0.1847
18285TIP3    H276271   3.496   2.307  16.163 -0.4203 -0.6919 -0.4576
18286TIP3   OH276272   6.586   0.388   2.343  0.1187 -0.3974  0.7118
18286TIP3    H176273   6.496   0.398   2.311 -1.0928 -1.6586  3.4351
18286TIP3    H276274   6.601   0.293   2.346  1.9773 -0.2196 -0.6144
18287TIP3   OH276275   0.223   6.162  15.212  0.1617  0.0678 -0.5869
18287TIP3    H176276   0.281   6.206  15.150  1.6959 -0.5801  0.3328
18287TIP3    H276277   0.269   6.168  15.295 -1.1448 -0.4291  0.1971
18288TIP3   OH276278   0.955   4.542  14.808 -0.4774 -0.5116  0.0306
18288TIP3    H176279   0.952   4.501  14.722  0.7644  0.3708 -0.4577
18288TIP3    H276280   1.001   4.479  14.863 -0.2645 -0.5943 -0.2422
18289TIP3   OH276281   0.159   3.244  17.047 -0.0445 -0.2906  0.0519
18289TIP3    H176282   0.142   3.244  16.952  0.4976  0.6298 -0.0621
18289TIP3    H276283   0.199   3.159  17.064 -2.1601 -1.3938 -0.1343
18290TIP3   OH276284   2.253   1.823   3.358 -0.4301  0.2746  0.1860
18290TIP3    H176285   2.242   1.868   3.274  0.9146  0.3705  0.0417
18290TIP3    H276286   2.227   1.732   3.340 -1.0500  0.4936 -0.0790
18291TIP3   OH276287   6.017   1.317   3.857  0.1152 -0.0916  0.0011
18291TIP3    H176288   6.078   1.336   3.928  0.3169 -1.9832  0.3836
18291TIP3    H276289   6.055   1.362   3.781  0.0618  1.6930  0.9761
18292TIP3   OH276290   0.198   0.134  13.590  0.2229  0.3877  0.6176
18292TIP3    H176291   0.178   0.044  13.565  0.1193  0.0512  1.8847
18292TIP3    H276292   0.287   0.148  13.558 -0.0247  0.0909 -0.2308
18293TIP3   OH276293   1.149   0.579   2.504 -0.6507  0.1629 -0.4636
18293TIP3    H176294   1.225   0.586   2.445 -0.6149 -1.0431 -0.5820
18293TIP3    H276295   1.132   0.485   2.510 -1.4282  0.3497  0.4802
18294TIP3   OH276296   4.398   5.655  16.716  0.2231 -0.1103  0.2691
18294TIP3    H176297   4.314   5.673  16.676  1.2615 -0.0672 -2.0480
18294TIP3    H276298   4.407   5.560  16.714  1.6235 -0.0408 -2.8291
18295TIP3   OH276299   0.211   4.629   2.587  0.0135  0.1677 -0.7590
18295TIP3    H176300   0.135   4.577   2.614  0.3099 -0.1570 -0.5291
18295TIP3    H276301   0.176   4.716   2.568 -0.5057 -0.1434 -1.2429
18296TIP3   OH276302   6.128   1.372  15.193  0.1536 -0.2269  0.6621
18296TIP3    H176303   6.060   1.346  15.255  0.6348 -0.3546  1.1414
18296TIP3    H276304   6.195   1.414  15.247 -0.9297  2.8053 -0.1269
18297TIP3   OH276305   3.871   1.848  13.151 -0.2297 -0.2583 -0.2457
18297TIP3    H176306   3.889   1.832  13.244 -0.1521 -1.0799 -0.3914
18297TIP3    H276307   3.819   1.928  13.150 -0.9672 -0.7083  0.5833
18298TIP3   OH276308   6.708   4.478   0.386  0.7223 -0.3016 -0.4839
18298TIP3    H176309   6.722   4.387   0.360 -2.1617 -1.6369  2.0096
18298TIP3    H276310   6.661   4.517   0.313  1.4866 -0.9398 -1.3423
18299TIP3   OH276311   3.967   4.503   3.334  0.3198  0.2006 -0.2591
18299TIP3    H176312   3.975   4.425   3.388 -2.2138 -0.4729 -0.7088
18299TIP3    H276313   3.904   4.558   3.381 -1.0117  0.1270 -1.8723
18300TIP3   OH276314   3.695   5.070  12.863 -0.0178  0.4276  0.1136
18300TIP3    H176315   3.721   5.092  12.774  0.3967 -0.8496 -0.1035
18300TIP3    H276316   3.603   5.042  12.855  0.0935  0.0774  0.0405
18301TIP3   OH276317   0.117   2.865  13.367  0.9879 -0.2298 -0.4591
18301TIP3    H176318   0.050   2.921  13.404  1.8641  0.1761  0.5407
18301TIP3    H276319   0.068   2.798  13.319 -0.1109  0.2432 -0.0245
18302TIP3   OH276320   2.704   3.773  10.498 -0.1595 -0.1809  0.6136
18302TIP3    H176321   2.797   3.760  10.477 -0.5961  0.6591 -2.3171
18302TIP3    H276322   2.676   3.688  10.533  1.1221 -1.3951 -1.0874
18303TIP3   OH276323   3.858   2.259   3.937  0.5193  0.0600 -0.3028
18303TIP3    H176324   3.870   2.296   3.850  0.9097 -0.7258 -0.5954
18303TIP3    H276325   3.773   2.291   3.966  0.0204 -0.3349 -1.3103
18304TIP3   OH276326   3.709   3.721  15.334  0.7479 -0.3869  0.0218
18304TIP3    H176327   3.667   3.635  15.339 -0.2012  0.0169 -0.5746
18304TIP3    H276328   3.667   3.763  15.258  2.8438 -0.2671 -1.1452
18305TIP3   OH276329   5.372   2.636  12.924 -0.2434 -0.8200  0.3521
18305TIP3    H176330   5.420   2.606  13.001 -1.9781 -2.1364  0.9812
18305TIP3    H276331   5.330   2.557  12.890  0.9944 -0.3966 -2.3772
18306TIP3   OH276332   1.586   5.458   3.627 -0.5722  0.3128 -0.0301
18306TIP3    H176333   1.545   5.371   3.630 -0.5198  0.3086  0.6427
18306TIP3    H276334   1.551   5.504   3.703 -1.8540  1.4640 -1.2730
18307TIP3   OH276335   1.910   2.304  11.697 -0.2299  0.0526  0.1756
18307TIP3    H176336   1.958   2.221  11.702 -0.8433 -0.2612  1.0766
18307TIP3    H276337   1.826   2.281  11.658 -0.5270  0.1739  0.7224
18308TIP3   OH276338   2.853   5.233  12.915  0.1491  0.2824 -0.6899
18308TIP3    H176339   2.816   5.265  12.997 -0.5815 -1.7304 -0.1646
18308TIP3    H276340   2.794   5.266  12.847 -1.3751 -0.9672 -0.0541
18309TIP3   OH276341   1.012   4.339  12.411  0.6496  0.2110 -0.3041
18309TIP3    H176342   1.047   4.409  12.357  1.5959  0.1451  0.2029
18309TIP3    H276343   1.015   4.373  12.500  2.2599 -0.8845  0.1024
18310TIP3   OH276344   3.916   1.487   4.464 -0.0973 -0.3198  0.4446
18310TIP3    H176345   3.863   1.548   4.413  0.1085 -0.4273  0.0961
18310TIP3    H276346   4.006   1.511   4.444 -0.0059 -1.0982 -0.1571
18311TIP3   OH276347   4.578   5.498   4.668 -0.6501  0.1855 -0.2753
18311TIP3    H176348   4.663   5.495   4.624  0.3043  0.8450  1.4440
18311TIP3    H276349   4.515   5.476   4.599  1.0166 -1.9068 -1.2520
18312TIP3   OH276350   1.815   2.709  10.207  0.0949  0.1678 -0.5252
18312TIP3    H176351   1.906   2.735  10.224  0.0906 -0.0107 -0.2261
18312TIP3    H276352   1.763   2.780  10.245  0.0405 -0.8755  1.4998
18313TIP3   OH276353   5.389   1.461   2.175 -0.1429 -0.3613 -0.5054
18313TIP3    H176354   5.435   1.493   2.097  0.3510  1.1236  0.3430
18313TIP3    H276355   5.459   1.441   2.237 -0.5564  1.2575  0.5531
18314TIP3   OH276356   4.007   0.143   0.557  0.7542  0.6499  0.3046
18314TIP3    H176357   3.934   0.198   0.587  1.0033  1.7609 -0.9860
18314TIP3    H276358   4.041   0.103   0.636 -1.0529  0.3563  0.9774
18315TIP3   OH276359   2.719   0.346  11.386  0.1073  0.2194  0.4792
18315TIP3    H176360   2.703   0.274  11.325 -0.3248 -0.8459  1.7984
18315TIP3    H276361   2.643   0.345  11.444 -0.3308  2.3095  0.0393
18316TIP3   OH276362   5.305   1.987   0.660  0.2083 -0.3095 -0.5655
18316TIP3    H176363   5.391   1.994   0.618  0.6438  0.3158  0.3981
18316TIP3    H276364   5.264   2.072   0.644  0.4478 -0.0030  0.4072
18317TIP3   OH276365   5.635   2.416   2.095  0.2526  0.1056 -0.2663
18317TIP3    H176366   5.587   2.446   2.017 -0.3933 -1.5544 -0.5593
18317TIP3    H276367   5.641   2.493   2.151 -0.8469  0.8999 -1.1983
18318TIP3   OH276368   1.932   3.529  12.100 -0.3681  0.3207 -0.2199
18318TIP3    H176369   1.913   3.612  12.056 -1.4957 -0.7469 -1.8569
18318TIP3    H276370   2.006   3.492  12.053  1.4708  1.2461  1.7734
18319TIP3   OH276371   2.921   4.893  14.430  0.7780  0.4303  0.2422
18319TIP3    H176372   2.906   4.934  14.344 -0.7177  0.7417  0.6347
18319TIP3    H276373   2.906   4.800  14.415 -0.3823  0.5871  0.3438
18320TIP3   OH276374   5.416   3.104   4.346  0.1490 -0.6548  0.2494
18320TIP3    H176375   5.446   3.113   4.256  0.0507  0.5133  0.3120
18320TIP3    H276376   5.327   3.071   4.339  0.5609 -1.7413 -0.0254
18321TIP3   OH276377   6.501   1.355   4.290 -0.0150 -0.4772 -0.2723
18321TIP3    H176378   6.424   1.339   4.236  0.6595 -1.1330 -1.0791
18321TIP3    H276379   6.495   1.447   4.314 -0.7942 -0.3984 -0.7399
18322TIP3   OH276380   1.619   2.801   4.595 -0.1636 -0.1872  0.2841
18322TIP3    H176381   1.602   2.752   4.515 -0.5770 -1.4406  1.1224
18322TIP3    H276382   1.534   2.838   4.619  0.2345  1.4271 -0.6129
18323TIP3   OH276383   4.489   3.121   4.112  0.0929  0.2096 -0.4432
18323TIP3    H176384   4.487   3.120   4.208 -1.8086 -0.8949 -0.4446
18323TIP3    H276385   4.543   3.197   4.090 -1.3716  1.9191  1.4894
18324TIP3   OH276386   5.287   2.197   2.374 -0.7796  0.8099 -0.0617
18324TIP3    H176387   5.341   2.177   2.298 -1.6440  1.3908 -0.8403
18324TIP3    H276388   5.315   2.284   2.402 -0.0095  0.3330  0.7024
18325TIP3   OH276389   6.205   3.680  13.525 -0.3842 -0.0974  0.4043
18325TIP3    H176390   6.152   3.718  13.594 -1.1557 -5.0567  3.0323
18325TIP3    H276391   6.142   3.633  13.470  0.7366 -1.5315  0.2733
18326TIP3   OH276392   2.582   3.634  14.730 -0.0590 -0.2288 -0.1726
18326TIP3    H176393   2.649   3.573  14.700 -0.6308 -0.3801 -1.2051
18326TIP3    H276394   2.517   3.635  14.659 -0.5670  0.7983  0.2840
18327TIP3   OH276395   3.571   4.743  11.371  0.7458 -0.6401  0.3944
18327TIP3    H176396   3.594   4.811  11.434  0.1560  0.4794 -0.5680
18327TIP3    H276397   3.487   4.709  11.404 -0.0117  0.5555 -0.2364
18328TIP3   OH276398   6.573   2.868   5.840 -0.2885 -0.1805  0.4113
18328TIP3    H176399   6.654   2.919   5.839 -0.7200  0.5999  1.9665
18328TIP3    H276400   6.602   2.777   5.850  0.4186  0.1969  2.2579
18329TIP3   OH276401   5.238   1.980  15.213 -0.1158 -0.1317 -0.1872
18329TIP3    H176402   5.164   1.922  15.193  0.5769 -0.7640 -1.0175
18329TIP3    H276403   5.303   1.922  15.253  0.1541  0.3068  0.0150
18330TIP3   OH276404   0.221   4.176  11.819  0.0447  0.1182 -0.3487
18330TIP3    H176405   0.249   4.086  11.830 -3.1477 -0.9975 -0.3765
18330TIP3    H276406   0.193   4.203  11.907 -2.4939 -0.2981 -0.9584
18331TIP3   OH276407   2.799   3.077   2.117  0.0034 -0.1876  0.1801
18331TIP3    H176408   2.739   3.080   2.192 -0.4252 -0.5476 -0.1465
18331TIP3    H276409   2.839   2.990   2.122 -0.2203 -0.3123 -0.1561
18332TIP3   OH276410   1.271   1.146   0.985  0.2416  0.2656  0.5498
18332TIP3    H176411   1.244   1.225   0.938  1.0873  1.2830  1.7081
18332TIP3    H276412   1.356   1.123   0.947  0.6918  0.7975  1.2159
18333TIP3   OH276413   2.970   2.384  13.192  0.5728  0.5301  0.0078
18333TIP3    H176414   2.895   2.440  13.173 -1.2993 -1.5059  1.0071
18333TIP3    H276415   3.039   2.416  13.134 -1.8726  0.7677 -2.9936
18334TIP3   OH276416   1.506   0.789  17.137  0.0010 -0.4182 -0.1952
18334TIP3    H176417   1.508   0.752  17.226  1.1205 -0.6253 -0.2836
18334TIP3    H276418   1.415   0.815  17.123 -0.0022  0.5965  1.4202
18335TIP3   OH276419   1.547   3.150   3.694  0.4132  0.2455 -0.1006
18335TIP3    H176420   1.626   3.199   3.674 -0.2549  1.6121  0.4690
18335TIP3    H276421   1.520   3.113   3.610  1.0709  0.6600 -0.5049
18336TIP3   OH276422   4.983   4.080  13.886 -0.2654  0.2116 -0.1250
18336TIP3    H176423   5.038   4.037  13.951  1.3057  0.3081 -1.3305
18336TIP3    H276424   4.913   4.016  13.868 -1.1679  0.4731  2.1177
18337TIP3   OH276425   5.347   3.694   5.272  0.1919  0.0564  0.5415
18337TIP3    H176426   5.402   3.639   5.217  0.1167 -0.0708  0.5929
18337TIP3    H276427   5.390   3.779   5.271 -0.2740  0.3040 -0.4280
18338TIP3   OH276428   0.599   4.328   2.288  0.0627 -0.2045 -0.1626
18338TIP3    H176429   0.614   4.269   2.214 -1.1962 -1.6012  0.6333
18338TIP3    H276430   0.506   4.350   2.283 -0.0951 -0.5059  1.1128
18339TIP3   OH276431   4.874   4.829  11.979  0.5159  0.6281  0.5203
18339TIP3    H176432   4.949   4.817  12.038  0.7695 -0.2090  0.0442
18339TIP3    H276433   4.907   4.884  11.909  0.0268  2.2013  1.4716
18340TIP3   OH276434   1.362   5.649   0.095  0.0598 -0.2081 -0.0161
18340TIP3    H176435   1.421   5.627   0.166  0.7325 -1.6518 -0.9729
18340TIP3    H276436   1.278   5.609   0.119 -0.6884  2.0543  1.4633
18341TIP3   OH276437   5.376   4.252   1.950 -0.2329 -0.3582  0.7871
18341TIP3    H176438   5.369   4.341   1.914 -0.4759 -0.0117  1.6432
18341TIP3    H276439   5.412   4.265   2.038  1.7974 -1.3139  0.1367
18342TIP3   OH276440   0.354   3.737   5.277  0.0395  0.2843  0.7705
18342TIP3    H176441   0.319   3.701   5.359  1.1167 -0.2983  0.9978
18342TIP3    H276442   0.437   3.691   5.265 -0.2866  0.0828 -0.8763
18343TIP3   OH276443   3.432   2.843   1.490 -0.7345  0.6552  0.5400
18343TIP3    H176444   3.469   2.822   1.576 -0.6618 -0.4458  0.2595
18343TIP3    H276445   3.338   2.833   1.501 -0.9039  2.4561  0.9868
18344TIP3   OH276446   3.286   3.597   2.919  0.1064  0.6169 -0.2515
18344TIP3    H176447   3.308   3.563   3.006  0.7090 -0.0335 -0.6461
18344TIP3    H276448   3.310   3.690   2.923  0.5733  0.4857  0.1311
18345TIP3   OH276449   5.235   0.501  14.686  0.5142 -0.0086 -0.0157
18345TIP3    H176450   5.248   0.587  14.726 -0.5871  0.6348 -0.9851
18345TIP3    H276451   5.202   0.519  14.598  1.0114 -1.4191 -0.5276
18346TIP3   OH276452   5.048   6.522  15.022 -0.0475  0.2853  0.1251
18346TIP3    H176453   5.128   6.509  15.073 -0.4184  1.4067  1.0592
18346TIP3    H276454   4.981   6.473  15.070 -0.4679  1.6105  0.9692
18347TIP3   OH276455   3.004   6.364   2.517 -0.2993  0.4159 -0.0436
18347TIP3    H176456   2.909   6.352   2.513 -0.1760 -0.3821 -2.9318
18347TIP3    H276457   3.017   6.455   2.490 -0.2206 -0.2111 -2.3810
18348TIP3   OH276458   5.308   1.124  12.081  1.0752  0.3149 -0.3192
18348TIP3    H176459   5.219   1.113  12.112  0.7013  1.0710 -1.0662
18348TIP3    H276460   5.356   1.050  12.118  0.4912  0.7175  1.3357
18349TIP3   OH276461   1.633   4.310  11.868  0.2214  0.4979  0.0768
18349TIP3    H176462   1.622   4.294  11.774 -0.0036  0.0429  0.1771
18349TIP3    H276463   1.622   4.404  11.878  0.2835  0.5535 -0.3580
18350TIP3   OH276464   3.787   1.918  17.107  0.3999  1.0071  0.6745
18350TIP3    H176465   3.847   1.960  17.045  1.2293 -1.8401 -0.6374
18350TIP3    H276466   3.844   1.866  17.164 -0.6666 -0.6175  0.3327
18351TIP3   OH276467   3.585   5.120   4.977  0.0706 -0.0947  0.5851
18351TIP3    H176468   3.657   5.131   5.039  1.1207  0.3980 -0.6738
18351TIP3    H276469   3.544   5.038   5.002  0.4628  0.0999  1.9251
18352TIP3   OH276470   1.088   0.328   2.411  0.3998  0.3446 -0.2785
18352TIP3    H176471   1.103   0.239   2.445 -1.7242 -0.6320 -1.7134
18352TIP3    H276472   1.013   0.319   2.353  1.0162  2.8389 -1.5860
18353TIP3   OH276473   5.083   0.623  12.027 -0.7885 -0.2225  0.4912
18353TIP3    H176474   5.120   0.706  12.056  0.8134 -0.7804  0.1388
18353TIP3    H276475   5.023   0.599  12.097  0.5546  0.0678  1.8093
18354TIP3   OH276476   4.615   1.764  12.111  0.1824 -0.3483 -0.2853
18354TIP3    H176477   4.643   1.744  12.021  1.2135 -0.2590  0.0042
18354TIP3    H276478   4.629   1.858  12.120  0.4691 -0.4293  0.1064
18355TIP3   OH276479   3.539   1.173  12.491 -0.5925 -1.2073  0.3766
18355TIP3    H176480   3.483   1.204  12.420 -0.3369 -0.4060  0.5146
18355TIP3    H276481   3.503   1.213  12.570  1.2473  0.8927  0.2481
18356TIP3   OH276482   0.836   0.681   1.242  0.1769  0.9909  0.1835
18356TIP3    H176483   0.799   0.673   1.330  1.4231  0.8569  0.7144
18356TIP3    H276484   0.926   0.711   1.256  0.4510  0.8031 -1.0387
18357TIP3   OH276485   0.590   4.496  13.317  0.6385 -0.6622  0.2109
18357TIP3    H176486   0.670   4.541  13.293 -0.8949  1.6263 -0.9456
18357TIP3    H276487   0.521   4.542  13.270 -1.3726 -2.6138  1.0562
18358TIP3   OH276488   0.667   0.662  15.654  0.3564 -0.8654  0.0301
18358TIP3    H176489   0.627   0.581  15.622  1.6274 -1.7809  0.6993
18358TIP3    H276490   0.749   0.670  15.606  1.0027 -0.8246  1.1128
18359TIP3   OH276491   1.063   3.542   1.378 -0.2659  0.4335  0.5849
18359TIP3    H176492   1.134   3.601   1.405 -0.3756  0.9279 -0.1870
18359TIP3    H276493   1.087   3.515   1.290 -1.5112  1.3693 -0.0707
18360TIP3   OH276494   0.774   1.841  11.006  0.2539  0.3334 -0.3826
18360TIP3    H176495   0.738   1.867  10.922 -1.1936 -1.3848 -0.3451
18360TIP3    H276496   0.706   1.786  11.046  0.8974  1.0708  1.9067
18361TIP3   OH276497   0.205   3.419  13.541  0.5727  0.2892  0.2167
18361TIP3    H176498   0.199   3.511  13.513 -1.3362  0.8903  2.3285
18361TIP3    H276499   0.293   3.412  13.579  1.0546  0.9948 -0.7139
18362TIP3   OH276500   5.327   2.622   3.956 -0.1431 -0.1213 -0.2218
18362TIP3    H176501   5.406   2.593   4.002  0.3460  2.1219  0.4536
18362TIP3    H276502   5.260   2.628   4.025 -0.0435  0.9917 -0.2086
18363TIP3   OH276503   4.442   3.119   0.612  1.1071  0.0527  0.0392
18363TIP3    H176504   4.397   3.201   0.633  0.3885 -0.4436  0.4503
18363TIP3    H276505   4.526   3.147   0.576  0.1031  1.0378 -1.7327
18364TIP3   OH276506   0.069   6.730   5.501  0.1883 -0.0485 -0.3361
18364TIP3    H176507   0.131   6.800   5.517 -0.7864  0.6685  0.4340
18364TIP3    H276508   0.063   6.683   5.585  0.4836 -0.7653 -0.7094
18365TIP3   OH276509   1.140   0.365  17.000  0.6642  0.5789  0.4570
18365TIP3    H176510   1.065   0.400  17.048 -0.2740  0.1147 -0.6079
18365TIP3    H276511   1.183   0.441  16.962  1.4724  0.9593  2.0531
18366TIP3   OH276512   4.920   4.546  15.500  0.5196  0.0078  0.6064
18366TIP3    H176513   4.832   4.580  15.517  0.0992 -1.1211  0.8147
18366TIP3    H276514   4.963   4.550  15.586  1.0056  1.4366  0.3135
18367TIP3   OH276515   1.976   6.109   4.199  0.4360  0.0818  0.1944
18367TIP3    H176516   1.950   6.019   4.178 -0.7328  0.8461 -1.8988
18367TIP3    H276517   1.899   6.147   4.240  0.5383  0.4423  0.0555
18368TIP3   OH276518   2.529   3.653   2.727  0.4782 -0.6245  0.1203
18368TIP3    H176519   2.461   3.697   2.778  0.1801 -2.6401  1.6308
18368TIP3    H276520   2.607   3.707   2.737 -0.4539  0.8199 -0.1958
18369TIP3   OH276521   4.294   0.894  15.123 -0.0607 -0.1717 -0.4687
18369TIP3    H176522   4.276   0.829  15.056  0.5806 -1.3827  0.4915
18369TIP3    H276523   4.208   0.925  15.151 -0.4277 -1.3161 -0.2822
18370TIP3   OH276524   1.667   0.581  12.926 -0.0010  0.4186  0.7581
18370TIP3    H176525   1.641   0.525  12.999  1.6320  1.6241  2.3760
18370TIP3    H276526   1.627   0.666  12.945  1.0530  0.9543  0.6801
18371TIP3   OH276527   3.914   1.695   0.957  0.2319 -0.9430  0.4561
18371TIP3    H176528   4.008   1.689   0.939  0.6302 -0.2842  2.1370
18371TIP3    H276529   3.887   1.604   0.974  0.9164 -0.9681  1.4982
18372TIP3   OH276530   2.957   1.234   2.812 -0.3852 -0.0552 -1.0797
18372TIP3    H176531   2.899   1.167   2.849  0.2997 -0.7609 -1.2441
18372TIP3    H276532   2.948   1.223   2.718 -1.6245  1.2989 -1.1503
18373TIP3   OH276533   4.326   2.867   5.253  0.0791  0.4739 -0.6249
18373TIP3    H176534   4.250   2.911   5.291  1.5053  1.8905  0.7051
18373TIP3    H276535   4.295   2.778   5.235 -0.7879 -0.3300  3.7763
18374TIP3   OH276536   0.181   2.760   3.456 -0.6374  0.3176 -0.1610
18374TIP3    H176537   0.141   2.751   3.543  0.3673 -0.1655  0.2668
18374TIP3    H276538   0.270   2.788   3.474 -0.2791 -0.2385 -1.0225
18375TIP3   OH276539   0.285   2.318   0.922  0.1966 -0.2246 -0.4199
18375TIP3    H176540   0.299   2.315   1.016 -0.6695  2.2359 -0.1408
18375TIP3    H276541   0.349   2.257   0.886 -0.4624 -2.3822  1.8167
18376TIP3   OH276542   3.319   6.264   2.566  0.5571 -0.1870  0.0423
18376TIP3    H176543   3.288   6.175   2.546  1.7416 -0.5656 -0.1420
18376TIP3    H276544   3.242   6.319   2.549 -0.1679 -1.1555  0.0533
18377TIP3   OH276545   6.154   2.086   4.242  0.2437 -0.4956 -0.2464
18377TIP3    H176546   6.067   2.056   4.269 -0.0508  0.4377 -0.1126
18377TIP3    H276547   6.148   2.182   4.244  2.0215 -0.3419  2.2202
18378TIP3   OH276548   3.394   1.467  15.880  0.0559 -0.1824 -0.1769
18378TIP3    H176549   3.452   1.464  15.804  0.6469 -1.4645  0.3131
18378TIP3    H276550   3.324   1.405  15.860 -0.1837  0.0222  0.0160
18379TIP3   OH276551   5.326   4.628   0.298 -0.1491  0.5426  0.0613
18379TIP3    H176552   5.344   4.674   0.216  0.8745  0.2237  0.0931
18379TIP3    H276553   5.391   4.662   0.359 -1.5503  1.5331  1.0530
18380TIP3   OH276554   1.532   4.297  13.155 -0.0808  0.4304 -0.2757
18380TIP3    H176555   1.524   4.240  13.232 -0.8045 -0.0573 -0.7038
18380TIP3    H276556   1.609   4.264  13.109 -0.0231  0.3168 -0.1026
18381TIP3   OH276557   2.908   5.902   0.816  0.2160 -0.0822 -0.1456
18381TIP3    H176558   2.979   5.932   0.759  0.0738 -1.6706 -1.2092
18381TIP3    H276559   2.953   5.857   0.888  0.3547  0.8918  0.3839
18382TIP3   OH276560   1.715   3.034   4.384  0.1735  0.2055  0.1988
18382TIP3    H176561   1.755   3.082   4.456 -1.6632  1.0838  0.6918
18382TIP3    H276562   1.664   2.964   4.426  0.4229 -0.3232 -0.3522
18383TIP3   OH276563   0.452   1.171   1.160  0.0292  0.2593  0.5555
18383TIP3    H176564   0.493   1.088   1.186  1.5563  0.6081 -0.6169
18383TIP3    H276565   0.517   1.213   1.104 -1.9247  0.8807 -1.3585
18384TIP3   OH276566   0.065   6.617   5.754 -0.2019 -1.1192  0.5542
18384TIP3    H176567   0.161   6.616   5.761  0.1292  1.4529 -1.6393
18384TIP3    H276568   0.034   6.611   5.844  1.9421 -2.9391  1.2688
18385TIP3   OH276569   5.451   0.852  11.723  0.2062  0.2091  0.2726
18385TIP3    H176570   5.501   0.772  11.736 -0.3730 -0.3138 -0.5969
18385TIP3    H276571   5.509   0.908  11.670  0.3866  0.1517  0.4065
18386TIP3   OH276572   5.808   3.214  16.609 -0.4908 -0.1131  0.1889
18386TIP3    H176573   5.875   3.149  16.588  0.1750  0.5985  0.0981
18386TIP3    H276574   5.743   3.165  16.660 -1.2800 -1.4677 -1.9878
18387TIP3   OH276575   2.900   1.542  10.903  0.2510 -0.0192 -0.2477
18387TIP3    H176576   2.882   1.449  10.913  2.6438 -0.3681  1.6962
18387TIP3    H276577   2.928   1.551  10.812  0.0748 -1.1905 -0.4352
18388TIP3   OH276578   5.968   1.054   2.065  0.1489  0.0749 -0.1145
18388TIP3    H176579   5.874   1.050   2.082  0.0946  1.9465  0.1520
18388TIP3    H276580   5.983   1.141   2.029  2.0679  0.5887  1.7467
18389TIP3   OH276581   3.698   3.688  14.718  0.4416 -0.3742 -0.4167
18389TIP3    H176582   3.733   3.615  14.668 -0.3559  0.6801 -2.6584
18389TIP3    H276583   3.773   3.747  14.729  0.3917 -0.1077 -1.3937
18390TIP3   OH276584   3.660   1.982   4.864  0.1024 -0.5062 -0.3644
18390TIP3    H176585   3.633   2.074   4.867 -0.1600 -0.6039  1.2114
18390TIP3    H276586   3.755   1.985   4.852  0.6561  0.1451  3.0386
18391TIP3   OH276587   3.107   3.123   1.717 -0.4687 -0.2595  0.3175
18391TIP3    H176588   3.093   3.119   1.812  0.7071 -6.9632  0.7049
18391TIP3    H276589   3.200   3.142   1.708 -0.5147  0.0763  0.5391
18392TIP3   OH276590   1.075   3.058  14.865  0.3737  0.3191  0.3281
18392TIP3    H176591   1.092   3.136  14.811  0.9910 -0.1753 -0.2063
18392TIP3    H276592   1.014   3.088  14.932 -1.2143  0.7327 -1.2325
18393TIP3   OH276593   3.262   6.276  13.393 -0.2720  0.7021 -0.0644
18393TIP3    H176594   3.287   6.336  13.322 -2.3481 -0.2545 -1.7180
18393TIP3    H276595   3.216   6.332  13.456 -0.5333  1.1788 -0.6627
18394TIP3   OH276596   2.239   0.037  11.642  0.2961 -0.1469 -0.3926
18394TIP3    H176597   2.184   0.034  11.720 -1.3770  1.3188 -1.4416
18394TIP3    H276598   2.317   0.085  11.669 -0.3207  0.4533  0.3731
18395TIP3   OH276599   2.681   3.913  13.504 -0.6389 -0.0896  0.9154
18395TIP3    H176600   2.605   3.955  13.543 -0.7691 -0.1839  0.7631
18395TIP3    H276601   2.736   3.889  13.578 -0.6439  0.1949  1.0119
18396TIP3   OH276602   6.358   1.540   3.469  0.1781  0.4334 -0.0770
18396TIP3    H176603   6.348   1.493   3.552 -3.4832 -1.8374 -1.5423
18396TIP3    H276604   6.323   1.628   3.487  0.2803  0.2693  0.9840
18397TIP3   OH276605   5.216   0.167   5.582 -0.4239 -0.5156  0.4702
18397TIP3    H176606   5.130   0.140   5.552 -0.1183 -0.0182 -0.9563
18397TIP3    H276607   5.275   0.145   5.510  0.3163  0.9788  0.5695
18398TIP3   OH276608   4.511   3.054   5.428 -0.5713 -0.0394 -0.1683
18398TIP3    H176609   4.498   3.119   5.496 -1.3636  0.5676 -0.8643
18398TIP3    H276610   4.504   3.103   5.346  1.7858 -0.4868 -0.7167
18399TIP3   OH276611   6.253   5.047   4.330  0.6458 -0.2779 -0.4121
18399TIP3    H176612   6.247   4.960   4.370 -1.5078  0.2192  0.4929
18399TIP3    H276613   6.249   5.031   4.236  0.3162 -1.1769 -0.2538
18400TIP3   OH276614   2.922   4.249   3.876  0.3857  0.0027  0.4941
18400TIP3    H176615   2.828   4.231   3.882 -0.0839  2.4465  1.6178
18400TIP3    H276616   2.959   4.212   3.956  0.2141 -0.1154  0.5198
18401TIP3   OH276617   0.753   6.750   1.867 -0.5015  0.4769  1.1039
18401TIP3    H176618   0.845   6.730   1.886 -0.3991  1.2238  1.4517
18401TIP3    H276619   0.757   6.808   1.791 -0.8293 -1.2950 -0.3402
18402TIP3   OH276620   5.135   0.058   2.279 -0.0984 -0.3508  0.2335
18402TIP3    H176621   5.056   0.026   2.323  0.1520 -1.2944  0.0198
18402TIP3    H276622   5.189  -0.020   2.266 -0.1810 -0.1274 -1.8029
18403TIP3   OH276623   0.232   1.622   3.293 -0.1853  0.3754  0.4252
18403TIP3    H176624   0.174   1.660   3.227  0.7060  1.6371  0.3258
18403TIP3    H276625   0.258   1.538   3.256 -1.5624 -0.0159  0.2739
18404TIP3   OH276626   0.726   2.471  14.544  0.5059 -0.5493  0.4486
18404TIP3    H176627   0.794   2.446  14.481  1.9722  1.5598  1.1137
18404TIP3    H276628   0.686   2.549  14.507  0.8202  0.2336  1.7135
18405TIP3   OH276629   4.281   4.189  16.706 -0.2702  0.4204 -0.0938
18405TIP3    H176630   4.335   4.185  16.785 -1.5157 -1.3758  0.7178
18405TIP3    H276631   4.339   4.158  16.636  0.9173  2.2533 -0.0001
18406TIP3   OH276632   0.070   5.423   1.029 -0.3777  0.1777  0.2594
18406TIP3    H176633   0.112   5.507   1.008 -1.1180  0.6703  0.6704
18406TIP3    H276634   0.007   5.445   1.097 -1.3459 -0.5139 -0.3826
18407TIP3   OH276635   3.816   4.378  15.227 -1.0656 -0.3707  0.5426
18407TIP3    H176636   3.834   4.357  15.135 -1.9049  1.2710 -0.0449
18407TIP3    H276637   3.886   4.438  15.252 -1.7874  0.5723  0.3903
18408TIP3   OH276638   3.709   6.074  15.754 -0.1057 -0.5411  0.0853
18408TIP3    H176639   3.699   6.095  15.847 -0.4677 -3.2727  0.7505
18408TIP3    H276640   3.794   6.030  15.748 -1.3306 -3.0675 -0.2206
18409TIP3   OH276641   1.091   1.484  17.174  0.1851 -0.4777 -0.5900
18409TIP3    H176642   1.059   1.570  17.145 -0.4133 -1.3102 -2.6103
18409TIP3    H276643   1.139   1.450  17.099  2.0539 -1.1706  0.8452
18410TIP3   OH276644   3.354   3.093   1.207  0.1555 -0.3251 -0.0666
18410TIP3    H176645   3.327   3.001   1.197 -2.5569  0.5597 -2.3529
18410TIP3    H276646   3.383   3.119   1.119  0.2512  1.1682  0.3838
18411TIP3   OH276647   4.024   0.429  14.961  0.7562  0.1178  0.9829
18411TIP3    H176648   4.054   0.369  15.029  0.0718  0.4048  1.5495
18411TIP3    H276649   3.972   0.374  14.902  3.1646 -0.6302 -0.6252
18412TIP3   OH276650   5.959   2.393  11.489 -0.2786  0.2701  0.7005
18412TIP3    H176651   5.977   2.420  11.399  0.8709  1.2528  1.1992
18412TIP3    H276652   5.921   2.305  11.481 -1.2961  0.8032 -0.7964
18413TIP3   OH276653   5.599   4.753   4.754  0.1601 -0.4580  0.1976
18413TIP3    H176654   5.605   4.660   4.732  1.9346 -0.9840  2.5170
18413TIP3    H276655   5.686   4.775   4.789 -0.9074  1.4578  1.8596
18414TIP3   OH276656   5.427   1.860   2.078 -0.2363  0.0853  0.2374
18414TIP3    H176657   5.405   1.767   2.065  0.5046 -0.3639  1.9549
18414TIP3    H276658   5.347   1.900   2.111 -0.1586 -0.2676  0.8659
18415TIP3   OH276659   5.042   2.822   5.217  0.3927 -0.1937 -0.1615
18415TIP3    H176660   4.960   2.871   5.219  0.6488  0.2461 -0.4192
18415TIP3    H276661   5.087   2.847   5.298  0.2902 -0.4128 -0.0346
18416TIP3   OH276662   5.428   2.707  14.586 -0.5637 -0.0378  0.0664
18416TIP3    H176663   5.338   2.740  14.579 -0.7946 -0.8623 -1.2680
18416TIP3    H276664   5.471   2.737  14.506  0.5068  0.7231  0.8932
18417TIP3   OH276665   2.306   1.711  11.639  0.0519 -0.2058 -0.2163
18417TIP3    H176666   2.328   1.625  11.676  0.3749 -0.3541 -0.7486
18417TIP3    H276667   2.216   1.727  11.668  0.7221  0.2918  1.7957
18418TIP3   OH276668   5.392   2.086   1.539  0.1350  0.5477  0.2907
18418TIP3    H176669   5.482   2.100   1.511  0.1679 -0.8867 -0.3707
18418TIP3    H276670   5.339   2.103   1.460  0.0838 -1.6118 -0.1887
18419TIP3   OH276671   1.689   5.779   2.033 -0.6335 -0.3574  0.4504
18419TIP3    H176672   1.720   5.752   1.947 -1.0420 -1.0774  0.5158
18419TIP3    H276673   1.655   5.698   2.072 -0.6049 -0.0080  1.2208
18420TIP3   OH276674   1.772   2.027   0.980 -0.2107  0.3084 -0.2307
18420TIP3    H176675   1.766   2.123   0.971 -2.3733  0.2142 -0.3475
18420TIP3    H276676   1.724   2.009   1.061 -1.8148 -0.8585 -1.4119
18421TIP3   OH276677   4.205   3.259   1.419 -0.7365 -0.1921 -0.1280
18421TIP3    H176678   4.224   3.346   1.455  0.3541  0.1466 -1.4605
18421TIP3    H276679   4.290   3.223   1.394 -1.4414 -0.0637 -3.0967
18422TIP3   OH276680   3.179   1.301  15.209  0.0260  0.5118  0.0286
18422TIP3    H176681   3.209   1.380  15.254  0.7676  0.5120 -0.4430
18422TIP3    H276682   3.174   1.235  15.278 -0.6394  0.9729  0.4336
18423TIP3   OH276683   1.389   1.089   0.018  0.4856  0.1008  0.3017
18423TIP3    H176684   1.481   1.108   0.037  0.5318  1.6070 -1.1250
18423TIP3    H276685   1.374   1.132  -0.067 -1.5493 -0.0543  0.5470
18424TIP3   OH276686   1.640   2.677   2.415  0.0362  0.1432 -0.0964
18424TIP3    H176687   1.693   2.755   2.399  1.3366 -0.9796 -1.5250
18424TIP3    H276688   1.606   2.689   2.504  1.5800  1.5228  0.3521
18425TIP3   OH276689   0.945   2.355  15.327  1.0337  0.1716 -0.3340
18425TIP3    H176690   1.009   2.284  15.325  0.7198 -0.1321  0.1559
18425TIP3    H276691   0.973   2.415  15.258  0.9687 -0.7271 -1.1678
18426TIP3   OH276692   1.027   2.282   1.090  0.1318 -0.0519 -0.2121
18426TIP3    H176693   1.002   2.305   1.000  0.8892  1.5252 -0.0566
18426TIP3    H276694   1.059   2.365   1.127 -0.3576 -0.6397  1.5756
18427TIP3   OH276695   1.965   6.302  16.819 -0.0575 -0.5640  0.3007
18427TIP3    H176696   1.976   6.301  16.914  0.5114 -1.3039  0.2346
18427TIP3    H276697   1.871   6.296  16.805 -0.1015 -1.1904  0.8193
18428TIP3   OH276698   1.808   6.395  16.023 -0.1696  0.1157  0.9017
18428TIP3    H176699   1.722   6.374  16.059 -0.8299  0.5114 -0.3663
18428TIP3    H276700   1.827   6.483  16.058  0.3557 -0.4985  2.2473
18429TIP3   OH276701   5.049   2.964   1.276 -0.8802 -0.3320  0.1761
18429TIP3    H176702   5.044   2.913   1.195 -0.2994  1.2466 -0.9018
18429TIP3    H276703   4.982   3.032   1.266  0.3111  0.9089  0.2107
18430TIP3   OH276704   5.749   4.902  12.559 -0.2726  0.2476  0.2508
18430TIP3    H176705   5.754   4.989  12.598 -0.0360  0.5300 -0.4030
18430TIP3    H276706   5.659   4.895  12.527 -0.7461 -0.3385  1.6344
18431TIP3   OH276707   3.130   6.178  11.558 -0.3175  0.5095  0.4228
18431TIP3    H176708   3.123   6.179  11.463  0.2837  1.2891  0.3670
18431TIP3    H276709   3.150   6.269  11.581  5.3803 -0.4542  0.7672
18432TIP3   OH276710   2.616   1.912  15.006 -0.0061 -0.2079  0.6379
18432TIP3    H176711   2.598   1.999  15.041 -0.2646 -0.1582  0.3856
18432TIP3    H276712   2.686   1.878  15.061  1.1566  0.7523 -0.1865
18433TIP3   OH276713   3.681   4.279  12.505  0.3622 -0.3941 -0.5059
18433TIP3    H176714   3.663   4.307  12.595  0.5629  2.4479 -1.2589
18433TIP3    H276715   3.729   4.197  12.515 -0.1493 -0.4874  1.9448
18434TIP3   OH276716   1.597   1.476   4.777  0.0444 -0.0256 -0.0305
18434TIP3    H176717   1.683   1.490   4.737  0.5030  0.1792  1.0154
18434TIP3    H276718   1.554   1.411   4.720  0.7093  0.1986 -0.8055
18435TIP3   OH276719   3.820   6.053  11.654 -0.1122  0.3891  0.3959
18435TIP3    H176720   3.775   5.974  11.685 -0.3107  1.0132  1.7976
18435TIP3    H276721   3.898   6.059  11.709 -0.4793  1.5562  0.8181
18436TIP3   OH276722   4.935   2.700   4.631  0.2205 -0.0563  0.2170
18436TIP3    H176723   4.894   2.652   4.703  0.6675 -0.9663 -0.1111
18436TIP3    H276724   5.025   2.666   4.628  0.4554  0.5909 -0.2232
18437TIP3   OH276725   2.631   4.145  15.688 -0.4451 -0.0728 -0.1355
18437TIP3    H176726   2.589   4.097  15.760  0.9909 -0.6735  0.3284
18437TIP3    H276727   2.655   4.230  15.725  1.4933 -0.8646  0.5379
18438TIP3   OH276728   0.236   1.076  11.899  0.0864  0.2586 -0.0479
18438TIP3    H176729   0.203   1.044  11.815 -1.2420  1.0243  0.1537
18438TIP3    H276730   0.331   1.077  11.889 -0.0558  0.4778 -1.5982
18439TIP3   OH276731   1.653   0.011  10.958 -1.4747 -0.0830 -1.0351
18439TIP3    H176732   1.612   0.056  11.031 -0.9985 -2.2311  0.6774
18439TIP3    H276733   1.581  -0.011  10.899 -1.7514  2.4676 -1.7438
18440TIP3   OH276734   1.626   2.482  10.136  0.2319 -0.1677 -0.1106
18440TIP3    H176735   1.680   2.554  10.170  0.6146  0.5970 -2.2156
18440TIP3    H276736   1.548   2.525  10.100 -1.1448 -1.1377  1.5188
18441TIP3   OH276737   6.105   4.259   1.282  0.1620 -0.4867 -0.2087
18441TIP3    H176738   6.197   4.266   1.258  0.0050  2.0496 -0.3299
18441TIP3    H276739   6.066   4.205   1.213  0.6694  2.5675 -3.1213
18442TIP3   OH276740   1.563   5.870   3.060 -0.9542 -0.1819  0.4515
18442TIP3    H176741   1.545   5.827   2.977 -0.6296  2.6198 -1.1965
18442TIP3    H276742   1.477   5.902   3.089 -0.6093  2.4784 -1.0900
18443TIP3   OH276743   0.478   5.487  13.024  0.1501 -0.1230 -0.6242
18443TIP3    H176744   0.455   5.579  13.010 -2.0021 -0.2607  1.3648
18443TIP3    H276745   0.561   5.491  13.072 -0.1019  0.8241 -0.2238
18444TIP3   OH276746   0.057   1.684  13.816 -0.5174  0.0595  0.6691
18444TIP3    H176747   0.024   1.676  13.726  3.1640 -1.6588 -0.7590
18444TIP3    H276748   0.026   1.605  13.860 -0.9714  0.0805  0.3922
18445TIP3   OH276749   5.008   2.395  14.447  0.5351  0.1894  0.0288
18445TIP3    H176750   5.069   2.398  14.521  1.9936 -0.2999 -1.0801
18445TIP3    H276751   5.030   2.313  14.402 -0.3255  0.4637 -0.9242
18446TIP3   OH276752   6.311   1.455   3.728 -0.5779 -0.6231  0.4420
18446TIP3    H176753   6.308   1.435   3.821 -1.6704 -1.6080  0.2143
18446TIP3    H276754   6.301   1.550   3.723 -1.8223 -0.6916  1.2761
18447TIP3   OH276755   1.872   4.374   1.010  0.7286  0.0658  0.2698
18447TIP3    H176756   1.802   4.358   1.073 -0.8826  1.8756 -0.9293
18447TIP3    H276757   1.924   4.445   1.049  1.9136 -1.2227  1.1226
18448TIP3   OH276758   3.508   1.627  13.466 -0.4481 -0.0862 -0.6458
18448TIP3    H176759   3.527   1.710  13.423  0.0214 -0.9100 -2.0931
18448TIP3    H276760   3.553   1.562  13.413 -1.2117 -1.3214  0.1773
18449TIP3   OH276761   5.046   4.065  15.302  0.0557  0.2986  0.7129
18449TIP3    H176762   5.131   4.073  15.259  0.7264 -0.0245  1.9482
18449TIP3    H276763   5.066   4.048  15.394 -1.3320 -0.5198  0.9009
18450TIP3   OH276764   1.686   2.985   2.465  0.5027 -1.0245  0.8105
18450TIP3    H176765   1.727   3.004   2.380 -0.5364 -1.9123  0.0770
18450TIP3    H276766   1.739   3.034   2.528  1.5986 -0.7196 -0.2841
18451TIP3   OH276767   1.903   0.377  16.720  0.0427  0.4504 -0.0349
18451TIP3    H176768   1.935   0.302  16.769 -1.1065  0.1590  0.2854
18451TIP3    H276769   1.928   0.453  16.773 -0.1375  0.2035  0.4064
18452TIP3   OH276770   2.918   5.479   4.024 -0.3395  0.1129  0.1624
18452TIP3    H176771   2.869   5.553   3.988  1.7964  0.9689 -1.2066
18452TIP3    H276772   2.872   5.402   3.992 -0.3479  0.8747 -1.8042
18453TIP3   OH276773   1.430   1.664   2.393  0.6839  0.1852 -0.7962
18453TIP3    H176774   1.395   1.667   2.303  0.2711 -0.0978 -0.6461
18453TIP3    H276775   1.371   1.722   2.442 -3.4845 -4.6814  0.7970
18454TIP3   OH276776   6.087   0.289   5.787 -0.1417  0.2285 -0.3032
18454TIP3    H176777   6.082   0.330   5.873  1.3283 -2.9728  1.5043
18454TIP3    H276778   6.006   0.238   5.782  0.1997 -0.3093 -0.3772
18455TIP3   OH276779   4.279   2.582   2.204  0.2907  0.5682  0.4585
18455TIP3    H176780   4.211   2.524   2.239  0.4684 -0.4994 -0.8751
18455TIP3    H276781   4.360   2.531   2.209  0.6626  1.1312  0.3213
18456TIP3   OH276782   5.567   0.922  15.352  0.2854  0.4042 -0.0209
18456TIP3    H176783   5.536   0.834  15.329 -0.0255  0.2660  0.8957
18456TIP3    H276784   5.492   0.979  15.339 -0.4743  0.0534  2.3040
18457TIP3   OH276785   3.836   4.217  14.631  0.0376  0.3095  0.2533
18457TIP3    H176786   3.843   4.266  14.549  1.4234  0.2895  0.3390
18457TIP3    H276787   3.841   4.125  14.604 -1.6789  0.2141  0.1760
18458TIP3   OH276788   5.431   1.719   4.851 -0.0887  0.3361 -0.2542
18458TIP3    H176789   5.374   1.694   4.924  0.8324 -1.2751 -0.0365
18458TIP3    H276790   5.389   1.796   4.813 -2.2129 -0.5590  0.1143
18459TIP3   OH276791   4.011   5.712  16.188 -0.8017  0.2687  1.3108
18459TIP3    H176792   3.957   5.791  16.193 -1.0204  0.1208  1.3256
18459TIP3    H276793   3.948   5.642  16.175 -0.5813  0.1348  0.9727
18460TIP3   OH276794   2.977   0.205   4.221 -0.3105 -0.8323 -0.4886
18460TIP3    H176795   2.885   0.219   4.243  0.0718  0.5659  0.3530
18460TIP3    H276796   3.026   0.252   4.288  0.9806  0.0255 -1.9462
18461TIP3   OH276797   0.884   5.909   0.060  0.3415  0.6457  0.1799
18461TIP3    H176798   0.895   5.836  -0.002 -1.8225  0.1858  0.2473
18461TIP3    H276799   0.917   5.875   0.143  1.1976  0.4706 -0.2250
18462TIP3   OH276800   1.832   3.389   5.658 -0.0420  0.5520  0.2864
18462TIP3    H176801   1.812   3.405   5.750 -1.1065 -3.6233  0.9938
18462TIP3    H276802   1.755   3.343   5.625  1.3515 -0.3301 -1.9525
18463TIP3   OH276803   3.153   3.466  13.424  0.2392 -0.4382  0.1070
18463TIP3    H176804   3.114   3.474  13.337  1.5850 -1.3769 -0.6112
18463TIP3    H276805   3.126   3.546  13.469  0.8019  0.8437 -1.6991
18464TIP3   OH276806   6.036   3.873   3.231  0.0115 -0.1547 -0.5472
18464TIP3    H176807   6.091   3.898   3.156  0.9066 -1.1834 -0.2675
18464TIP3    H276808   6.049   3.779   3.239 -0.9125 -0.2234  0.2567
18465TIP3   OH276809   5.549   6.146   1.864 -0.3048 -0.1107 -0.0910
18465TIP3    H176810   5.637   6.184   1.861 -0.7238  0.8245 -2.2718
18465TIP3    H276811   5.498   6.209   1.915 -0.4350  1.1023 -1.6514
18466TIP3   OH276812   0.900   4.394  15.925 -0.0473  1.0076 -0.0009
18466TIP3    H176813   0.981   4.363  15.885  0.1175  0.6545  0.5927
18466TIP3    H276814   0.857   4.446  15.856  0.3483  0.6265 -0.5451
18467TIP3   OH276815   2.224   2.582   0.667 -0.0126  0.7301 -0.1683
18467TIP3    H176816   2.263   2.645   0.606  0.5139  1.2073  0.6416
18467TIP3    H276817   2.237   2.621   0.754 -3.2370  1.4425  0.1206
18468TIP3   OH276818   3.776   3.375   3.215  0.9536 -0.7947  0.1072
18468TIP3    H176819   3.744   3.357   3.304 -0.6452 -0.6881 -0.4165
18468TIP3    H276820   3.844   3.441   3.227 -0.3672  0.4416  1.1255
18469TIP3   OH276821   5.889   6.776  16.614 -0.0241 -0.5756  0.0276
18469TIP3    H176822   5.835   6.741  16.543 -3.3469  3.8606 -0.0481
18469TIP3    H276823   5.829   6.783  16.688  1.4220  1.2391  1.1028
18470TIP3   OH276824   0.372   0.205   2.367 -0.3915  0.3097  0.1862
18470TIP3    H176825   0.375   0.285   2.314 -0.2408  1.7923  2.2920
18470TIP3    H276826   0.427   0.225   2.443 -2.6304 -0.6543  2.2060
18471TIP3   OH276827   6.582   0.465   6.171 -0.4034  0.6259 -0.2085
18471TIP3    H176828   6.548   0.529   6.234 -0.6363  0.2617  0.0376
18471TIP3    H276829   6.609   0.391   6.224 -0.1531  0.5071 -0.4978
18472TIP3   OH276830   3.850   0.378  12.708 -0.3131 -0.2207 -0.5739
18472TIP3    H176831   3.942   0.355  12.694  0.8018  2.3782  1.6444
18472TIP3    H276832   3.818   0.315  12.772  1.2916  1.2931  1.8844
18473TIP3   OH276833   6.342   0.893  14.088 -0.1589 -0.4567 -0.3048
18473TIP3    H176834   6.312   0.819  14.034 -2.8378  0.4513 -0.2445
18473TIP3    H276835   6.300   0.969  14.048  0.3207  0.6571  1.2423
18474TIP3   OH276836   4.648   2.152  12.871  0.0242  0.3141 -0.1137
18474TIP3    H176837   4.604   2.118  12.794  0.5257  0.8846 -0.6613
18474TIP3    H276838   4.738   2.122  12.863  0.1302  0.5631  0.1328
18475TIP3   OH276839   3.065   5.538   2.279 -0.1941 -0.3788  0.2959
18475TIP3    H176840   2.980   5.507   2.249 -0.4232 -0.0019  0.5383
18475TIP3    H276841   3.122   5.532   2.202 -0.4288 -0.6606  0.1413
18476TIP3   OH276842   1.437   6.661   1.585 -0.1744 -0.2972  0.1238
18476TIP3    H176843   1.466   6.746   1.553 -0.0277 -0.1537  0.6349
18476TIP3    H276844   1.353   6.646   1.541 -0.9075  0.7588  1.1026
18477TIP3   OH276845   0.916   4.215  11.140 -0.0582 -0.1725 -0.0146
18477TIP3    H176846   0.846   4.207  11.075 -1.4869  2.9212  0.9730
18477TIP3    H276847   0.996   4.220  11.087 -0.8175 -1.0642 -1.3166
18478TIP3   OH276848   6.248   5.292  14.685  0.7301 -0.3241  0.4169
18478TIP3    H176849   6.171   5.312  14.631  0.2032 -0.6639  1.0366
18478TIP3    H276850   6.270   5.375  14.726 -1.0736 -0.7748  2.4909
18479TIP3   OH276851   4.509   6.120  13.117 -0.3116  0.2078 -0.0039
18479TIP3    H176852   4.514   6.099  13.211 -1.6652  1.5307  0.4079
18479TIP3    H276853   4.491   6.036  13.075  2.0839 -0.7454  0.6672
18480TIP3   OH276854   2.439   5.328   1.569 -0.5175 -0.1180 -0.5761
18480TIP3    H176855   2.358   5.371   1.598 -1.5203 -1.2196 -1.6458
18480TIP3    H276856   2.488   5.397   1.524 -0.5623  0.7141  0.6046
18481TIP3   OH276857   2.974   0.524  10.094 -0.0973  0.4468  0.3154
18481TIP3    H176858   3.001   0.608  10.130 -0.7060  1.1852 -0.9062
18481TIP3    H276859   3.056   0.484  10.064 -0.1020  2.0355 -2.0252
18482TIP3   OH276860   5.305   3.491  12.665 -0.1911  0.3397 -0.0873
18482TIP3    H176861   5.356   3.433  12.608 -0.7398 -0.5346  0.2999
18482TIP3    H276862   5.214   3.478  12.637 -0.5635 -0.6780  1.4640
18483TIP3   OH276863   4.264   6.266  16.420  0.8559 -0.0940 -0.1640
18483TIP3    H176864   4.276   6.349  16.373  0.5880  0.7112  1.1526
18483TIP3    H276865   4.194   6.283  16.482 -0.9186 -2.0432 -1.4768
18484TIP3   OH276866   1.018   3.444  11.755 -0.3039  0.3961 -0.2935
18484TIP3    H176867   0.942   3.387  11.747 -0.2436  0.3846 -0.8613
18484TIP3    H276868   0.986   3.530  11.726 -0.3510  0.6174  0.3951
18485TIP3   OH276869   6.613   3.830  13.436  0.4518 -0.6230  0.2631
18485TIP3    H176870   6.556   3.859  13.507  0.3266  0.2637 -0.1915
18485TIP3    H276871   6.684   3.895  13.433 -0.1669  0.0414 -1.1704
18486TIP3   OH276872   0.008   4.712   5.460  0.1670 -0.5601  0.5666
18486TIP3    H176873   0.058   4.660   5.397  2.2048  1.6343  0.2285
18486TIP3    H276874  -0.003   4.655   5.536  3.3402 -1.1588  0.6946
18487TIP3   OH276875   0.131   5.205  13.379 -0.7288 -0.3464  0.5608
18487TIP3    H176876   0.092   5.185  13.294  2.6348  0.5440 -1.3705
18487TIP3    H276877   0.134   5.121  13.424 -0.2660 -1.4195 -1.3312
18488TIP3   OH276878   3.696   3.751   2.188 -0.1086  0.0941 -0.4937
18488TIP3    H176879   3.760   3.819   2.164  0.5107 -0.9603 -1.9871
18488TIP3    H276880   3.652   3.786   2.265 -0.2020  2.4551 -1.5167
18489TIP3   OH276881   1.433   2.227  12.619  0.8929  0.4247  0.2600
18489TIP3    H176882   1.385   2.160  12.570  0.4473  1.3071 -0.5414
18489TIP3    H276883   1.408   2.211  12.710  0.8227 -0.5117  0.0931
18490TIP3   OH276884   5.408   1.314   4.261 -0.1640 -0.5693 -0.2645
18490TIP3    H176885   5.333   1.326   4.203  0.6763  0.4707 -1.1948
18490TIP3    H276886   5.457   1.397   4.254  0.4401 -0.7653  1.2435
18491TIP3   OH276887   2.035   2.977  12.252  0.0612 -0.1665 -0.2516
18491TIP3    H176888   2.080   3.058  12.277  0.3206  0.2064 -1.8107
18491TIP3    H276889   1.996   2.997  12.167 -0.2581 -1.5435 -0.4456
18492TIP3   OH276890   3.177   2.631  10.882 -0.1709 -0.2042 -1.0402
18492TIP3    H176891   3.181   2.695  10.810 -0.4592 -1.1945 -1.9721
18492TIP3    H276892   3.226   2.556  10.849 -0.5495 -0.7829 -0.3049
18493TIP3   OH276893   0.431   0.127  12.267 -0.1751  0.5029 -0.3710
18493TIP3    H176894   0.441   0.173  12.184 -1.7016 -0.7318 -1.3120
18493TIP3    H276895   0.355   0.168  12.309 -0.0627  0.4285 -0.0888
18494TIP3   OH276896   1.441   0.800  16.273 -0.1550 -0.6773  0.3344
18494TIP3    H176897   1.478   0.841  16.194  0.5915 -0.7361  0.6391
18494TIP3    H276898   1.419   0.874  16.330 -0.9360 -0.6258 -0.0291
18495TIP3   OH276899   2.634   5.859   6.132  0.6168  0.5765 -0.6652
18495TIP3    H176900   2.722   5.867   6.170  0.2444 -0.8007  0.5887
18495TIP3    H276901   2.607   5.950   6.116  1.0350  1.2574  1.9172
18496TIP3   OH276902   1.964   3.429  12.484  0.4578 -0.1930  0.5642
18496TIP3    H176903   1.898   3.390  12.541  0.6361 -0.7020  0.4295
18496TIP3    H276904   1.921   3.508  12.448 -0.9645 -1.7270 -1.3338
18497TIP3   OH276905   3.321   4.506  16.921 -0.0704  0.3430  0.2970
18497TIP3    H176906   3.291   4.563  16.850  3.3079  1.3492 -0.5037
18497TIP3    H276907   3.332   4.420  16.879 -0.2967  0.3527  0.2143
18498TIP3   OH276908   4.025   4.783   0.321 -0.3488  0.5722 -0.3253
18498TIP3    H176909   3.953   4.735   0.361  0.7418 -0.0310  0.9945
18498TIP3    H276910   4.101   4.726   0.331  0.0533  0.5075 -3.0763
18499TIP3   OH276911   0.055   4.095  15.526  0.0491 -0.3560 -0.3566
18499TIP3    H176912   0.141   4.134  15.541 -1.1577  2.1468  0.5934
18499TIP3    H276913   0.047   4.027  15.593 -0.4297  2.4915  2.7171
18500TIP3   OH276914   4.306   2.085   3.359 -0.5687 -0.0569 -0.9345
18500TIP3    H176915   4.373   2.103   3.293 -0.0074  0.8807 -0.1486
18500TIP3    H276916   4.223   2.108   3.317 -0.0934  2.0320 -0.8348
18501TIP3   OH276917   2.283   2.260   0.568 -0.1185 -0.0218  0.1861
18501TIP3    H176918   2.291   2.355   0.577 -0.3070  0.0382 -0.2310
18501TIP3    H276919   2.358   2.235   0.515  0.5862 -0.2709  1.2807
18502TIP3   OH276920   4.520   4.833   5.629 -0.0134 -0.1182  0.9300
18502TIP3    H176921   4.492   4.814   5.718  0.5313  1.7951  1.5488
18502TIP3    H276922   4.440   4.862   5.585 -0.1011 -0.1694  1.0548
18503TIP3   OH276923   0.303   3.746  12.671 -0.3476 -0.2157 -0.5011
18503TIP3    H176924   0.334   3.785  12.752 -0.0224 -0.8769 -0.3015
18503TIP3    H276925   0.277   3.657  12.696  0.5838 -0.7233 -1.2909
18504TIP3   OH276926   5.344   2.791  13.646 -0.4742 -0.5088 -0.6812
18504TIP3    H176927   5.413   2.736  13.683 -0.0001 -0.1717 -1.0531
18504TIP3    H276928   5.265   2.736  13.650 -0.3488 -0.6430  0.3998
18505TIP3   OH276929   4.185   1.553   5.325  0.5005 -0.2157  0.2576
18505TIP3    H176930   4.278   1.576   5.331  0.9988 -1.8916 -0.3516
18505TIP3    H276931   4.160   1.534   5.416  1.1472 -1.0620  0.2772
18506TIP3   OH276932   0.753   0.686   5.431 -0.0237  0.2176  0.0076
18506TIP3    H176933   0.830   0.739   5.452  0.2188 -0.0679 -0.1584
18506TIP3    H276934   0.683   0.750   5.419 -0.3495  0.3741  2.3205
18507TIP3   OH276935   6.328   1.516  15.682 -0.1503  0.0255 -0.1013
18507TIP3    H176936   6.251   1.497  15.736  0.2489  0.2912  0.5669
18507TIP3    H276937   6.327   1.612  15.671  1.4447  0.3502  2.0118
18508TIP3   OH276938   1.226   6.193  13.154 -0.2427 -0.4814  0.1062
18508TIP3    H176939   1.137   6.188  13.117 -0.6220  2.9817  0.2348
18508TIP3    H276940   1.244   6.287  13.159  3.7189 -1.0644 -0.4864
18509TIP3   OH276941   0.921   5.169   4.927 -0.0156  0.8688 -0.1337
18509TIP3    H176942   0.951   5.244   4.875 -2.9272  1.0409 -1.7673
18509TIP3    H276943   0.929   5.198   5.017 -1.4756  3.4159 -0.7231
18510TIP3   OH276944   3.433   6.497  16.393 -0.1508  0.5887  0.1929
18510TIP3    H176945   3.406   6.438  16.323  0.4620  0.0588  0.3965
18510TIP3    H276946   3.352   6.540  16.421 -0.6801 -0.4450  0.3106
18511TIP3   OH276947   4.643   1.877  16.536  0.5741 -0.1326 -0.2501
18511TIP3    H176948   4.614   1.967  16.548 -0.9635 -0.5045 -0.8145
18511TIP3    H276949   4.666   1.872  16.443 -0.7116 -0.6481 -0.5635
18512TIP3   OH276950   2.394   5.948  12.710  0.2172 -0.2580  0.5798
18512TIP3    H176951   2.384   5.858  12.679 -1.5341 -0.4578  1.5953
18512TIP3    H276952   2.396   5.941  12.805  1.1348  0.7153  0.6525
18513TIP3   OH276953   1.142   5.745   3.980 -0.3203  0.2715 -0.2390
18513TIP3    H176954   1.169   5.746   3.889  1.2485 -0.7946  0.1826
18513TIP3    H276955   1.128   5.837   4.002  0.5161  0.6377 -1.2018
18514TIP3   OH276956   2.327   4.750  16.195 -0.4346  0.6754 -0.9445
18514TIP3    H176957   2.290   4.663  16.183  1.9971 -0.4038 -1.0853
18514TIP3    H276958   2.401   4.753  16.134  1.9123  1.3623  1.7510
18515TIP3   OH276959   4.287   2.614  12.733 -0.0504  0.7360  0.4204
18515TIP3    H176960   4.240   2.615  12.650  2.1232  0.6216 -0.8948
18515TIP3    H276961   4.248   2.685  12.783 -2.7475 -0.4383  0.1548
18516TIP3   OH276962   0.876   2.860  11.126 -0.4539  0.1361 -0.8512
18516TIP3    H176963   0.880   2.947  11.087  0.4951 -0.6324 -2.5960
18516TIP3    H276964   0.786   2.831  11.111 -0.6730  0.6714 -0.5863
18517TIP3   OH276965   6.439   1.213   4.741  0.3941 -0.4291  0.0382
18517TIP3    H176966   6.443   1.262   4.824  1.8413  1.2803 -0.9738
18517TIP3    H276967   6.446   1.121   4.767  0.7377  0.0603  1.8125
18518TIP3   OH276968   0.347   5.166  12.090  0.5324  0.4909 -0.4712
18518TIP3    H176969   0.412   5.096  12.079  2.2633  1.8104  0.7586
18518TIP3    H276970   0.267   5.131  12.051  0.9432 -2.6787  1.2269
18519TIP3   OH276971   2.058   2.750  17.165  0.0208 -0.0176  0.6554
18519TIP3    H176972   2.009   2.703  17.098 -2.7136  1.3472  1.5358
18519TIP3    H276973   2.033   2.707  17.247  1.9370 -0.5429  1.0291
18520TIP3   OH276974   4.675   3.613  11.968  0.1676  0.4859 -0.3506
18520TIP3    H176975   4.641   3.529  11.999  1.0919  0.3477  0.3092
18520TIP3    H276976   4.742   3.637  12.031 -0.1230  1.7588 -0.5047
18521TIP3   OH276977   0.364   5.419   5.576  0.0824 -0.0020 -0.3971
18521TIP3    H176978   0.458   5.420   5.595 -0.0602  0.3763  0.2976
18521TIP3    H276979   0.336   5.330   5.597  0.5502 -0.5569 -1.9734
18522TIP3   OH276980   2.283   6.120   4.455  0.2613  0.3524  0.5985
18522TIP3    H176981   2.253   6.042   4.409 -0.7247  0.7222  0.5781
18522TIP3    H276982   2.364   6.093   4.499 -0.2186 -0.7648  0.8371
18523TIP3   OH276983   5.973   5.878  15.171  0.6950  0.0357 -0.4858
18523TIP3    H176984   5.892   5.927  15.187  0.4722 -1.1307  2.7106
18523TIP3    H276985   5.963   5.843  15.083 -2.8532 -1.0146  0.1872
18524TIP3   OH276986   0.096   1.814  15.338  0.2679  0.0932 -0.1991
18524TIP3    H176987   0.049   1.749  15.286 -0.3594  0.4847 -0.1341
18524TIP3    H276988   0.146   1.763  15.401 -2.4157 -0.3327  1.7807
18525TIP3   OH276989   2.708   4.563   4.275  0.3398  0.2345 -0.3500
18525TIP3    H176990   2.684   4.507   4.349  0.8510  2.2729  1.4574
18525TIP3    H276991   2.772   4.625   4.311  0.9737  1.0261 -2.6340
18526TIP3   OH276992   0.570   4.702  12.375 -0.1028 -0.0186 -0.0266
18526TIP3    H176993   0.518   4.767  12.422 -0.7330  0.2006 -1.0061
18526TIP3    H276994   0.507   4.637  12.345  0.3492 -0.3796 -0.2107
18527TIP3   OH276995   0.943   3.854  16.127 -0.4477  0.3192  0.5853
18527TIP3    H176996   0.988   3.864  16.211  0.6575  2.5015 -0.1833
18527TIP3    H276997   1.010   3.877  16.062 -1.9056  0.9124 -0.7568
18528TIP3   OH276998   1.085   4.617   1.782 -0.4943 -0.1845 -0.0878
18528TIP3    H176999   1.155   4.649   1.725 -0.8269  1.0652  0.1718
18528TIP3    H277000   1.105   4.655   1.868 -1.2676 -0.1254  0.0751
18529TIP3   OH277001   2.073   4.470   3.664 -0.4313 -0.2441  0.4630
18529TIP3    H177002   2.164   4.453   3.642 -0.8755 -1.2195 -0.7661
18529TIP3    H277003   2.062   4.565   3.652 -0.0065 -0.3700 -1.1552
18530TIP3   OH277004   5.271   6.483  16.079 -0.4764  0.5938  0.7236
18530TIP3    H177005   5.297   6.451  16.165 -0.3900  0.1743  0.5455
18530TIP3    H277006   5.304   6.573  16.075  0.3683  0.2878  0.7500
18531TIP3   OH277007   2.460   0.729   5.314 -0.3159 -0.3253 -0.3595
18531TIP3    H177008   2.502   0.803   5.358  1.1299 -1.7483  0.8246
18531TIP3    H277009   2.378   0.764   5.281  0.8751  2.1241 -0.9999
18532TIP3   OH277010   2.643   5.827   0.307 -0.3175 -0.1415  0.2809
18532TIP3    H177011   2.676   5.841   0.219  0.6398  1.2227  0.8273
18532TIP3    H277012   2.622   5.733   0.310  4.5776 -1.4782  0.1799
18533TIP3   OH277013   3.332   1.483   3.889  0.5866  0.4963  0.0513
18533TIP3    H177014   3.415   1.529   3.897  1.1290 -0.1745 -1.3056
18533TIP3    H277015   3.355   1.390   3.900 -0.4391  0.4540  2.4405
18534TIP3   OH277016   4.257   0.324  16.866  0.3963 -0.3104  0.2811
18534TIP3    H177017   4.234   0.372  16.945  1.5422  0.4182  0.1935
18534TIP3    H277018   4.352   0.320  16.867  0.4618  0.1735 -1.3136
18535TIP3   OH277019   5.351   1.886  11.751 -0.3097 -0.1994 -0.2779
18535TIP3    H177020   5.302   1.828  11.809 -1.7178  0.8084 -0.4197
18535TIP3    H277021   5.304   1.969  11.753  1.9437  1.1522  0.3033
18536TIP3   OH277022   4.396   3.250  12.540  0.1791 -0.0533  0.0237
18536TIP3    H177023   4.309   3.211  12.545  0.3884 -0.4351  1.1772
18536TIP3    H277024   4.437   3.207  12.465  0.4446 -2.2423  1.3350
18537TIP3   OH277025   0.152   0.085  12.023  0.3708  0.2091  0.0179
18537TIP3    H177026   0.238   0.099  11.983  0.2017  1.2652 -0.0201
18537TIP3    H277027   0.172   0.045  12.108  0.7984 -0.9018 -0.5841
18538TIP3   OH277028   4.097   0.974   2.052  0.3514  0.3664 -0.1772
18538TIP3    H177029   4.050   0.942   1.975 -1.0024  0.2654  0.6581
18538TIP3    H277030   4.051   0.935   2.126  0.7024  1.6566  0.7484
18539TIP3   OH277031   2.999   5.421  16.338 -0.5860  0.4606 -0.1411
18539TIP3    H177032   3.029   5.330  16.343 -1.9805  0.0613  2.1878
18539TIP3    H277033   3.068   5.471  16.381 -0.2568  0.3992 -0.5893
18540TIP3   OH277034   5.388   1.361   4.814 -0.0359 -0.0303  0.2398
18540TIP3    H177035   5.440   1.310   4.752 -1.1078  0.4446 -1.1183
18540TIP3    H277036   5.390   1.450   4.779 -2.1805 -0.0956 -0.2179
18541TIP3   OH277037   1.810   3.885  16.773  0.0989  0.1896  0.2640
18541TIP3    H177038   1.886   3.828  16.785  0.5917  0.0855 -2.6715
18541TIP3    H277039   1.842   3.972  16.796  0.8978  0.0319 -0.1870
18542TIP3   OH277040   2.823   2.067  10.316  0.0240 -0.1395  0.1256
18542TIP3    H177041   2.783   1.980  10.325 -0.6784  0.2942  1.4802
18542TIP3    H277042   2.755   2.127  10.344  1.2990  0.6876  1.5942
18543TIP3   OH277043   5.718   1.084   2.133 -0.8620 -0.1105  0.3156
18543TIP3    H177044   5.687   1.092   2.042 -1.0763 -0.7590  0.3226
18543TIP3    H277045   5.641   1.107   2.186 -1.8806 -3.1503  0.3506
18544TIP3   OH277046   2.365   2.552  15.739 -0.0864  0.0641 -0.6876
18544TIP3    H177047   2.383   2.639  15.703 -0.6144 -0.4187 -2.2230
18544TIP3    H277048   2.292   2.519  15.686 -0.6877 -0.8479  0.6577
18545TIP3   OH277049   1.359   2.179   1.810  0.3360  0.1646 -0.3945
18545TIP3    H177050   1.443   2.146   1.777  1.9861  1.5891  2.0720
18545TIP3    H277051   1.352   2.141   1.897 -0.6792  1.4928  0.1307
18546TIP3   OH277052   2.461   2.969  15.067  0.5619  0.6174 -0.7352
18546TIP3    H177053   2.509   3.035  15.118  1.3514  0.4745 -1.2707
18546TIP3    H277054   2.444   3.011  14.984 -0.8554  0.9010 -0.3226
18547TIP3   OH277055   6.046   4.070   3.854  0.7563 -0.0362 -0.7375
18547TIP3    H177056   5.957   4.102   3.839  1.1855  1.9536  0.6664
18547TIP3    H277057   6.063   4.087   3.946  1.8347 -2.4631 -0.4120
18548TIP3   OH277058   3.383   3.778  13.499 -0.0875 -0.3441  0.5968
18548TIP3    H177059   3.309   3.768  13.560 -0.6115  0.5010  0.1177
18548TIP3    H277060   3.447   3.830  13.548 -0.1525 -0.3857  0.7267
18549TIP3   OH277061   5.445   4.040  12.923 -0.0029 -0.0347  0.1183
18549TIP3    H177062   5.417   3.960  12.967  0.8400 -0.9101 -0.8784
18549TIP3    H277063   5.504   4.082  12.985 -0.3003 -0.2724  0.5695
18550TIP3   OH277064   0.343   4.284   1.010 -0.5634  0.1341 -0.4660
18550TIP3    H177065   0.275   4.223   0.982  0.7141 -1.3661 -0.3874
18550TIP3    H277066   0.336   4.287   1.105 -1.0529  0.6500 -0.5109
18551TIP3   OH277067   3.278   2.999  10.265 -1.0130 -0.1596 -0.9352
18551TIP3    H177068   3.292   3.091  10.241 -3.7053  0.1624 -1.5912
18551TIP3    H277069   3.295   2.996  10.360 -1.1636  1.1002 -0.8536
18552TIP3   OH277070   2.447   5.506  14.070  0.4485  0.0085  0.3469
18552TIP3    H177071   2.424   5.584  14.121 -0.6297  0.2330 -0.4276
18552TIP3    H277072   2.466   5.539  13.982  0.7668 -0.5208  0.2119
18553TIP3   OH277073   4.748   4.828   2.796  0.2088 -0.4831 -0.1582
18553TIP3    H177074   4.689   4.811   2.723 -1.6704 -0.8739  1.3761
18553TIP3    H277075   4.803   4.750   2.801 -0.6390 -1.0925 -0.2410
18554TIP3   OH277076   3.517   1.924   0.042 -0.0733 -0.3109 -0.1400
18554TIP3    H177077   3.534   1.929   0.136 -0.1729 -1.2562 -0.0601
18554TIP3    H277078   3.598   1.955   0.001  0.9414 -2.2690  0.2646
18555TIP3   OH277079   1.120   6.717   1.013  0.6305  0.0163 -0.4326
18555TIP3    H177080   1.057   6.731   0.942 -0.2118 -0.2871  0.2388
18555TIP3    H277081   1.145   6.806   1.040 -1.2509  0.2507  0.7838
18556TIP3   OH277082   1.614   1.177  13.417 -0.1834  0.1681  0.0421
18556TIP3    H177083   1.649   1.260  13.384 -0.6966 -0.3824 -2.0806
18556TIP3    H277084   1.535   1.202  13.464  0.6382  1.0195  1.0232
18557TIP3   OH277085   1.785   4.240   3.297 -0.3133 -0.4263  0.3039
18557TIP3    H177086   1.715   4.295   3.332  0.4436 -1.2422  3.4075
18557TIP3    H277087   1.828   4.296   3.231 -0.7790  2.0041  1.9222
18558TIP3   OH277088   2.746   6.469  16.175  0.0293  0.4514 -1.0106
18558TIP3    H177089   2.733   6.551  16.127  0.5203  0.6596 -0.8029
18558TIP3    H277090   2.672   6.414  16.151 -0.4791  1.0798 -0.9076
18559TIP3   OH277091   0.607   6.742  15.889  0.0376 -0.2581 -0.0820
18559TIP3    H177092   0.698   6.772  15.897 -0.1560  1.1981 -2.2601
18559TIP3    H277093   0.555   6.818  15.915 -0.5455 -0.5423 -0.4105
18560TIP3   OH277094   2.457   3.256   3.669  0.7993  0.0852  0.0622
18560TIP3    H177095   2.436   3.197   3.742 -0.2258 -0.2028 -0.4427
18560TIP3    H277096   2.417   3.214   3.593  0.7664  1.0177 -0.4499
18561TIP3   OH277097   2.428   0.448  12.163  0.2514  0.7698 -0.4964
18561TIP3    H177098   2.358   0.504  12.195 -1.1793 -0.9718 -0.4243
18561TIP3    H277099   2.506   0.478  12.211 -0.6575  1.9971  0.2883
18562TIP3   OH277100   2.927   3.296   1.552 -0.2145 -0.1674  0.1823
18562TIP3    H177101   2.988   3.232   1.590 -0.5096 -0.7447 -0.2966
18562TIP3    H277102   2.940   3.288   1.458  0.3586  1.1046  0.1270
18563TIP3   OH277103   0.787   6.498   2.692 -0.0673  0.5318 -0.6958
18563TIP3    H177104   0.772   6.590   2.670 -0.1992  0.4368 -1.0130
18563TIP3    H277105   0.876   6.497   2.729 -0.0796  0.7916 -0.6546
18564TIP3   OH277106   3.157   5.393  11.506 -0.2622 -0.8311  0.4644
18564TIP3    H177107   3.066   5.414  11.484 -0.3631 -1.7528 -0.0367
18564TIP3    H277108   3.209   5.441  11.442 -0.3909 -0.1886  0.8409
18565TIP3   OH277109   1.879   3.679  13.282  0.1567 -0.8233 -0.1022
18565TIP3    H177110   1.833   3.723  13.354 -0.9654 -0.2092 -1.1667
18565TIP3    H277111   1.930   3.748  13.241  0.9882 -1.2265  0.2342
18566TIP3   OH277112   2.568   1.054   1.796  0.8865 -1.0118  0.1118
18566TIP3    H177113   2.519   1.029   1.718 -1.0254 -0.2822  1.0253
18566TIP3    H277114   2.535   0.996   1.865 -0.9481  1.4072  1.4185
18567TIP3   OH277115   2.975   3.112  14.355  0.3927  0.0136 -0.6921
18567TIP3    H177116   3.016   3.199  14.353  2.0640 -0.5554  2.2915
18567TIP3    H277117   3.005   3.070  14.274  0.3373  1.8498 -1.7264
18568TIP3   OH277118   3.267   5.879  13.987 -0.2586  1.0947 -0.4539
18568TIP3    H177119   3.300   5.856  14.074  1.1548  1.3827 -0.8927
18568TIP3    H277120   3.176   5.906  14.003 -1.3895 -2.5724  0.4019
18569TIP3   OH277121   2.023   1.220  12.957 -0.2618  0.4871  0.3632
18569TIP3    H177122   2.055   1.129  12.955 -1.1799  0.1196  1.3981
18569TIP3    H277123   1.955   1.223  12.891 -0.3317  0.3788  0.4296
18570TIP3   OH277124   6.207   4.185  10.834 -0.3393  0.0419  0.2384
18570TIP3    H177125   6.198   4.184  10.738  0.5035 -3.4496  0.0763
18570TIP3    H277126   6.117   4.184  10.866 -0.7238  3.3943 -0.3334
18571TIP3   OH277127   3.872   6.662   0.234  0.1847  0.7735 -0.0257
18571TIP3    H177128   3.900   6.575   0.205  0.3188  0.4522  1.0200
18571TIP3    H277129   3.951   6.715   0.228 -0.0754  1.0351 -1.3992
18572TIP3   OH277130   4.454   3.361   4.393  0.3749 -0.4806  0.3178
18572TIP3    H177131   4.499   3.286   4.433 -0.7020 -0.6142  1.3373
18572TIP3    H277132   4.523   3.409   4.348  1.1435 -1.9249 -0.1172
18573TIP3   OH277133   1.205   4.675   4.176  0.0337  0.0568  0.0790
18573TIP3    H177134   1.225   4.583   4.158  1.9628  0.4646 -0.1119
18573TIP3    H277135   1.259   4.724   4.114 -0.1561  1.3358  0.8708
18574TIP3   OH277136   3.878   2.411   4.888 -0.3599  0.3519 -0.1016
18574TIP3    H177137   3.937   2.444   4.820  0.0122  0.2373  0.1600
18574TIP3    H277138   3.935   2.397   4.964 -1.0140  1.8385  0.6898
18575TIP3   OH277139   4.845   3.598  12.819 -0.3919  0.4140 -0.2273
18575TIP3    H177140   4.900   3.601  12.897 -0.7761  1.7382  0.0053
18575TIP3    H277141   4.904   3.571  12.749  0.6545  2.0960 -0.0500
18576TIP3   OH277142   1.704   4.942   1.397 -0.0716  0.5108  0.3777
18576TIP3    H177143   1.641   4.888   1.445  0.9137  0.0454  1.1846
18576TIP3    H277144   1.730   4.888   1.322  0.4923  0.0647  0.8785
18577TIP3   OH277145   4.633   2.977   6.393 -0.2599 -0.1275 -0.2911
18577TIP3    H177146   4.576   2.912   6.434  0.9982 -1.0650  0.0221
18577TIP3    H277147   4.653   3.039   6.463 -3.7297  2.3590 -1.2177
18578TIP3   OH277148   2.897   4.903   2.037  0.2102 -0.2125  0.0541
18578TIP3    H177149   2.803   4.911   2.050 -0.0560 -0.5188 -1.4767
18578TIP3    H277150   2.907   4.888   1.943  1.7993 -0.0183  0.1656
18579TIP3   OH277151   4.038   0.573  15.256  0.1406 -0.3396 -0.2926
18579TIP3    H177152   4.121   0.526  15.264 -0.2597 -1.3906 -1.7886
18579TIP3    H277153   3.971   0.505  15.261 -0.6654  0.4917  0.8633
18580TIP3   OH277154   1.837   2.794   6.298  0.3265 -0.1643  0.4869
18580TIP3    H177155   1.886   2.853   6.241 -0.9598 -0.2022 -0.7125
18580TIP3    H277156   1.767   2.848   6.335  1.8196  0.1545  3.0151
18581TIP3   OH277157   0.330   6.431  15.445  0.0972  0.2188 -0.2581
18581TIP3    H177158   0.251   6.473  15.479 -0.5137 -0.4661 -0.8105
18581TIP3    H277159   0.322   6.339  15.470  0.4880  0.0525 -0.7184
18582TIP3   OH277160   3.278   2.210  13.670 -0.5109 -0.5022 -0.7350
18582TIP3    H177161   3.214   2.139  13.665  2.2446 -3.3008 -0.0145
18582TIP3    H277162   3.333   2.197  13.593  0.8172 -0.0165  0.0991
18583TIP3   OH277163   3.986   2.016  16.361  0.1192  0.6836  0.0105
18583TIP3    H177164   4.045   1.994  16.290  0.1214 -0.6700  0.4033
18583TIP3    H277165   3.898   2.005  16.325  0.1192 -0.3890  0.3096
18584TIP3   OH277166   2.599   2.741  12.939  0.2771 -0.5278 -0.3148
18584TIP3    H177167   2.575   2.821  12.894  2.0765 -0.0039 -0.4400
18584TIP3    H277168   2.610   2.677  12.869  1.1592 -0.2323 -0.4591
18585TIP3   OH277169   0.210   3.082   1.405 -0.4576  0.1178  0.1969
18585TIP3    H177170   0.174   3.093   1.493  1.9975  0.1219  1.2982
18585TIP3    H277171   0.218   2.987   1.394 -1.0858  0.1019 -0.2015
18586TIP3   OH277172   3.339   4.579  13.313 -0.2882 -0.2943  0.1895
18586TIP3    H177173   3.383   4.540  13.238 -0.3190 -0.5190  0.2865
18586TIP3    H277174   3.388   4.547  13.389  0.0423  0.3197  0.2426
18587TIP3   OH277175   4.832   1.828  12.491 -0.4061 -0.3339 -0.8502
18587TIP3    H177176   4.820   1.899  12.554  0.3265 -0.4205 -0.6052
18587TIP3    H277177   4.836   1.872  12.406  0.5893 -0.0201 -0.6506
18588TIP3   OH277178   3.674   5.686   1.080 -0.2081 -0.2021  0.1820
18588TIP3    H177179   3.718   5.770   1.090 -0.9571  0.4361 -1.4763
18588TIP3    H277180   3.597   5.692   1.138 -0.2830  0.2785  0.0368
18589TIP3   OH277181   1.101   5.167  13.536  0.0644 -0.2138 -0.3483
18589TIP3    H177182   1.104   5.248  13.587 -1.7090 -0.4068  0.0957
18589TIP3    H277183   1.043   5.186  13.463  0.2872 -0.8319 -0.6960
18590TIP3   OH277184   0.879   1.735   4.321  0.3582  0.4920 -0.2265
18590TIP3    H177185   0.872   1.769   4.231 -0.5255 -0.5032 -0.5534
18590TIP3    H277186   0.789   1.719   4.347  0.7291 -1.4262 -0.0300
18591TIP3   OH277187   3.150   5.036   4.054  0.2682  0.5416 -0.0596
18591TIP3    H177188   3.139   4.947   4.086  0.2958  1.2032  1.9434
18591TIP3    H277189   3.104   5.038   3.970  0.3608 -1.3600 -0.1800
18592TIP3   OH277190   0.668   5.805  12.142  0.1086  0.1675 -0.1070
18592TIP3    H177191   0.666   5.826  12.049  0.0200 -1.1065 -0.4064
18592TIP3    H277192   0.730   5.732  12.149  0.4646  0.5416  0.9019
18593TIP3   OH277193   4.323   0.468  14.226  0.3990 -0.1341  0.1544
18593TIP3    H177194   4.391   0.528  14.257 -1.2136  1.5758  0.5317
18593TIP3    H277195   4.274   0.445  14.305 -0.0837 -0.5478 -0.2603
18594TIP3   OH277196   2.058   3.432  13.659  0.2794 -0.0351 -0.6503
18594TIP3    H177197   2.008   3.512  13.674  0.1868  0.2545 -2.3046
18594TIP3    H277198   2.005   3.363  13.698 -1.0835  0.3610 -1.7091
18595TIP3   OH277199   6.176   6.310  12.173 -0.2321 -0.3785 -0.3618
18595TIP3    H177200   6.230   6.386  12.149 -1.4312  0.9989  1.0846
18595TIP3    H277201   6.134   6.284  12.091  0.7606  0.0426 -1.0262
18596TIP3   OH277202   3.087   0.354   1.926  0.3433 -0.4490 -0.3701
18596TIP3    H177203   3.063   0.357   1.834 -1.8045 -0.1505  0.1524
18596TIP3    H277204   3.116   0.263   1.940 -1.4708 -1.1459 -0.8762
18597TIP3   OH277205   3.839   4.420  12.312 -0.2671 -0.1130  0.3629
18597TIP3    H177206   3.784   4.385  12.383 -1.7613  2.7876  0.7947
18597TIP3    H277207   3.862   4.508  12.342 -1.0383  1.2769 -2.7438
18598TIP3   OH277208   6.298   5.734   0.470  0.0047 -0.1424  0.6109
18598TIP3    H177209   6.249   5.691   0.400 -0.6596 -0.9115  1.5251
18598TIP3    H277210   6.326   5.818   0.432 -2.1681  0.4061  0.1028
18599TIP3   OH277211   3.970   5.114   0.646  0.1025  0.3288  0.4339
18599TIP3    H177212   4.019   5.135   0.566  0.3235  0.2431  0.5466
18599TIP3    H277213   3.997   5.025   0.667 -1.8074 -0.5878 -0.7722
18600TIP3   OH277214   1.399   5.193   4.449  0.1320 -0.1155 -0.1201
18600TIP3    H177215   1.451   5.255   4.400 -0.6049 -1.6583 -3.0585
18600TIP3    H277216   1.463   5.139   4.496  1.0554 -0.2818 -1.5271
18601TIP3   OH277217   6.179   1.172  11.571  0.7135 -0.0254 -0.0734
18601TIP3    H177218   6.102   1.195  11.519  0.9545  0.4588 -0.2231
18601TIP3    H277219   6.229   1.254  11.578  0.6372 -0.0556  1.0021
18602TIP3   OH277220   6.310   4.502  16.548  0.2403 -0.3585 -0.0235
18602TIP3    H177221   6.396   4.459  16.550  1.1755  1.3935  3.0680
18602TIP3    H277222   6.251   4.438  16.587  0.5487 -0.8006 -0.2640
18603TIP3   OH277223   2.235   2.553   1.102 -0.0967  0.2059  0.6122
18603TIP3    H177224   2.258   2.610   1.029 -0.2944 -0.3496  0.1045
18603TIP3    H277225   2.270   2.467   1.078 -1.7891 -0.4406  0.2508
18604TIP3   OH277226   4.169   2.493   4.838  0.0849 -0.3114  0.6332
18604TIP3    H177227   4.147   2.555   4.908  2.4469  2.2614 -0.7111
18604TIP3    H277228   4.246   2.531   4.796 -0.1364 -2.6980 -2.2280
18605TIP3   OH277229   4.028   5.490   3.787  0.6112 -0.0464  0.4983
18605TIP3    H177230   4.106   5.446   3.753  1.0609  0.8086  0.3999
18605TIP3    H277231   4.038   5.581   3.760  0.6804  0.5326  2.3468
18606TIP3   OH277232   1.693   0.816   4.578 -0.4563 -0.1137 -0.9781
18606TIP3    H177233   1.765   0.825   4.515 -0.5022  0.2101 -0.9870
18606TIP3    H277234   1.646   0.899   4.572 -1.1849 -0.5473 -1.4065
18607TIP3   OH277235   3.425   4.424  13.528 -0.5957  0.1480 -0.1390
18607TIP3    H177236   3.443   4.412  13.621  1.9619  0.3341 -0.5539
18607TIP3    H277237   3.378   4.345  13.502  0.1187 -0.6622  0.9683
18608TIP3   OH277238   5.205   5.564   5.955 -0.5405  0.0840 -0.1852
18608TIP3    H177239   5.167   5.648   5.927  0.6019  1.1176  1.1664
18608TIP3    H277240   5.254   5.533   5.879 -1.5771  0.2712 -0.9387
18609TIP3   OH277241   0.686   2.531  13.557 -0.1230  0.0628  0.5268
18609TIP3    H177242   0.645   2.617  13.552 -1.0689 -0.3685  0.5186
18609TIP3    H277243   0.625   2.473  13.512 -0.2231 -0.8689  1.7940
18610TIP3   OH277244   3.869   3.252   2.107  0.1218 -0.1093  0.1914
18610TIP3    H177245   3.843   3.337   2.072  0.0918  0.7944  2.3021
18610TIP3    H277246   3.921   3.213   2.037 -0.6964  1.2079 -1.2093
18611TIP3   OH277247   4.798   1.502  14.479  0.0363  0.4271  0.0279
18611TIP3    H177248   4.753   1.442  14.538  1.7939 -0.2291  0.7655
18611TIP3    H277249   4.736   1.574  14.467 -1.2080 -0.4430  0.9602
18612TIP3   OH277250   0.346   5.963   3.576 -0.4239 -0.3697 -0.7264
18612TIP3    H177251   0.291   6.020   3.522 -0.9088  0.8083  0.9427
18612TIP3    H277252   0.385   6.021   3.641  0.0471 -1.7612  0.2838
18613TIP3   OH277253   3.399   5.651   2.531  0.4254  0.7532  0.0274
18613TIP3    H177254   3.390   5.729   2.585 -0.3931  1.0704 -0.5467
18613TIP3    H277255   3.417   5.581   2.593 -0.9114  1.0323  0.7666
18614TIP3   OH277256   5.567   1.029   1.353 -0.3778 -0.0819  0.3374
18614TIP3    H177257   5.534   1.095   1.292  2.7504  0.2451 -1.2366
18614TIP3    H277258   5.565   0.948   1.303 -2.3625 -0.8955  1.6023
18615TIP3   OH277259   0.117   1.356   4.557  0.4877 -0.1036 -0.3753
18615TIP3    H177260   0.043   1.300   4.532  0.9638  0.1436 -2.5833
18615TIP3    H277261   0.162   1.307   4.625 -1.5456 -0.3668  0.8611
18616TIP3   OH277262   5.222   2.295   3.950 -0.0327 -0.6051 -0.3633
18616TIP3    H177263   5.272   2.370   3.919 -1.9209  0.0099 -2.1155
18616TIP3    H277264   5.239   2.227   3.885  0.2855 -1.1369  0.2667
18617TIP3   OH277265   6.312   1.084   4.458 -0.0695  0.3465  0.0153
18617TIP3    H177266   6.251   1.061   4.528  0.4911  1.3272  0.8550
18617TIP3    H277267   6.262   1.144   4.403  0.3554  1.8014  1.1553
18618TIP3   OH277268   4.603   6.733   1.922  0.5167 -0.1985 -0.3362
18618TIP3    H177269   4.650   6.775   1.849 -0.4873 -2.3330 -2.3263
18618TIP3    H277270   4.670   6.681   1.966  1.0450  0.7677  0.0341
18619TIP3   OH277271   4.802   5.008   1.643 -0.5784  0.0185  0.2432
18619TIP3    H177272   4.755   4.960   1.574  0.8359 -2.9163  1.1615
18619TIP3    H277273   4.766   4.975   1.725  0.4535  0.5277  0.9265
18620TIP3   OH277274   3.972   4.198  16.534 -0.3346  0.4582  0.0056
18620TIP3    H177275   3.975   4.190  16.629  0.2034 -0.2728 -0.0671
18620TIP3    H277276   3.963   4.292  16.518 -0.1664  0.6091  0.7688
18621TIP3   OH277277   1.320   3.072  15.484  0.1144 -0.1207  0.1371
18621TIP3    H177278   1.331   3.052  15.391  0.0905  1.6634 -0.2855
18621TIP3    H277279   1.388   3.020  15.527  0.5669 -0.4597 -0.9444
18622TIP3   OH277280   1.288   5.284   5.921 -0.4928  0.1215  0.4864
18622TIP3    H177281   1.301   5.214   5.985  1.0349  0.9227  1.1149
18622TIP3    H277282   1.206   5.325   5.947 -0.3235 -0.1113  1.4282
18623TIP3   OH277283   5.289   6.619  13.762  0.3107 -0.3497  0.4455
18623TIP3    H177284   5.206   6.662  13.740 -0.4626 -1.7872  0.3901
18623TIP3    H277285   5.314   6.657  13.846  0.0100  0.6698  0.0880
18624TIP3   OH277286   2.232   2.302   2.318  0.3383  0.2507 -0.0225
18624TIP3    H177287   2.206   2.390   2.290  1.2575  0.5550  0.0707
18624TIP3    H277288   2.153   2.266   2.359  0.0933  1.2117  0.3716
18625TIP3   OH277289   1.275   4.385   4.209  0.2229  0.6116  0.1159
18625TIP3    H177290   1.236   4.340   4.284 -0.8615  1.0105 -0.1867
18625TIP3    H277291   1.225   4.354   4.134  1.2819  0.2373 -0.4495
18626TIP3   OH277292   2.977   4.574   4.776 -0.7045  0.2889  0.2907
18626TIP3    H177293   2.972   4.492   4.727  0.9946  0.5052 -0.3233
18626TIP3    H277294   3.068   4.601   4.767 -0.7036  1.1396  2.2923
18627TIP3   OH277295   4.914   2.064   6.027  0.4009 -0.4230 -0.1910
18627TIP3    H177296   4.915   2.115   5.946  1.8925 -0.0735  0.0302
18627TIP3    H277297   4.867   2.120   6.089  0.9754  0.1768 -0.2861
18628TIP3   OH277298   4.481   1.668  15.284  0.1367 -0.0403 -0.0764
18628TIP3    H177299   4.551   1.716  15.240  1.1547  0.3214  1.8359
18628TIP3    H277300   4.441   1.615  15.215  1.6977  0.4364 -1.4035
18629TIP3   OH277301   6.528   1.858   1.709 -0.1086  0.5004 -0.3669
18629TIP3    H177302   6.581   1.778   1.706  1.2759  1.3987 -1.6168
18629TIP3    H277303   6.539   1.897   1.622 -1.1970  1.7843  0.0350
18630TIP3   OH277304   6.465   6.094   4.443 -0.2064 -0.4354 -0.0311
18630TIP3    H177305   6.480   6.094   4.348 -0.5203 -0.2866 -0.0814
18630TIP3    H277306   6.548   6.125   4.480 -0.6369  1.1790 -0.3533
18631TIP3   OH277307   1.824   0.677  16.146  0.4447 -0.5421  0.0364
18631TIP3    H177308   1.815   0.588  16.111 -1.7728 -0.9150  1.4127
18631TIP3    H277309   1.853   0.665  16.236  2.0741  0.2661 -0.3334
18632TIP3   OH277310   1.020   4.232  11.575  0.7098 -0.4400 -0.5516
18632TIP3    H177311   1.022   4.316  11.531  1.8603 -0.1603  0.0027
18632TIP3    H277312   0.930   4.200  11.562  0.5141  0.4560 -1.5035
18633TIP3   OH277313   2.899   5.521   0.021 -0.3331 -0.0766  0.0150
18633TIP3    H177314   2.812   5.518  -0.021  0.8486 -0.9056 -2.5874
18633TIP3    H277315   2.940   5.599  -0.015  0.9702 -1.1681 -0.9833
18634TIP3   OH277316   6.400   3.678   1.336 -0.1936  0.1313 -0.1395
18634TIP3    H177317   6.390   3.647   1.426 -0.4870 -0.4675 -0.3722
18634TIP3    H277318   6.471   3.624   1.301 -0.7066 -0.2833 -0.5480
18635TIP3   OH277319   3.651   6.413   5.577  0.4168 -0.6339 -0.3621
18635TIP3    H177320   3.617   6.390   5.664 -1.4969  0.5918 -0.7233
18635TIP3    H277321   3.609   6.497   5.557  1.8090 -0.2669 -1.9589
18636TIP3   OH277322   1.680   5.592  16.956  0.6747  0.5598 -0.3673
18636TIP3    H177323   1.612   5.656  16.977  0.5641  0.6064 -0.8541
18636TIP3    H277324   1.635   5.527  16.901  1.5150  1.7724 -2.6290
18637TIP3   OH277325   0.982   1.375   2.186  0.2137  0.0418  0.1251
18637TIP3    H177326   0.997   1.308   2.253  0.1721  0.0080  0.1008
18637TIP3    H277327   0.938   1.328   2.115  1.1711 -0.1588 -0.3620
18638TIP3   OH277328   4.234   4.392   2.627 -0.5358  0.0495  0.0712
18638TIP3    H177329   4.321   4.433   2.631  0.0103 -1.0027 -0.6058
18638TIP3    H277330   4.210   4.380   2.719 -0.8861  2.1664  0.3138
18639TIP3   OH277331   6.475   3.591  12.321 -0.2694 -0.8069  0.3460
18639TIP3    H177332   6.400   3.648  12.339 -0.2754 -0.7554  0.1590
18639TIP3    H277333   6.473   3.578  12.226 -1.7224 -3.1105  0.6001
18640TIP3   OH277334   3.594   5.656  14.290  0.4410 -0.1170 -0.3153
18640TIP3    H177335   3.649   5.712  14.235 -1.5189  0.1192 -2.1672
18640TIP3    H277336   3.583   5.576  14.238  0.2114 -0.7293  0.6596
18641TIP3   OH277337   3.049   4.678   1.033 -0.2383  1.0333 -0.5366
18641TIP3    H177338   3.107   4.664   0.958 -0.1524  1.1962 -0.5013
18641TIP3    H277339   2.970   4.629   1.011 -0.6723  1.9995 -1.2647
18642TIP3   OH277340   1.249   2.180  10.996 -0.0509 -0.0618  1.0591
18642TIP3    H177341   1.314   2.245  11.021  0.5215 -0.5508  0.8626
18642TIP3    H277342   1.234   2.129  11.076 -0.3162  0.1517  1.1468
18643TIP3   OH277343   0.514   2.154  11.016 -0.6052 -0.3433  0.3644
18643TIP3    H177344   0.591   2.133  10.962 -0.1968 -0.5457  1.0105
18643TIP3    H277345   0.505   2.078  11.074 -0.4623  0.2882  1.2226
18644TIP3   OH277346   1.746   1.397  13.100  0.0434 -0.0356 -0.2399
18644TIP3    H177347   1.723   1.470  13.156  1.6156  1.8668 -1.9160
18644TIP3    H277348   1.665   1.373  13.056 -1.0915 -1.1897  2.2416
18645TIP3   OH277349   2.602   3.901   1.226  0.1108  0.2293  0.5633
18645TIP3    H177350   2.689   3.874   1.196 -0.1653  0.7375 -0.7977
18645TIP3    H277351   2.544   3.880   1.153 -0.7392  0.8528  1.0357
18646TIP3   OH277352   4.757   5.065   0.794 -1.0702 -0.7261  0.4263
18646TIP3    H177353   4.839   5.108   0.771 -1.8554 -0.1989 -1.6352
18646TIP3    H277354   4.754   4.987   0.739 -2.1863 -0.4500  0.0689
18647TIP3   OH277355   6.493   2.432   3.467 -0.2881  0.3712 -0.1621
18647TIP3    H177356   6.474   2.390   3.383  0.2568  0.6518 -0.4341
18647TIP3    H277357   6.552   2.505   3.444  1.5889 -0.8037  0.6765
18648TIP3   OH277358   2.740   4.972   2.396  0.0968  0.4487  0.0713
18648TIP3    H177359   2.792   4.892   2.393  1.1008  1.1314 -2.1456
18648TIP3    H277360   2.803   5.042   2.414 -0.1345  1.1791 -1.7879
18649TIP3   OH277361   5.837   2.898   2.520 -0.3204 -0.1777  0.1410
18649TIP3    H177362   5.866   2.957   2.451  0.1206  0.8163  1.1441
18649TIP3    H277363   5.746   2.879   2.500  0.0422 -0.6518 -1.2028
18650TIP3   OH277364   6.326   0.760  13.700 -0.1740 -0.3694 -0.2512
18650TIP3    H177365   6.410   0.806  13.705 -0.2918 -0.0901 -0.8250
18650TIP3    H277366   6.332   0.707  13.621 -0.2129 -1.0068  0.1703
18651TIP3   OH277367   3.755   5.267  12.322  0.6499  0.4479  0.6736
18651TIP3    H177368   3.832   5.227  12.283  0.0681  0.1471 -0.2162
18651TIP3    H277369   3.681   5.216  12.287 -0.0434  1.6196  0.3536
18652TIP3   OH277370   2.908   0.033  14.096 -0.3515 -0.3503  0.1353
18652TIP3    H177371   2.959   0.088  14.154 -1.2870  0.7572 -0.0577
18652TIP3    H277372   2.917   0.073  14.009 -0.2731 -1.0510 -0.1877
18653TIP3   OH277373   0.987   2.375   2.684  0.0564 -0.2792 -0.2720
18653TIP3    H177374   0.948   2.462   2.686 -0.6519 -0.6086  1.0648
18653TIP3    H277375   1.052   2.376   2.755  2.7456  0.3313 -2.5707
18654TIP3   OH277376   0.806   1.017  16.862  0.0502 -0.2638 -0.0119
18654TIP3    H177377   0.827   1.104  16.828 -0.3207 -1.3271 -3.3534
18654TIP3    H277378   0.712   1.022  16.883 -0.0107  0.1279 -0.3561
18655TIP3   OH277379   6.421   6.134  13.642 -0.5471 -0.0290 -0.2502
18655TIP3    H177380   6.456   6.092  13.562 -0.5371 -1.0848  0.2898
18655TIP3    H277381   6.354   6.073  13.673 -0.5311  0.3675  0.5658
18656TIP3   OH277382   3.917   1.747   4.114 -0.2376 -0.2488  0.0780
18656TIP3    H177383   4.002   1.790   4.103  0.0063 -0.4570  1.0642
18656TIP3    H277384   3.874   1.758   4.030  0.9548 -0.5430 -0.6017
18657TIP3   OH277385   3.907   6.009   0.767  0.3552  0.1352  0.7528
18657TIP3    H177386   3.833   5.968   0.812  1.2953 -2.5614  0.0913
18657TIP3    H277387   3.868   6.046   0.687 -0.4370 -0.4767  0.8347
18658TIP3   OH277388   3.433   6.199   4.151 -0.4941  0.5769 -0.3155
18658TIP3    H177389   3.397   6.189   4.240  0.8264  1.0550  0.2891
18658TIP3    H277390   3.433   6.110   4.115  1.0867  0.0006  1.0151
18659TIP3   OH277391   1.179   5.778  16.661 -0.5101 -0.7988  0.2999
18659TIP3    H177392   1.093   5.742  16.684 -0.7586  0.2783  1.1087
18659TIP3    H277393   1.159   5.855  16.607 -0.2917  1.7518  3.5365
18660TIP3   OH277394   1.807   2.423  16.133  0.4150 -0.5716 -0.0859
18660TIP3    H177395   1.887   2.466  16.162  0.4428 -0.5072 -0.2594
18660TIP3    H277396   1.748   2.494  16.109  0.8834 -0.6366 -1.5230
18661TIP3   OH277397   0.164   3.917  11.719 -0.1593 -0.0228  0.6268
18661TIP3    H177398   0.155   3.829  11.681 -1.8597  0.0324  0.8070
18661TIP3    H277399   0.154   3.976  11.644  0.3967  0.0298  0.5916
18662TIP3   OH277400   1.269   4.419  14.503  0.0049  0.0082  0.3468
18662TIP3    H177401   1.221   4.431  14.585  1.2619 -2.4400  1.5795
18662TIP3    H277402   1.217   4.356  14.454 -0.3223  0.8419 -0.3971
18663TIP3   OH277403   4.115   1.449   4.761 -0.1661  0.4441  0.2925
18663TIP3    H177404   4.051   1.381   4.742 -1.4140  1.0141  2.1668
18663TIP3    H277405   4.197   1.415   4.726 -1.4628 -0.2393 -2.3646
18664TIP3   OH277406   3.319   4.413  16.063 -0.0770  0.4557  0.2400
18664TIP3    H177407   3.249   4.355  16.091  1.7220 -1.7876  0.3606
18664TIP3    H277408   3.373   4.360  16.004  0.5796  2.6379 -1.2758
18665TIP3   OH277409   3.726   4.356   4.162 -0.5727 -0.5809  0.5850
18665TIP3    H177410   3.813   4.374   4.127 -0.2749  2.6554  2.6418
18665TIP3    H277411   3.734   4.270   4.203  0.7694 -1.5963 -1.6026
18666TIP3   OH277412   3.637   5.121  13.917 -0.4341 -0.5787 -0.3229
18666TIP3    H177413   3.727   5.154  13.908  0.1578 -2.0465  0.0025
18666TIP3    H277414   3.603   5.166  13.995 -0.2544  0.5236 -0.8557
18667TIP3   OH277415   2.907   3.918   5.488 -0.3874 -0.1211 -0.7750
18667TIP3    H177416   2.926   3.923   5.581 -1.5058  0.9749 -0.5601
18667TIP3    H277417   2.921   3.827   5.464  0.7392 -0.2347  0.2678
18668TIP3   OH277418   3.013   1.459   3.911  0.1431 -0.1649  0.2154
18668TIP3    H177419   3.106   1.454   3.934  0.6483  0.7162 -1.4901
18668TIP3    H277420   2.982   1.369   3.922  1.7532 -0.9748 -1.3222
18669TIP3   OH277421   4.237   5.061   2.070  0.1750  0.3371 -0.6265
18669TIP3    H177422   4.302   5.112   2.022  1.0384 -0.0294  0.1171
18669TIP3    H277423   4.211   4.991   2.010 -0.4675  1.2012 -1.3766
18670TIP3   OH277424   0.994   4.945   5.634  0.2081 -0.8463 -0.0358
18670TIP3    H177425   0.983   4.850   5.631  0.1430 -0.8969  1.2870
18670TIP3    H277426   1.089   4.958   5.632  0.2297 -0.9607  0.2626
18671TIP3   OH277427   2.006   0.143  12.300 -0.2159 -0.7387  0.2391
18671TIP3    H177428   1.961   0.062  12.326 -0.2009 -1.1869 -1.0127
18671TIP3    H277429   1.936   0.206  12.286 -0.1967 -0.3559  1.7154
18672TIP3   OH277430   4.729   0.819  14.451  0.8605 -0.1391 -0.1864
18672TIP3    H177431   4.664   0.757  14.484  0.7273 -0.4298 -0.9670
18672TIP3    H277432   4.743   0.880  14.523 -0.2007 -0.1314  0.0261
18673TIP3   OH277433   0.736   2.821   4.128  0.1240  0.1941  0.6158
18673TIP3    H177434   0.813   2.841   4.074  0.9947 -1.6349  1.1241
18673TIP3    H277435   0.759   2.854   4.215 -0.0306  0.4006  0.5800
18674TIP3   OH277436   2.412   6.607   3.597 -0.5881  0.1132  0.0819
18674TIP3    H177437   2.323   6.571   3.600 -0.2497 -0.8456 -0.4879
18674TIP3    H277438   2.453   6.561   3.523 -0.7557  3.2318 -2.1493
18675TIP3   OH277439   2.823   5.332  13.918  1.1093 -0.4720  0.2547
18675TIP3    H177440   2.917   5.316  13.932  1.2095 -1.2615 -1.0823
18675TIP3    H277441   2.781   5.297  13.996  1.9320  0.0226  0.9377
18676TIP3   OH277442   1.119   5.613  11.328 -0.2789  0.4217 -0.4135
18676TIP3    H177443   1.098   5.525  11.297 -1.3696  0.9942 -1.3641
18676TIP3    H277444   1.195   5.639  11.277  0.4600 -0.2077  0.3417
18677TIP3   OH277445   3.174   3.441  12.395  0.1178 -0.2181 -0.3268
18677TIP3    H177446   3.090   3.486  12.404  0.2990  0.0555 -0.0119
18677TIP3    H277447   3.201   3.459  12.305 -1.3725 -2.4084 -1.2893
18678TIP3   OH277448   3.107   0.855   3.143  0.0984  0.3106  0.2381
18678TIP3    H177449   3.048   0.905   3.200  0.7535  0.4365  0.8305
18678TIP3    H277450   3.190   0.903   3.148  0.2633  0.1271 -0.5650
18679TIP3   OH277451   1.431   2.383   2.539  0.5183 -0.5505 -0.1760
18679TIP3    H177452   1.451   2.416   2.451 -0.1105 -2.0472 -0.9129
18679TIP3    H277453   1.503   2.323   2.559  0.7567 -0.0754  0.4197
18680TIP3   OH277454   3.172   2.899   5.557 -0.0209 -0.5590 -0.2293
18680TIP3    H177455   3.217   2.968   5.508  2.4762 -1.9034  0.0446
18680TIP3    H277456   3.236   2.870   5.622 -1.3398 -2.4862  0.2850
18681TIP3   OH277457   1.076   0.530  16.275  0.5013 -0.3502 -0.4441
18681TIP3    H177458   1.052   0.569  16.360 -2.7414 -3.4814  0.3513
18681TIP3    H277459   1.160   0.486  16.292 -0.9459 -2.5560  1.9653
18682TIP3   OH277460   3.894   1.864  13.672 -0.1194 -0.0259 -1.1089
18682TIP3    H177461   3.932   1.900  13.752  0.1366 -0.0864 -1.1998
18682TIP3    H277462   3.851   1.783  13.700 -0.8224  0.4173 -0.8804
18683TIP3   OH277463   1.691   5.976  12.680 -0.2838 -0.5329 -0.7527
18683TIP3    H177464   1.777   6.016  12.698  0.2788 -2.0333  0.1061
18683TIP3    H277465   1.642   5.988  12.762 -0.9898  0.4793 -1.3000
18684TIP3   OH277466   5.208   4.693   2.005 -0.2844 -0.0544 -0.2586
18684TIP3    H177467   5.161   4.652   2.078  0.0409 -2.4718 -1.2953
18684TIP3    H277468   5.287   4.730   2.046 -0.7830 -0.1315  0.8163
18685TIP3   OH277469   4.181   3.092  15.001 -0.4313  0.1669 -0.1044
18685TIP3    H177470   4.271   3.112  15.025 -0.1157  1.4984 -2.1714
18685TIP3    H277471   4.188   3.020  14.938 -0.8399  0.0129  0.0195
18686TIP3   OH277472   4.655   3.604   5.804  0.0060  0.4672  0.5081
18686TIP3    H177473   4.656   3.543   5.878 -1.2804  1.7395  1.6534
18686TIP3    H277474   4.736   3.653   5.812 -0.7109  1.4883  1.9157
18687TIP3   OH277475   0.092   5.830   2.181 -0.0562 -0.3078 -1.0230
18687TIP3    H177476   0.094   5.923   2.158  1.3816 -0.5346 -2.0402
18687TIP3    H277477   0.000   5.804   2.173 -0.3753  0.8855 -1.3452
18688TIP3   OH277478   6.530   4.762   5.550  0.1928  0.3182 -0.0971
18688TIP3    H177479   6.484   4.737   5.470  0.9211  4.2806 -2.0395
18688TIP3    H277480   6.623   4.762   5.525  0.3942  2.1580  0.4685
18689TIP3   OH277481   3.078   0.023  16.025 -0.1912  0.4256  0.0689
18689TIP3    H177482   3.038  -0.051  16.071 -1.7734  0.5741 -0.9983
18689TIP3    H277483   3.159  -0.012  15.988 -0.1810 -0.3664  0.8181
18690TIP3   OH277484   4.704   2.609  14.564 -0.4324  0.6457  0.4195
18690TIP3    H177485   4.701   2.704  14.555 -0.1451  0.6667  0.5190
18690TIP3    H277486   4.737   2.578  14.480  0.2359  0.6931  0.6553
18691TIP3   OH277487   3.059   1.724  14.751  0.1562 -0.6280 -0.3779
18691TIP3    H177488   3.006   1.681  14.819 -2.0012  0.2412 -1.4233
18691TIP3    H277489   3.038   1.676  14.671  0.3691  0.2173 -0.9507
18692TIP3   OH277490   3.125   0.945   0.347  0.0572 -0.2885 -0.6580
18692TIP3    H177491   3.162   0.900   0.423 -1.1808 -0.1498  0.0430
18692TIP3    H277492   3.053   0.889   0.319  0.7879 -0.5820 -2.0481
18693TIP3   OH277493   0.713   3.681   0.193 -0.0368  0.2475  0.0766
18693TIP3    H177494   0.633   3.733   0.203  0.0488  1.2200 -3.2293
18693TIP3    H277495   0.781   3.734   0.236 -0.3244  1.9768 -1.4542
18694TIP3   OH277496   4.816   3.822   3.462 -0.1096 -0.1443  0.2553
18694TIP3    H177497   4.828   3.905   3.508 -0.9336 -0.2064  0.5965
18694TIP3    H277498   4.840   3.755   3.526  1.7880 -0.1701 -0.4077
18695TIP3   OH277499   6.525   2.592  10.454 -0.5020 -0.1460 -0.0241
18695TIP3    H177500   6.459   2.639  10.403  0.2822 -0.1221 -1.0511
18695TIP3    H277501   6.510   2.500  10.432 -2.3331 -0.5280  2.3289
18696TIP3   OH277502   1.169   1.978  13.131 -0.5114 -0.7393  0.0287
18696TIP3    H177503   1.195   2.068  13.150 -0.9011 -0.5929 -0.1144
18696TIP3    H277504   1.096   1.986  13.070  0.4185 -1.1824 -1.1996
18697TIP3   OH277505   1.192   4.781   0.631  0.2103 -0.3736  0.0380
18697TIP3    H177506   1.147   4.712   0.581  0.4121 -0.0535 -0.6056
18697TIP3    H277507   1.202   4.853   0.568  2.8379 -0.9340 -0.3026
18698TIP3   OH277508   5.635   4.424   0.870  0.3265 -0.0685  0.2114
18698TIP3    H177509   5.674   4.502   0.832 -0.2379  0.4693  0.7094
18698TIP3    H277510   5.678   4.351   0.825 -0.5273  0.5321 -1.7014
18699TIP3   OH277511   0.300   1.368  14.526 -0.1206  0.0820 -0.0588
18699TIP3    H177512   0.327   1.416  14.604  1.5348  1.2816 -1.2931
18699TIP3    H277513   0.280   1.280  14.558 -0.5840  0.8355  1.8535
18700TIP3   OH277514   1.461   1.087  12.424 -0.1084 -0.0996 -0.7624
18700TIP3    H177515   1.486   1.031  12.497  1.0372  0.1321 -0.9575
18700TIP3    H277516   1.541   1.136  12.403 -0.0999 -0.9260 -2.8565
18701TIP3   OH277517   4.919   1.858  17.085 -0.2822  0.1659  0.2949
18701TIP3    H177518   4.879   1.816  17.160 -0.1109 -0.7032 -0.0915
18701TIP3    H277519   5.002   1.893  17.118 -0.5654  0.4842  0.6860
18702TIP3   OH277520   4.268   4.424  16.333 -0.5914 -0.5136 -0.2789
18702TIP3    H177521   4.263   4.419  16.429  1.0101  0.5626 -0.0952
18702TIP3    H277522   4.356   4.392  16.312 -0.5618  0.2110 -1.3050
18703TIP3   OH277523   4.958   3.357   1.794  0.4119  0.6353  0.0556
18703TIP3    H177524   4.905   3.332   1.870 -0.8924 -0.2625 -1.1101
18703TIP3    H277525   4.914   3.316   1.719  0.5290  3.0875 -1.4563
18704TIP3   OH277526   4.764   2.951   6.163 -0.6381 -0.1693  0.4343
18704TIP3    H177527   4.850   2.955   6.203  0.0099  0.2429 -0.9226
18704TIP3    H277528   4.703   2.959   6.236  0.4492 -0.9390  1.4730
18705TIP3   OH277529   3.934   2.509  10.690  0.7402  0.2051  0.3200
18705TIP3    H177530   3.892   2.446  10.633  2.0896  0.7921 -1.4196
18705TIP3    H277531   3.910   2.594  10.654  1.2294  0.6005  0.8985
18706TIP3   OH277532   3.843   2.039  11.535 -0.7482 -0.2393  0.1228
18706TIP3    H177533   3.924   2.086  11.555 -1.5746  1.0832  0.5101
18706TIP3    H277534   3.850   1.957  11.584 -0.7271  0.9520  2.2407
18707TIP3   OH277535   5.947   1.276   2.529  0.2220 -0.6053 -0.3211
18707TIP3    H177536   6.029   1.317   2.503 -0.2430  0.3310 -0.3639
18707TIP3    H277537   5.883   1.309   2.466 -0.4693 -0.1616  0.5903
18708TIP3   OH277538   6.765   3.334  14.320  0.6024  0.3316 -0.1136
18708TIP3    H177539   6.710   3.412  14.324  0.8867  0.5062  0.5190
18708TIP3    H277540   6.703   3.261  14.333  0.5103  0.5263  0.5872
18709TIP3   OH277541   3.848   1.682   0.657  0.0266  0.4273  0.5825
18709TIP3    H177542   3.938   1.707   0.673 -0.2176  0.4894  1.9320
18709TIP3    H277543   3.798   1.721   0.729 -0.8035 -1.2407  0.9778
18710TIP3   OH277544   0.446   4.372   1.607 -0.2425  0.6362  1.1892
18710TIP3    H177545   0.380   4.304   1.617 -0.2893  0.2016 -1.5040
18710TIP3    H277546   0.398   4.454   1.622 -1.4103  0.3229 -0.5436
18711TIP3   OH277547   6.575   4.358   1.502 -0.4501 -0.2149 -0.3090
18711TIP3    H177548   6.665   4.360   1.470 -0.2509 -0.2803  0.2320
18711TIP3    H277549   6.532   4.291   1.450  0.1854 -1.1804  0.3710
18712TIP3   OH277550   2.375   0.947   1.625 -0.0894 -0.2074 -0.3931
18712TIP3    H177551   2.332   1.032   1.633 -2.5145 -1.4166  0.5277
18712TIP3    H277552   2.331   0.891   1.689  0.2187 -2.6020 -2.0934
18713TIP3   OH277553   4.742   0.129  11.900 -0.0252 -0.3286  0.2621
18713TIP3    H177554   4.653   0.159  11.918  0.3124  0.3269  0.8869
18713TIP3    H277555   4.751   0.049  11.952  0.6036  1.0054  2.3359
18714TIP3   OH277556   6.326   4.837  14.342 -0.3475  0.0227 -0.0057
18714TIP3    H177557   6.394   4.770  14.340 -0.7237 -0.3915  0.7406
18714TIP3    H277558   6.352   4.896  14.413  0.6456  1.4019 -1.4541
18715TIP3   OH277559   1.205   4.959   0.404  0.4066  0.0411  0.4295
18715TIP3    H177560   1.115   4.984   0.385 -0.2653 -0.5709  2.5376
18715TIP3    H277561   1.242   4.935   0.318 -1.2277  0.8582 -0.5525
18716TIP3   OH277562   1.392   0.256  12.864 -0.8690 -0.3367  0.4894
18716TIP3    H177563   1.323   0.191  12.869 -0.7697 -0.3891  1.6382
18716TIP3    H277564   1.377   0.313  12.940 -1.4349  1.4863 -0.9157
18717TIP3   OH277565   6.689   4.459  13.177  0.3670  0.7014 -0.0713
18717TIP3    H177566   6.649   4.529  13.126 -0.4506 -0.1044 -0.5773
18717TIP3    H277567   6.638   4.457  13.258 -0.5863 -0.2398 -0.6631
18718TIP3   OH277568   4.946   3.257   4.064 -0.2037 -0.3914 -0.3820
18718TIP3    H177569   5.000   3.330   4.033 -0.0090 -0.3087  0.1401
18718TIP3    H277570   4.942   3.269   4.159 -0.2155 -1.0300 -0.2980
18719TIP3   OH277571   5.754   1.696  14.807 -0.1199 -0.5186 -0.5668
18719TIP3    H177572   5.714   1.712  14.721  0.7385  0.2178 -0.8464
18719TIP3    H277573   5.769   1.784  14.842  0.7435 -0.7952 -0.2303
18720TIP3   OH277574   2.720   0.004  12.471 -0.1316 -0.0291  0.0248
18720TIP3    H177575   2.746  -0.027  12.384 -0.8194  0.6045 -0.4179
18720TIP3    H277576   2.711  -0.076  12.523 -0.0623 -0.4423 -0.5872
18721TIP3   OH277577   4.543   6.396  14.782 -0.0478  0.0420  0.2735
18721TIP3    H177578   4.576   6.312  14.814  0.4388  0.4245  0.7865
18721TIP3    H277579   4.585   6.462  14.838 -1.0694  0.5868  0.4316
18722TIP3   OH277580   4.306   6.136  14.390  0.0798  0.0574 -0.0670
18722TIP3    H177581   4.384   6.159  14.441  0.5144  2.2589 -1.6065
18722TIP3    H277582   4.234   6.180  14.435  0.2528  0.8178 -0.5162
18723TIP3   OH277583   4.638   2.176   1.234  0.3150 -0.2366 -0.6426
18723TIP3    H177584   4.663   2.245   1.296 -2.9890 -0.6294  1.3579
18723TIP3    H277585   4.630   2.098   1.288 -2.1780 -0.7176 -1.5858
18724TIP3   OH277586   3.294   1.980  10.136  0.4333  0.0133 -0.4203
18724TIP3    H177587   3.207   1.975  10.097 -0.4125 -0.5553  1.4135
18724TIP3    H277588   3.318   1.889  10.152  0.3015  0.2397  1.2375
18725TIP3   OH277589   4.185   5.955  12.753 -0.6026  0.3807 -0.3987
18725TIP3    H177590   4.115   6.004  12.796 -1.5349 -0.9074 -0.3999
18725TIP3    H277591   4.173   5.971  12.660  0.2664  1.6489 -0.3212
18726TIP3   OH277592   3.392   6.247   2.834 -0.5593  0.5777 -0.6426
18726TIP3    H177593   3.468   6.190   2.825  1.1244  2.8101 -1.5368
18726TIP3    H277594   3.351   6.246   2.747 -3.4861 -2.9001  0.5139
18727TIP3   OH277595   2.154   6.770  13.086  0.4698 -0.4574  0.1719
18727TIP3    H177596   2.214   6.814  13.025  1.6179 -1.0698  0.8265
18727TIP3    H277597   2.136   6.686  13.044  0.6989 -0.5943  0.3504
18728TIP3   OH277598   4.061   4.325   4.674 -0.3122  0.1942  0.6384
18728TIP3    H177599   4.008   4.265   4.622  0.1260  1.3776 -1.2656
18728TIP3    H277600   4.126   4.269   4.716 -2.4253 -1.1876  2.3522
18729TIP3   OH277601   4.899   6.472   5.114  0.0641 -0.2645  0.3650
18729TIP3    H177602   4.805   6.464   5.096  0.0200  0.3030  0.3235
18729TIP3    H277603   4.939   6.479   5.028  0.0180  0.7324  0.4112
18730TIP3   OH277604   6.124   0.239  15.461 -0.3137 -0.0759 -0.3965
18730TIP3    H177605   6.111   0.227  15.555 -0.1402 -2.1337 -0.5911
18730TIP3    H277606   6.216   0.214  15.447 -0.6611 -0.8991 -1.2562
18731TIP3   OH277607   3.546   3.648   2.640 -0.0787  0.7202 -0.4106
18731TIP3    H177608   3.576   3.639   2.731  0.6905 -0.7255 -0.7683
18731TIP3    H277609   3.564   3.739   2.618  0.2491  0.9477  0.7034
18732TIP3   OH277610   3.839   5.199  16.927 -0.2033  0.5276 -0.6966
18732TIP3    H177611   3.819   5.167  17.015 -1.3961  1.3217 -0.6547
18732TIP3    H277612   3.915   5.255  16.939  1.3046 -1.4092 -0.6157
18733TIP3   OH277613   3.279   5.808  15.088  0.0101  0.0860  0.3219
18733TIP3    H177614   3.238   5.865  15.152  0.6696  0.9519 -0.0052
18733TIP3    H277615   3.357   5.774  15.132 -0.0653 -0.0902  0.3185
18734TIP3   OH277616   0.074   1.337  15.502  0.1935  0.1692 -0.4721
18734TIP3    H177617   0.035   1.254  15.476  0.9914  0.0190 -1.2115
18734TIP3    H277618   0.101   1.323  15.593  2.0448 -1.0393 -1.1592
18735TIP3   OH277619   2.878   4.815   5.064 -0.3300 -0.2908 -0.2288
18735TIP3    H177620   2.843   4.769   4.988 -1.6838  0.9525 -0.3964
18735TIP3    H277621   2.822   4.789   5.137 -0.5403  0.3639 -0.1471
18736TIP3   OH277622   6.778   1.098  12.653  0.4924 -0.3353 -0.2062
18736TIP3    H177623   6.753   1.070  12.566  0.3469  0.9705 -0.6111
18736TIP3    H277624   6.695   1.107  12.701  0.6146 -1.7360  0.3076
18737TIP3   OH277625   6.227   0.101   1.365 -0.2285  0.7896 -0.1233
18737TIP3    H177626   6.263   0.184   1.336  1.0491  1.1556  2.3018
18737TIP3    H277627   6.214   0.111   1.459  0.0721 -1.7717  0.2775
18738TIP3   OH277628   6.067   6.285   0.026  0.7672 -0.1260 -0.5896
18738TIP3    H177629   6.156   6.275   0.059  0.5235  1.0945  0.4875
18738TIP3    H277630   6.078   6.325  -0.060  1.3503 -2.3747 -1.6474
18739TIP3   OH277631   3.130   3.636  12.052 -0.3052 -1.0092 -0.8046
18739TIP3    H177632   3.204   3.649  11.993 -0.8741 -2.6976 -1.9850
18739TIP3    H277633   3.093   3.723  12.065  2.2372 -0.0101  0.3729
18740TIP3   OH277634   3.199   2.710  16.451  0.1566 -0.4595  0.1916
18740TIP3    H177635   3.257   2.681  16.380  1.4046  1.4386  0.3491
18740TIP3    H277636   3.256   2.763  16.507 -1.5742  0.9310  0.7247
18741TIP3   OH277637   3.615   1.083  11.626 -0.1312 -0.1353  0.0387
18741TIP3    H177638   3.579   1.007  11.581 -0.0607 -1.3904  1.9576
18741TIP3    H277639   3.561   1.157  11.597 -1.2630 -1.1914 -0.6314
18742TIP3   OH277640   2.320   0.999   2.357 -0.1437  0.2653  0.6231
18742TIP3    H177641   2.238   0.979   2.403 -0.1406  1.9401  1.3960
18742TIP3    H277642   2.369   0.916   2.360 -1.6039 -0.6457  0.5159
18743TIP3   OH277643   3.287   4.844   3.230  0.4899 -0.5539 -0.3401
18743TIP3    H177644   3.277   4.754   3.261  0.2397 -0.1532  0.7863
18743TIP3    H277645   3.285   4.898   3.309 -1.3252  0.6226 -1.1089
18744TIP3   OH277646   4.646   4.510  10.246  0.4061  0.5862  0.1628
18744TIP3    H177647   4.630   4.521  10.340  0.0212 -1.2101  0.3463
18744TIP3    H277648   4.563   4.475  10.212  0.9605 -0.0199 -0.6026
18745TIP3   OH277649   2.723   1.000  16.173 -0.4031 -0.2583 -0.4395
18745TIP3    H177650   2.808   1.043  16.188 -0.1500 -0.9899  0.2616
18745TIP3    H277651   2.707   1.013  16.079  0.1825  0.4321 -0.4576
18746TIP3   OH277652   0.221   1.422   2.046  0.3193  0.5158 -0.6671
18746TIP3    H177653   0.264   1.470   2.117 -0.2106  0.3202 -0.2129
18746TIP3    H277654   0.247   1.470   1.967  1.7543  0.1364 -0.4617
18747TIP3   OH277655   1.717   5.422  12.364  0.2839  0.2524 -0.1576
18747TIP3    H177656   1.657   5.423  12.439  0.2875 -0.4398 -0.1383
18747TIP3    H277657   1.723   5.330  12.340  1.4333  0.2988 -0.0888
18748TIP3   OH277658   4.160   5.089   5.224  0.0852 -0.3428 -0.0768
18748TIP3    H177659   4.247   5.126   5.240 -0.1883  0.6473 -0.7741
18748TIP3    H277660   4.176   5.008   5.175  0.5695  1.0377 -2.3704
18749TIP3   OH277661   4.527   5.875  14.412 -0.1650  0.6518 -0.2937
18749TIP3    H177662   4.618   5.891  14.437 -0.6038  0.4430  1.5679
18749TIP3    H277663   4.490   5.963  14.398 -0.0276  0.8147  0.3281
18750TIP3   OH277664   4.787   4.380  15.261 -0.1891 -0.9261  0.3708
18750TIP3    H177665   4.826   4.378  15.348  2.1003 -1.1204 -0.5752
18750TIP3    H277666   4.757   4.471  15.250 -0.2870 -0.8433  1.2628
18751TIP3   OH277667   5.160   4.402  12.657 -0.0304 -0.1563 -0.3582
18751TIP3    H177668   5.233   4.339  12.654 -0.6811 -1.0353  1.2001
18751TIP3    H277669   5.186   4.472  12.596  1.9002 -0.6658 -0.1764
18752TIP3   OH277670   3.315   3.420   5.510 -0.8741  0.1782 -0.5021
18752TIP3    H177671   3.399   3.417   5.463 -0.5804 -2.0774  0.0152
18752TIP3    H277672   3.332   3.371   5.591 -2.0516  1.8220  0.7985
18753TIP3   OH277673   5.437   3.796   2.641  0.1041 -0.0523 -0.0985
18753TIP3    H177674   5.404   3.793   2.731 -0.2201  0.7852 -0.1747
18753TIP3    H277675   5.405   3.715   2.601  0.0946 -0.3453  0.4892
18754TIP3   OH277676   3.289   3.234  12.496 -0.7749 -0.0788 -0.1632
18754TIP3    H177677   3.254   3.315  12.460 -0.4857  0.8132  1.5003
18754TIP3    H277678   3.364   3.214  12.440 -0.7953  0.8256 -0.5367
18755TIP3   OH277679   3.659   1.595  15.646 -0.1611  0.0294  0.5376
18755TIP3    H177680   3.647   1.501  15.629  1.9596  0.2441 -3.6539
18755TIP3    H277681   3.751   1.603  15.674  0.1026  0.8967 -0.4978
18756TIP3   OH277682   0.112   1.168   4.823 -0.5513 -0.1496  0.4195
18756TIP3    H177683   0.205   1.146   4.825  0.2613  2.8268  0.0480
18756TIP3    H277684   0.079   1.123   4.745  0.5731 -1.2155  0.5314
18757TIP3   OH277685   1.396   5.463  15.729  0.3184 -0.2202  0.9812
18757TIP3    H177686   1.417   5.517  15.653 -2.4507 -0.3699  0.0107
18757TIP3    H277687   1.375   5.525  15.798 -0.7897 -0.0240  0.4888
18758TIP3   OH277688   3.701   1.428  16.926 -0.1877  0.6096  0.1415
18758TIP3    H177689   3.688   1.358  16.862  0.1185 -0.4682  1.2314
18758TIP3    H277690   3.613   1.458  16.947 -0.2771  1.2876 -1.0925
18759TIP3   OH277691   5.795   3.802   4.493  0.6600  0.0312 -0.1088
18759TIP3    H177692   5.853   3.878   4.482  1.0422 -0.2078  0.2415
18759TIP3    H277693   5.733   3.830   4.561  1.8232 -0.5481  1.2517
18760TIP3   OH277694   4.826   4.646  14.753  0.3967 -0.2528 -0.1844
18760TIP3    H177695   4.896   4.710  14.753 -0.7770  1.1189  1.2512
18760TIP3    H277696   4.802   4.636  14.846 -1.7336 -0.1339 -0.6550
18761TIP3   OH277697   2.961   3.619  13.927 -0.3224 -0.3374 -0.1671
18761TIP3    H177698   2.882   3.621  13.982  0.8394  1.0600  1.5962
18761TIP3    H277699   2.980   3.526  13.916 -1.7904 -0.6805  0.0091
18762TIP3   OH277700   4.846   0.788  11.866 -0.4573  0.0786 -0.3263
18762TIP3    H177701   4.859   0.713  11.924  0.2494  0.0719 -0.4834
18762TIP3    H277702   4.775   0.762  11.808 -0.4628 -0.3242 -0.1390
18763TIP3   OH277703   5.249   1.386  16.988  0.1494  0.1714  0.4029
18763TIP3    H177704   5.261   1.434  16.906  0.3287 -1.0690 -0.3228
18763TIP3    H277705   5.331   1.398  17.035  1.3133 -1.7263 -1.0352
18764TIP3   OH277706   1.582   5.483   0.750 -0.0871  0.1919 -0.7312
18764TIP3    H177707   1.617   5.399   0.781 -1.7593 -1.0145 -1.8567
18764TIP3    H277708   1.489   5.465   0.736 -0.3681  2.1035 -1.5267
18765TIP3   OH277709   6.417   2.989  10.395 -1.1411  0.4175 -0.6062
18765TIP3    H177710   6.492   2.939  10.365 -0.4655  1.3999 -0.6070
18765TIP3    H277711   6.341   2.939  10.366 -0.4932 -0.5223 -0.7152
18766TIP3   OH277712   6.079   5.891  13.057  0.4389  0.5264  0.4132
18766TIP3    H177713   5.986   5.914  13.052  0.0682 -1.1720 -2.4382
18766TIP3    H277714   6.121   5.969  13.094 -2.0091  1.5642  1.2225
18767TIP3   OH277715   0.378   1.661  11.981  0.4942 -0.4732 -0.2534
18767TIP3    H177716   0.352   1.590  11.922  2.3123 -0.6024 -0.9550
18767TIP3    H277717   0.406   1.617  12.061 -0.8289 -0.3621  0.3013
18768TIP3   OH277718   6.306   5.451  12.504  0.2098 -0.1619 -0.2130
18768TIP3    H177719   6.400   5.464  12.500  0.2447 -0.7457 -1.7669
18768TIP3    H277720   6.270   5.519  12.446 -0.2507 -0.6209 -0.4661
18769TIP3   OH277721   1.128   2.418   2.221 -0.1792 -0.6561 -0.5581
18769TIP3    H177722   1.148   2.462   2.304 -1.5991 -1.0623  0.0379
18769TIP3    H277723   1.072   2.345   2.246 -0.9916 -0.5340 -1.9284
18770TIP3   OH277724   6.406   4.348   3.818  0.7899 -0.0811  0.1853
18770TIP3    H177725   6.492   4.328   3.783  0.4120  0.1582 -0.9226
18770TIP3    H277726   6.412   4.439   3.848  0.5984  0.3512 -1.0204
18771TIP3   OH277727   1.518   1.099  13.729  0.2078 -0.1847  0.5125
18771TIP3    H177728   1.463   1.033  13.772 -0.2162 -0.7562 -0.8574
18771TIP3    H277729   1.607   1.066  13.741 -0.0312 -1.2914 -0.5784
18772TIP3   OH277730   0.137   2.040   1.416  0.2800  0.2697  0.4064
18772TIP3    H177731   0.133   2.003   1.504  0.4857 -0.6984  0.0217
18772TIP3    H277732   0.170   1.968   1.362 -0.2376  0.7321 -0.5312
18773TIP3   OH277733   3.802   3.727   6.590 -0.5106 -0.3091  0.2401
18773TIP3    H177734   3.859   3.775   6.650 -1.4143 -1.3625  2.0063
18773TIP3    H277735   3.824   3.635   6.605  0.7880 -0.6019 -2.6593
18774TIP3   OH277736   4.180   2.554   5.299 -0.5630 -0.1340  0.6156
18774TIP3    H177737   4.205   2.534   5.389  0.1408 -0.9705  0.2493
18774TIP3    H277738   4.097   2.507   5.286 -0.4449 -0.3639  0.6922
18775TIP3   OH277739   4.597   2.607   3.215  0.3103  0.4293  0.3583
18775TIP3    H177740   4.511   2.588   3.252  1.1843 -3.1294  1.0073
18775TIP3    H277741   4.648   2.641   3.288 -0.1343  1.1956  0.3210
18776TIP3   OH277742   3.795   1.227  13.004  0.5942 -0.6926  0.2913
18776TIP3    H177743   3.809   1.263  13.091 -1.6291  0.3840  0.2672
18776TIP3    H277744   3.737   1.152  13.018  0.3839 -0.6346 -0.2542
18777TIP3   OH277745   1.787   2.017   0.620 -0.1494  0.6332  0.3174
18777TIP3    H177746   1.746   2.104   0.628 -0.0811  0.5049  2.8263
18777TIP3    H277747   1.881   2.034   0.628  0.1730  0.6193 -2.5692
18778TIP3   OH277748   6.679   2.083  11.648  0.2934 -0.2247  0.0986
18778TIP3    H177749   6.767   2.106  11.620  0.7556 -0.8581  0.9931
18778TIP3    H277750   6.652   2.154  11.707 -0.7575  1.2140 -1.9831
18779TIP3   OH277751   4.786   2.348   1.730 -0.2412  0.3572 -0.0568
18779TIP3    H177752   4.764   2.264   1.689  0.3839 -0.0553  0.4161
18779TIP3    H277753   4.864   2.329   1.782 -0.1928  1.1984  0.1981
18780TIP3   OH277754   1.779   4.919  16.253 -0.8722  0.4555  0.6557
18780TIP3    H177755   1.800   4.987  16.318  1.3180  0.5778 -0.0878
18780TIP3    H277756   1.766   4.968  16.171 -2.1036  0.1800  0.6739
18781TIP3   OH277757   1.959   5.628  16.385 -0.4704 -0.0837  0.0601
18781TIP3    H177758   1.999   5.701  16.432  0.2360 -1.1717  1.2041
18781TIP3    H277759   1.999   5.550  16.423 -0.4788 -1.0535 -1.8100
18782TIP3   OH277760   1.847   6.027  16.095  0.1201 -0.1262 -0.5190
18782TIP3    H177761   1.879   5.937  16.087 -2.3363 -1.1156 -0.2090
18782TIP3    H277762   1.812   6.032  16.184 -0.2095  1.0027 -0.6992
18783TIP3   OH277763   4.633   4.728  14.473  0.3401  0.6564  0.0984
18783TIP3    H177764   4.647   4.651  14.527  0.0668 -0.8546 -1.8393
18783TIP3    H277765   4.721   4.755  14.445  0.4271  1.0087  0.6920
18784TIP3   OH277766   2.240   4.214  15.324 -0.3932 -0.3300 -0.0270
18784TIP3    H177767   2.272   4.279  15.387 -0.0297  0.1373 -0.6754
18784TIP3    H277768   2.165   4.257  15.282  0.4999  0.1248 -1.2206
18785TIP3   OH277769   3.751   4.480  10.951  0.1670 -0.1247  0.1857
18785TIP3    H177770   3.725   4.560  10.996  0.4009  1.2279 -1.9461
18785TIP3    H277771   3.676   4.458  10.895 -0.3425 -2.0736  1.5372
18786TIP3   OH277772   0.421   5.527   3.716  0.0785  0.1003  0.3886
18786TIP3    H177773   0.437   5.607   3.666 -1.8941  0.5449  0.3806
18786TIP3    H277774   0.508   5.491   3.733  0.9351  1.5191 -0.7837
18787TIP3   OH277775   3.436   1.142  14.350  0.3084  0.1714  0.1495
18787TIP3    H177776   3.497   1.200  14.305 -0.2137  0.1327 -0.6307
18787TIP3    H277777   3.392   1.198  14.414  0.2537  0.4949 -0.1674
18788TIP3   OH277778   3.566   6.368   2.538  0.0800 -0.1036 -0.4097
18788TIP3    H177779   3.482   6.332   2.565  1.1669 -2.5715 -0.0385
18788TIP3    H277780   3.627   6.295   2.546  2.4089  1.7582 -0.0636
18789TIP3   OH277781   6.401   3.749   3.572 -0.2753  0.1226  0.3651
18789TIP3    H177782   6.310   3.731   3.546 -0.2841  1.3422 -0.5448
18789TIP3    H277783   6.398   3.751   3.667 -0.4259 -3.6176  0.5681
18790TIP3   OH277784   4.456   3.591  13.032  0.5046 -0.4396 -0.3878
18790TIP3    H177785   4.451   3.615  13.125 -0.9831  1.8991 -0.9775
18790TIP3    H277786   4.373   3.546  13.015  1.3856 -2.1621 -0.3156
18791TIP3   OH277787   5.188   4.783  16.158 -0.7313  0.0086 -0.5448
18791TIP3    H177788   5.113   4.844  16.154 -0.2804  0.5606 -0.7463
18791TIP3    H277789   5.185   4.736  16.075 -0.4074  0.5824 -0.8929
18792TIP3   OH277790   1.826   2.029   5.419  0.2253 -1.0387  0.2097
18792TIP3    H177791   1.800   2.032   5.511 -1.0104 -1.9391 -0.0806
18792TIP3    H277792   1.905   1.976   5.418  0.5397 -0.5917  0.8070
18793TIP3   OH277793   5.951   1.290   6.504  0.3062  0.3123  0.2465
18793TIP3    H177794   5.898   1.355   6.457 -0.5974  0.2731  1.1742
18793TIP3    H277795   5.892   1.215   6.514  1.5886 -1.0130 -1.5337
18794TIP3   OH277796   6.230   4.243  14.479 -0.0875 -0.0569  0.2492
18794TIP3    H177797   6.313   4.204  14.504  0.1104  1.2862  1.8378
18794TIP3    H277798   6.183   4.255  14.561 -1.5140 -0.0353 -0.5378
18795TIP3   OH277799   0.385   3.659   2.423  0.7284  0.5315 -0.0548
18795TIP3    H177800   0.423   3.729   2.476  1.1668  1.2896 -1.3228
18795TIP3    H277801   0.415   3.678   2.334  0.8639 -1.2895 -0.4278
18796TIP3   OH277802   2.997   0.620   5.558  0.1182 -0.2789  0.0998
18796TIP3    H177803   2.953   0.535   5.551 -0.2212 -0.1012  0.0461
18796TIP3    H277804   3.005   0.636   5.652 -1.0595  0.2558  0.1311
18797TIP3   OH277805   5.997   4.449   6.114  0.4788 -0.6275  0.0071
18797TIP3    H177806   5.945   4.526   6.090  0.9256 -0.3375 -0.0418
18797TIP3    H277807   5.950   4.411   6.188 -1.7596 -2.4030 -2.1721
18798TIP3   OH277808   0.409   1.481  11.374 -0.1595  0.3884  0.7635
18798TIP3    H177809   0.485   1.439  11.414  0.1910  1.5958  1.4209
18798TIP3    H277810   0.367   1.529  11.445 -1.7937 -0.5763  0.5035
18799TIP3   OH277811   2.093   4.025   0.811 -0.3404  0.1648 -0.5352
18799TIP3    H177812   2.137   4.026   0.726  0.5795 -1.1357 -0.0942
18799TIP3    H277813   2.164   4.032   0.875 -0.7921 -1.4127  0.1771
18800TIP3   OH277814   0.367   3.650   1.652  0.1635 -0.0594  0.1023
18800TIP3    H177815   0.314   3.571   1.661  1.5382 -1.0461 -0.1663
18800TIP3    H277816   0.448   3.630   1.700  0.5608  1.1747 -0.0145
18801TIP3   OH277817   6.586   6.295  14.050 -0.4384 -0.1527  0.7368
18801TIP3    H177818   6.605   6.231  13.981 -1.4348 -0.2262  0.5229
18801TIP3    H277819   6.491   6.308  14.046 -0.6368 -0.7637  2.6278
18802TIP3   OH277820   0.836   3.826   3.270 -0.0432 -0.0576  0.1250
18802TIP3    H177821   0.883   3.781   3.199 -0.7360 -0.2201 -0.2330
18802TIP3    H277822   0.777   3.886   3.225 -0.6064 -0.2791  0.5682
18803TIP3   OH277823   2.238   3.448   2.336  0.0167 -0.1436 -0.1030
18803TIP3    H177824   2.287   3.465   2.416  0.1900  2.6489 -0.6846
18803TIP3    H277825   2.153   3.416   2.366 -0.6314  2.6597  1.3878
18804TIP3   OH277826   3.513   5.563  16.473  0.3817 -0.7446  0.1482
18804TIP3    H177827   3.571   5.582  16.399  0.5234  1.0326  0.6728
18804TIP3    H277828   3.571   5.557  16.549 -0.0160  0.1012  0.5287
18805TIP3   OH277829   4.097   1.552  10.748  0.5254 -0.7230 -0.2260
18805TIP3    H177830   4.021   1.536  10.692 -0.8505  0.9868  1.0316
18805TIP3    H277831   4.119   1.644  10.733  1.3407 -0.7675  0.6063
18806TIP3   OH277832   0.820   4.966  15.090  0.5997 -0.1139  0.1119
18806TIP3    H177833   0.853   4.881  15.062  2.3262 -0.0416  1.6643
18806TIP3    H277834   0.751   4.946  15.153  1.3148 -0.4048  0.8213
18807TIP3   OH277835   3.677   5.176  10.567  0.4013  0.2205  0.0578
18807TIP3    H177836   3.753   5.164  10.510  0.6861  1.8519  0.0421
18807TIP3    H277837   3.690   5.114  10.638  2.0873  0.8739  0.3689
18808TIP3   OH277838   4.700   3.094  11.096 -0.5933 -0.4820  0.6751
18808TIP3    H177839   4.632   3.114  11.031  0.0776 -1.5939 -0.3927
18808TIP3    H277840   4.661   3.120  11.179 -2.8281 -2.1761  0.2507
18809TIP3   OH277841   4.505   2.463   1.882  0.0987  0.4010  0.4271
18809TIP3    H177842   4.578   2.406   1.906 -1.1691 -2.4584 -2.0173
18809TIP3    H277843   4.428   2.421   1.920 -0.6574  1.7974  0.5122
18810TIP3   OH277844   5.178   1.984   3.522 -0.3087 -0.1451  0.4202
18810TIP3    H177845   5.145   1.895   3.534 -0.5683 -0.1208 -0.0843
18810TIP3    H277846   5.263   1.973   3.480 -0.4502 -0.1505  0.1311
18811TIP3   OH277847   2.031   2.786  10.781  0.1030  0.3476 -0.1805
18811TIP3    H177848   1.963   2.762  10.718 -0.9189 -1.7781  1.5725
18811TIP3    H277849   2.032   2.881  10.781 -2.6616  0.4565 -0.5624
18812TIP3   OH277850   3.283   1.806  13.214  0.6501 -0.5989 -0.2920
18812TIP3    H177851   3.217   1.796  13.145 -0.8772 -2.3665  1.3435
18812TIP3    H277852   3.254   1.748  13.284  3.5817 -0.8822  0.8104
18813TIP3   OH277853   6.203   2.133   3.506 -0.3020  0.1196  0.4379
18813TIP3    H177854   6.257   2.070   3.554  1.2611  0.9620 -0.1426
18813TIP3    H277855   6.222   2.218   3.547 -0.0215  0.6483 -0.7521
18814TIP3   OH277856   3.529   5.985  17.190 -0.0167  0.0256 -0.2243
18814TIP3    H177857   3.561   5.975  17.100 -0.7100  1.0146 -0.5934
18814TIP3    H277858   3.461   6.051  17.184 -3.1230 -2.8648  0.3221
18815TIP3   OH277859   5.383   6.186  12.608  0.0331  0.2297  0.3311
18815TIP3    H177860   5.376   6.201  12.702 -1.4132  2.4166 -0.0600
18815TIP3    H277861   5.354   6.095  12.597  0.5936 -0.2001  2.0032
18816TIP3   OH277862   2.863   1.428   5.750 -0.3315  0.3070  0.0367
18816TIP3    H177863   2.860   1.523   5.764 -0.7663  0.6024 -1.8160
18816TIP3    H277864   2.772   1.402   5.737  0.0082  0.2539 -2.8151
18817TIP3   OH277865   3.734   1.474  10.703  0.4249  0.3934  0.6455
18817TIP3    H177866   3.732   1.561  10.744  1.6486  1.0412 -0.6112
18817TIP3    H277867   3.784   1.486  10.623  1.3017 -1.6514  0.8368
18818TIP3   OH277868   1.422   5.669  16.677 -0.4716  0.4693  0.5940
18818TIP3    H177869   1.339   5.713  16.657 -1.3589 -0.4767  2.0309
18818TIP3    H277870   1.473   5.735  16.725  0.0351  1.3776 -1.1320
18819TIP3   OH277871   4.032   3.399   5.656 -0.4519 -0.0734 -0.3409
18819TIP3    H177872   3.966   3.396   5.726 -1.0242  1.5109 -0.7689
18819TIP3    H277873   3.996   3.461   5.592  1.1974  0.4119 -0.8508
18820TIP3   OH277874   0.264   3.440   1.126  0.2222  0.1894 -0.1608
18820TIP3    H177875   0.190   3.384   1.150 -0.3098  1.3732  1.1364
18820TIP3    H277876   0.229   3.529   1.131  1.3329  0.6987 -1.0714
18821TIP3   OH277877   1.328   5.105   1.265 -0.2492  0.5203  0.7243
18821TIP3    H177878   1.382   5.042   1.218 -0.3493  0.4871  0.6524
18821TIP3    H277879   1.387   5.145   1.329 -0.6296 -1.0336  2.1215
18822TIP3   OH277880   5.124   2.080  15.511 -0.0998 -0.1614  0.8332
18822TIP3    H177881   5.099   2.099  15.420  0.6827  0.3808  0.7176
18822TIP3    H277882   5.063   2.132  15.564  0.7338  1.1532  0.5577
18823TIP3   OH277883   5.862   3.701   3.944 -0.5745  0.5883  0.0888
18823TIP3    H177884   5.878   3.622   3.995  0.2138  0.4618 -0.3463
18823TIP3    H277885   5.910   3.688   3.862  2.8684  3.0920  1.4676
18824TIP3   OH277886   0.072   2.635  14.152 -0.2117  0.7565 -0.4115
18824TIP3    H177887   0.125   2.623  14.231 -0.5842  2.1564  0.0791
18824TIP3    H277888   0.022   2.553  14.144  2.0746 -0.6880 -0.9810
18825TIP3   OH277889   1.433   1.178  14.280  0.7968 -0.2806 -0.1626
18825TIP3    H177890   1.397   1.093  14.307  1.3676 -0.2177  0.8084
18825TIP3    H277891   1.527   1.170  14.292  0.7604  0.8804  1.0519
18826TIP3   OH277892   5.088   3.801   5.266  0.0152  0.1903 -0.1510
18826TIP3    H177893   5.087   3.870   5.333  0.4660  0.0934 -0.0440
18826TIP3    H277894   5.167   3.751   5.284 -0.4826 -0.5641 -0.0154
18827TIP3   OH277895   1.382   2.598  17.109  0.7682  0.1567 -0.5414
18827TIP3    H177896   1.460   2.600  17.165  0.5689 -3.1357  0.0563
18827TIP3    H277897   1.309   2.586  17.170  0.2945 -1.2489 -1.3510
18828TIP3   OH277898   0.288   0.102  11.408 -0.3112 -0.5331  0.3777
18828TIP3    H177899   0.193   0.100  11.424 -0.3116  0.7659  0.6352
18828TIP3    H277900   0.296   0.133  11.317 -0.1289  0.3920  0.6955
18829TIP3   OH277901   2.805   4.889  12.928  0.4751 -0.0635  0.2440
18829TIP3    H177902   2.853   4.927  12.855  1.2402  0.4025  0.9634
18829TIP3    H277903   2.843   4.930  13.006 -1.0022  0.2194  0.8621
18830TIP3   OH277904   6.286   1.617  13.590  0.0741 -0.0411 -0.4957
18830TIP3    H177905   6.364   1.652  13.632  0.0347 -1.4971  0.8930
18830TIP3    H277906   6.229   1.590  13.662 -1.9729  1.4289 -1.4398
18831TIP3   OH277907   2.144   1.404  11.934  0.5749  0.2456 -0.0235
18831TIP3    H177908   2.060   1.401  11.889  0.8233 -0.5399 -0.4539
18831TIP3    H277909   2.206   1.436  11.868  0.8479 -0.4273 -0.1015
18832TIP3   OH277910   0.563   1.851   5.112  0.4206  0.4913  0.1310
18832TIP3    H177911   0.537   1.943   5.112  1.0802  0.6840  0.6967
18832TIP3    H277912   0.527   1.816   5.031 -0.4686  1.0662  0.2715
18833TIP3   OH277913   1.501   4.326   2.277  0.0722 -0.1544  0.0120
18833TIP3    H177914   1.527   4.239   2.307  1.5152  0.0360 -0.6114
18833TIP3    H277915   1.436   4.309   2.209 -2.1231 -0.6230  2.1010
18834TIP3   OH277916   5.183   2.824  16.504  0.5844 -0.3684  0.0812
18834TIP3    H177917   5.133   2.780  16.436  1.4584 -1.8740  0.3692
18834TIP3    H277918   5.117   2.863  16.562 -0.1884 -0.5243 -0.6844
18835TIP3   OH277919   1.860   3.874  16.385 -0.3886  0.1713 -0.3898
18835TIP3    H177920   1.873   3.805  16.319  0.6141  1.2122 -1.3186
18835TIP3    H277921   1.931   3.861  16.448 -1.2668 -0.7389  0.4446
18836TIP3   OH277922   3.937   4.416  13.190  0.7890  0.0642  0.1225
18836TIP3    H177923   4.009   4.401  13.130  1.1542  2.4615 -0.1346
18836TIP3    H277924   3.978   4.442  13.272  0.2504 -0.6676  0.6355
18837TIP3   OH277925   0.441   2.684  15.252  0.0528 -0.2013  0.0313
18837TIP3    H177926   0.399   2.626  15.315  1.5750  0.6930  1.9638
18837TIP3    H277927   0.517   2.719  15.298  1.7350 -0.1141 -2.5872
18838TIP3   OH277928   3.948   2.533   5.522 -0.1861  0.3474  0.1758
18838TIP3    H177929   3.911   2.536   5.610 -0.3700 -0.8934  0.1655
18838TIP3    H277930   4.042   2.519   5.535 -0.0022  1.4766  0.1739
18839TIP3   OH277931   1.576   4.478   6.177 -0.3533 -0.1729  0.0537
18839TIP3    H177932   1.518   4.540   6.133 -0.0994  1.4945  1.9443
18839TIP3    H277933   1.664   4.513   6.163  0.2713 -2.4207 -2.3818
18840TIP3   OH277934   1.456   5.883   5.453  0.5628  0.1097 -0.8212
18840TIP3    H177935   1.368   5.886   5.416  0.7284  0.2803 -1.1959
18840TIP3    H277936   1.506   5.828   5.393  0.8572  0.4743 -0.9147
18841TIP3   OH277937   0.494   3.700   2.173  0.1759  0.0645 -0.0203
18841TIP3    H177938   0.526   3.752   2.099  2.0235 -0.0872  0.6208
18841TIP3    H277939   0.455   3.623   2.132  1.2261 -0.0502 -0.8563
18842TIP3   OH277940   4.653   6.329   1.966  0.5997  0.0611 -0.0395
18842TIP3    H177941   4.717   6.396   1.993  0.1308 -0.1628  1.7939
18842TIP3    H277942   4.676   6.252   2.019 -1.2684  0.0408  0.8053
18843TIP3   OH277943   0.768   4.746  15.851 -0.6714 -0.3644 -0.0038
18843TIP3    H177944   0.823   4.765  15.926  0.1792  2.4108 -1.1888
18843TIP3    H277945   0.678   4.756  15.884 -0.3154  0.6930  0.7223
18844TIP3   OH277946   0.185   2.325  10.519  0.2596  0.3426  0.5363
18844TIP3    H177947   0.161   2.353  10.431 -0.7554  1.4662  1.1507
18844TIP3    H277948   0.102   2.309  10.564  0.7689 -1.0680  1.0553
18845TIP3   OH277949   2.142   3.278  10.527 -0.2738  0.8850 -0.4126
18845TIP3    H177950   2.233   3.250  10.515 -0.6114 -0.1238 -0.7601
18845TIP3    H277951   2.107   3.286  10.438 -0.5508  1.1580 -0.2795
18846TIP3   OH277952   4.636   0.085  15.856  0.3149  0.5440 -0.7752
18846TIP3    H177953   4.719   0.069  15.813 -0.0584 -1.5367 -0.8121
18846TIP3    H277954   4.624   0.011  15.915 -1.8539  0.3652 -1.3384
18847TIP3   OH277955   6.345   3.833  11.328 -0.3014  0.1389 -0.5485
18847TIP3    H177956   6.371   3.800  11.415  0.8253 -1.6576 -1.5056
18847TIP3    H277957   6.317   3.923  11.344 -2.5225 -0.8594  2.1039
18848TIP3   OH277958   5.497   2.551   0.102 -0.4884 -0.6019 -0.0511
18848TIP3    H177959   5.482   2.645   0.092  0.2632 -0.6148 -1.4836
18848TIP3    H277960   5.541   2.543   0.187 -1.5106  0.2039  0.5833
18849TIP3   OH277961   4.415   3.248  15.956 -0.3204  0.1735 -0.0119
18849TIP3    H177962   4.366   3.313  15.906 -1.0624  0.5359  1.1441
18849TIP3    H277963   4.352   3.177  15.970 -0.7235  0.8411  1.8824
18850TIP3   OH277964   4.945   2.123   2.187  0.3465 -0.0724 -0.1988
18850TIP3    H177965   4.893   2.079   2.254  0.8688 -0.5152 -0.0773
18850TIP3    H277966   4.889   2.193   2.155 -0.0302 -0.0658  0.4671
18851TIP3   OH277967   5.623   5.280  11.239  0.1519 -0.3316  0.0540
18851TIP3    H177968   5.635   5.281  11.144  2.5671  0.7331  0.2839
18851TIP3    H277969   5.681   5.210  11.269  0.4600  0.2423  0.8215
18852TIP3   OH277970   2.074   2.143  12.048  0.1913  0.1183 -0.3562
18852TIP3    H177971   2.021   2.109  12.120  0.6492  0.9895  0.4027
18852TIP3    H277972   2.042   2.232  12.035 -0.2800 -0.2107 -1.6313
18853TIP3   OH277973   4.293   0.408  12.052  0.5546 -0.6955  0.5985
18853TIP3    H177974   4.277   0.443  12.139 -1.6416 -1.8955  0.7644
18853TIP3    H277975   4.207   0.409  12.010  0.9987 -2.7911 -0.5198
18854TIP3   OH277976   3.456   2.698   4.949  0.2329 -0.0133  0.2341
18854TIP3    H177977   3.546   2.707   4.918  0.6499  0.4879  1.5340
18854TIP3    H277978   3.441   2.776   5.002 -0.2995 -1.0141  1.6112
18855TIP3   OH277979   3.496   2.953  11.926 -0.0828  0.7636 -0.3783
18855TIP3    H177980   3.508   2.858  11.931  1.8945  0.9449 -0.9706
18855TIP3    H277981   3.535   2.986  12.006 -0.6141  1.1013 -0.2557
18856TIP3   OH277982   3.343   2.186   0.586 -0.3172 -0.1660  0.6258
18856TIP3    H177983   3.428   2.142   0.584  0.3099  0.9962  0.7972
18856TIP3    H277984   3.289   2.130   0.640  1.6086  1.1586  4.2952
18857TIP3   OH277985   3.270   0.509   1.652 -0.2509 -0.8900  0.2805
18857TIP3    H177986   3.274   0.570   1.726  0.8521 -1.1844  0.4797
18857TIP3    H277987   3.360   0.502   1.622 -0.7281 -0.5056 -1.3336
18858TIP3   OH277988   6.015   2.768  17.025 -0.1397 -0.3007 -0.1097
18858TIP3    H177989   5.989   2.820  17.101 -0.5870 -0.4985 -0.1241
18858TIP3    H277990   6.110   2.763  17.031 -0.1653 -0.2430  0.3902
18859TIP3   OH277991   6.071   5.931  15.671 -0.1601  0.3006 -0.0819
18859TIP3    H177992   6.072   5.885  15.587  1.9846 -0.8030  0.4567
18859TIP3    H277993   6.152   5.902  15.714  0.1054  2.8027  1.2895
18860TIP3   OH277994   0.799   4.685   3.321 -0.8218  0.0288 -0.2446
18860TIP3    H177995   0.818   4.779   3.316 -0.1617  0.0209  1.4110
18860TIP3    H277996   0.756   4.665   3.239  0.9854  1.3342 -1.5927
18861TIP3   OH277997   1.359   2.459  11.435  0.2688  0.0529  0.8135
18861TIP3    H177998   1.269   2.456  11.468  0.0166  0.0420  0.1422
18861TIP3    H277999   1.406   2.394  11.488  0.1490  0.8338  1.9180
18862TIP3   OH278000   0.868   1.156   0.368  0.3526 -0.6290  0.0549
18862TIP3    H178001   0.890   1.072   0.327 -0.6919 -1.2092  0.6551
18862TIP3    H278002   0.892   1.145   0.460  1.4823  0.2236 -0.1138
18863TIP3   OH278003   1.652   0.645  13.928  0.1922 -0.3441  0.1998
18863TIP3    H178004   1.612   0.569  13.969 -2.2218  0.8224  0.1648
18863TIP3    H278005   1.678   0.701  14.001  1.0516 -0.7376  0.2045
18864TIP3   OH278006   1.805   1.398   1.141 -0.3051  0.0336  0.0642
18864TIP3    H178007   1.727   1.348   1.119  1.7146 -3.5553  0.1283
18864TIP3    H278008   1.789   1.431   1.229 -1.7846 -0.4873  0.0143
18865TIP3   OH278009   3.433   4.553   6.178  0.0187  0.4690 -0.5065
18865TIP3    H178010   3.505   4.608   6.208  0.2394  2.2922 -3.8137
18865TIP3    H278011   3.473   4.495   6.112 -0.9944 -0.7562 -0.0819
18866TIP3   OH278012   5.484   6.781   2.462 -0.1861  0.1113 -0.3359
18866TIP3    H178013   5.567   6.750   2.497 -0.6845 -1.7704 -0.6990
18866TIP3    H278014   5.419   6.753   2.527 -0.6562  0.4313 -0.6673
18867TIP3   OH278015   4.956   5.944  13.451  0.7623  0.1479 -0.1490
18867TIP3    H178016   4.882   5.911  13.402  1.2426  0.3939 -1.0666
18867TIP3    H278017   5.030   5.888  13.425  0.7627 -0.6503  1.3910
18868TIP3   OH278018   1.522   5.721  10.802  0.0966 -0.0533  0.3250
18868TIP3    H178019   1.435   5.734  10.841 -0.7989 -0.4127 -1.4620
18868TIP3    H278020   1.560   5.809  10.800 -0.6114  0.2613  0.2870
18869TIP3   OH278021   4.570   3.085  16.672 -0.4714  0.2681  0.0417
18869TIP3    H178022   4.545   3.078  16.580  0.9660 -3.2905 -0.2206
18869TIP3    H278023   4.657   3.125  16.670  0.4759 -1.7186 -0.4024
18870TIP3   OH278024   1.555   6.634   5.128  0.0838  0.5951  0.0612
18870TIP3    H178025   1.627   6.578   5.159 -2.0850 -1.1254  2.4637
18870TIP3    H278026   1.570   6.642   5.034  0.9877 -3.5482 -0.3401
18871TIP3   OH278027   1.598   5.277   2.179 -0.0778  0.1774 -0.2433
18871TIP3    H178028   1.633   5.363   2.203 -0.1828  0.0690  0.3078
18871TIP3    H278029   1.674   5.219   2.181 -0.2547 -0.0317  0.8244
18872TIP3   OH278030   0.468   3.306  14.331 -0.3385  0.2913 -0.5507
18872TIP3    H178031   0.463   3.304  14.426  0.8691  1.7962 -0.4136
18872TIP3    H278032   0.485   3.215  14.305  0.0244 -0.0192  0.7178
18873TIP3   OH278033   1.596   2.339  11.035 -0.5183 -0.2704  0.0376
18873TIP3    H178034   1.519   2.366  10.986 -0.3582 -0.6057 -0.4034
18873TIP3    H278035   1.668   2.346  10.973 -0.2724 -0.4491  0.2963
18874TIP3   OH278036   6.150   4.086   6.269  0.0445 -0.2620  0.0054
18874TIP3    H178037   6.216   4.136   6.316 -0.1050 -1.5464  1.6434
18874TIP3    H278038   6.070   4.098   6.320 -1.1542  1.5325 -2.1162
18875TIP3   OH278039   5.152   1.566  13.317 -0.4645  0.6063  0.5718
18875TIP3    H178040   5.157   1.471  13.308 -1.1431  0.6924 -1.0067
18875TIP3    H278041   5.125   1.579  13.408  0.3734 -0.6670  1.0386
18876TIP3   OH278042   3.086   2.592  16.666 -0.1506  0.3555 -0.0692
18876TIP3    H178043   3.115   2.661  16.606 -0.0590 -1.6543 -2.4871
18876TIP3    H278044   3.073   2.516  16.611  0.4321 -1.8228  2.5691
18877TIP3   OH278045   1.433   3.737  12.267  0.6953 -0.0931  0.0280
18877TIP3    H178046   1.363   3.760  12.206  0.8366 -0.6458 -0.3426
18877TIP3    H278047   1.401   3.768  12.352  0.0776 -0.1886 -0.1647
18878TIP3   OH278048   4.921   6.024   5.684  0.2166 -0.4084  0.5324
18878TIP3    H178049   4.852   6.082   5.651 -0.4769 -0.4800  1.7829
18878TIP3    H278050   4.944   5.969   5.609  0.5943  1.1670 -0.5677
18879TIP3   OH278051   1.820   2.412   5.622 -0.5165  0.3698  0.3116
18879TIP3    H178052   1.753   2.426   5.554  0.3022 -1.4527 -0.9673
18879TIP3    H278053   1.775   2.360   5.688 -1.0963  1.4629  0.7958
18880TIP3   OH278054   1.649   3.801   3.165  0.0156  0.0687  0.4032
18880TIP3    H178055   1.737   3.824   3.135 -0.3043  1.9249  0.7910
18880TIP3    H278056   1.613   3.883   3.199 -1.7769 -0.7176  0.4908
18881TIP3   OH278057   0.935   6.729   4.036 -0.3175  0.0027  0.3561
18881TIP3    H178058   0.927   6.639   4.067 -3.0369 -0.0231 -0.0882
18881TIP3    H278059   0.965   6.721   3.945  1.6132 -0.2748  0.9849
18882TIP3   OH278060   1.881   3.029  10.865  0.1699  0.0065  0.2030
18882TIP3    H178061   1.871   3.062  10.776 -0.4452  3.7865  1.5071
18882TIP3    H278062   1.792   3.031  10.901  0.6732  0.4193  1.4685
18883TIP3   OH278063   5.104   2.236  12.113 -0.2427 -0.1224 -0.5430
18883TIP3    H178064   5.155   2.300  12.062  0.0463 -0.4633 -0.6909
18883TIP3    H278065   5.037   2.206  12.052 -1.0490  0.8136 -0.1402
18884TIP3   OH278066   0.555   1.617   0.610  0.1752  0.2280  0.5967
18884TIP3    H178067   0.629   1.618   0.670  0.6668 -0.4698  0.0201
18884TIP3    H278068   0.547   1.525   0.584 -0.2977  0.4501 -0.0652
18885TIP3   OH278069   5.526   4.777  12.797  0.4971  0.1161 -0.0557
18885TIP3    H178070   5.451   4.737  12.840  0.5069  0.5155  0.3423
18885TIP3    H278071   5.601   4.756  12.854  0.8633 -1.1064 -0.9424
18886TIP3   OH278072   3.073   1.647  16.144 -0.1353 -0.4319  0.2912
18886TIP3    H178073   3.117   1.718  16.191  0.7964  0.2894 -1.5781
18886TIP3    H278074   3.139   1.577  16.139  0.5342  0.2655 -1.6262
18887TIP3   OH278075   4.717   3.554   0.892 -0.4297  0.2358  0.2515
18887TIP3    H178076   4.623   3.538   0.892 -0.5672 -0.0001 -3.4511
18887TIP3    H278077   4.730   3.620   0.824  2.0474  0.7884  1.1575
18888TIP3   OH278078   0.444   1.068  13.810 -0.3506 -0.4202 -0.2913
18888TIP3    H178079   0.499   1.099  13.883  1.5169 -1.6836 -1.1150
18888TIP3    H278080   0.414   0.982  13.838 -2.2191  0.3418  0.2493
18889TIP3   OH278081   1.617   1.817   5.336  0.0483  0.9342  0.4986
18889TIP3    H178082   1.579   1.883   5.394  1.0266  1.9888 -0.0289
18889TIP3    H278083   1.667   1.760   5.394 -2.4031 -0.6397  1.2545
18890TIP3   OH278084   2.032   4.113   0.091  0.7427 -0.3591 -0.0537
18890TIP3    H178085   1.960   4.102   0.028  1.2274  0.1197 -0.6937
18890TIP3    H278086   2.105   4.066   0.051  1.5274  1.3081 -0.6418
18891TIP3   OH278087   4.926   1.644   4.386 -0.2843 -0.1303  0.1736
18891TIP3    H178088   4.862   1.574   4.403 -0.2991  0.0873  1.0651
18891TIP3    H278089   4.879   1.708   4.333 -0.8762  0.1126  0.9746
18892TIP3   OH278090   2.356   3.299   0.131 -0.1396  0.3992  0.6330
18892TIP3    H178091   2.385   3.268   0.046 -2.8466 -0.6703 -0.0152
18892TIP3    H278092   2.326   3.219   0.177 -0.9489  1.2279  1.6161
18893TIP3   OH278093   1.952   1.390   5.975  0.5660  0.3920  0.2057
18893TIP3    H178094   1.973   1.309   6.023 -0.8101  0.4410  0.9492
18893TIP3    H278095   1.858   1.402   5.989 -0.0246  0.1636 -2.9162
18894TIP3   OH278096   4.418   1.626  13.544  0.6606 -0.2271 -0.3343
18894TIP3    H178097   4.354   1.686  13.582  0.9621  0.0163 -0.2104
18894TIP3    H278098   4.483   1.683  13.502  0.6448 -0.4785 -0.7053
18895TIP3   OH278099   6.326   3.070  16.635  0.2688  0.2752 -0.4382
18895TIP3    H178100   6.356   2.984  16.606  2.7101  1.1554 -0.7174
18895TIP3    H278101   6.390   3.096  16.702 -1.2196  1.3097  0.6395
18896TIP3   OH278102   1.281   2.363  15.688 -0.0057  0.0964  0.2122
18896TIP3    H178103   1.298   2.269  15.689 -2.3590 -0.4100 -0.0898
18896TIP3    H278104   1.298   2.390  15.598 -2.0119 -0.6792 -0.4555
18897TIP3   OH278105   0.732   6.450   2.286  0.9473  0.0052 -0.5576
18897TIP3    H178106   0.731   6.357   2.305  0.6007  0.0317 -0.4467
18897TIP3    H278107   0.640   6.476   2.287  1.1501  0.9916  2.5641
18898TIP3   OH278108   2.088   4.878  11.714  0.6512 -0.0772  0.1282
18898TIP3    H178109   2.053   4.967  11.719  1.0315 -0.0042  1.8927
18898TIP3    H278110   2.065   4.849  11.625  0.2513  1.6500 -0.3782
18899TIP3   OH278111   0.789   3.304  15.638 -0.4792 -0.0123  0.2160
18899TIP3    H178112   0.813   3.318  15.546  1.7688 -2.3997  0.3332
18899TIP3    H278113   0.868   3.325  15.687 -2.0415  2.6045  1.8571
18900TIP3   OH278114   2.066   3.960  16.552  0.3800  0.2877  0.3036
18900TIP3    H178115   2.057   4.050  16.584  3.1725  0.6306  0.4131
18900TIP3    H278116   2.160   3.945  16.552 -0.0416 -3.5255  2.6182
18901TIP3   OH278117   2.107   4.880  12.801 -0.4534  0.0179  0.0348
18901TIP3    H178118   2.098   4.792  12.838  0.5591 -0.1242 -0.0240
18901TIP3    H278119   2.125   4.936  12.876 -1.0265  0.1750  0.0634
18902TIP3   OH278120   1.170   4.193   0.423  0.0238  0.1387  0.4867
18902TIP3    H178121   1.239   4.236   0.473  0.6340 -0.3475  0.0663
18902TIP3    H278122   1.147   4.255   0.354  1.6640 -0.5908 -0.7956
18903TIP3   OH278123   5.986   0.858   3.647  0.0626 -0.1529 -0.0142
18903TIP3    H178124   5.896   0.875   3.620  0.3816  0.2715 -0.8775
18903TIP3    H278125   5.980   0.786   3.709 -0.9334  0.2925  0.4248
18904TIP3   OH278126   0.475   1.857  14.461  0.1126  0.4153 -0.1047
18904TIP3    H178127   0.524   1.935  14.432 -0.8322  0.3556 -2.0478
18904TIP3    H278128   0.420   1.889  14.532 -0.1886  1.5252 -0.8064
18905TIP3   OH278129   5.812   2.629   3.753  0.2191  0.3743  0.5668
18905TIP3    H178130   5.878   2.589   3.810  0.4581 -0.0782 -0.0181
18905TIP3    H278131   5.822   2.584   3.670 -0.1631  0.9979  0.1777
18906TIP3   OH278132   2.796   4.485  11.369 -0.0383  0.2654 -0.1237
18906TIP3    H178133   2.745   4.473  11.289  0.3167  4.1848 -1.1432
18906TIP3    H278134   2.861   4.415  11.367 -1.3508 -0.9748 -2.1540
18907TIP3   OH278135   1.590   0.840  16.057 -0.2157 -0.5407 -0.2779
18907TIP3    H178136   1.669   0.786  16.048 -0.0505 -0.6354  1.4483
18907TIP3    H278137   1.540   0.822  15.977  1.2848 -0.8248 -1.2051
18908TIP3   OH278138   0.064   1.508  16.315 -0.0254  0.5443 -0.1483
18908TIP3    H178139   0.103   1.595  16.324  0.3306  0.3089  0.6789
18908TIP3    H278140   0.023   1.491  16.399  1.1264 -0.6558  0.2151
18909TIP3   OH278141   6.336   2.324  13.706 -0.1362 -0.1762 -0.0288
18909TIP3    H178142   6.377   2.254  13.755  2.6741 -0.2498 -2.2536
18909TIP3    H278143   6.256   2.285  13.670 -0.6218 -1.0111  1.8545
18910TIP3   OH278144   4.002   6.336  12.573  0.3493  0.2816  0.4060
18910TIP3    H178145   3.926   6.288  12.605  0.4505  0.5251  1.0298
18910TIP3    H278146   4.059   6.344  12.650  0.4491  1.1732  0.2443
18911TIP3   OH278147   2.676   2.298  13.266 -0.3913  0.3719 -0.3231
18911TIP3    H178148   2.614   2.234  13.300 -1.1920  1.7442  0.9404
18911TIP3    H278149   2.700   2.352  13.342 -1.2209  2.7491 -1.6228
18912TIP3   OH278150   1.067   0.585  12.031  0.1521 -0.4375 -0.7212
18912TIP3    H178151   1.110   0.643  12.093 -1.6257 -1.2838  1.4602
18912TIP3    H278152   0.992   0.635  11.999 -2.2816 -1.8091  2.3191
18913TIP3   OH278153   3.630   5.717   2.399 -0.0159  0.0367  0.2089
18913TIP3    H178154   3.634   5.808   2.370  0.3686 -0.3287 -0.9005
18913TIP3    H278155   3.544   5.709   2.441 -0.3514  0.7131 -0.3352
18914TIP3   OH278156   6.240   3.778   6.481 -0.3961 -0.0464 -0.3483
18914TIP3    H178157   6.161   3.725   6.468 -0.0408 -0.4343 -1.0179
18914TIP3    H278158   6.261   3.810   6.393 -0.8295  1.5549  0.1047
18915TIP3   OH278159   5.800   1.366   4.024  0.1017 -0.2786 -0.2644
18915TIP3    H178160   5.878   1.337   3.977  0.2636  0.1344 -0.2524
18915TIP3    H278161   5.778   1.450   3.985  1.0485  0.7453  1.3062
18916TIP3   OH278162   3.844   2.985   4.823 -0.2243  0.1476  0.7660
18916TIP3    H178163   3.832   3.049   4.893  1.9757  1.7959 -0.2791
18916TIP3    H278164   3.923   2.938   4.847 -1.0301 -1.2685  0.7781
18917TIP3   OH278165   0.167   4.965  17.100  0.0140  0.0831 -0.1268
18917TIP3    H178166   0.132   4.916  17.174 -1.0756  1.5990  0.4238
18917TIP3    H278167   0.237   4.910  17.065 -0.7522 -1.5545  0.8050
18918TIP3   OH278168   0.646   5.270  12.564  0.5003  0.0539  0.6707
18918TIP3    H178169   0.555   5.257  12.591 -0.0620  1.4382 -0.4517
18918TIP3    H278170   0.687   5.184  12.575 -1.3478 -0.9996 -0.3036
18919TIP3   OH278171   3.118   6.716  17.115  0.2557 -0.5139 -0.1770
18919TIP3    H178172   3.199   6.762  17.136  0.1513  0.3028 -1.4578
18919TIP3    H278173   3.057   6.742  17.184  0.4395  0.6566 -0.4323
18920TIP3   OH278174   5.809   3.186   6.342  0.4556 -0.2020  0.2648
18920TIP3    H178175   5.885   3.128   6.335  0.6132 -0.0532  0.7532
18920TIP3    H278176   5.841   3.263   6.389  0.2318  0.2610 -0.3297
18921TIP3   OH278177   1.104   6.466  13.166  0.0360  0.2048  0.0097
18921TIP3    H178178   1.057   6.388  13.137  0.0055 -0.4815  1.7460
18921TIP3    H278179   1.046   6.539  13.146 -0.2958 -0.2936 -0.8865
18922TIP3   OH278180   1.485   2.739  15.074 -0.6986  0.1442 -0.0546
18922TIP3    H178181   1.557   2.684  15.042  0.0556  1.5905 -0.9530
18922TIP3    H278182   1.468   2.800  15.002 -2.4333  0.2218  0.3881
18923TIP3   OH278183   3.416   5.031  12.833  0.1499  0.3137 -0.0329
18923TIP3    H178184   3.400   4.943  12.800 -0.5607  1.0298 -1.6963
18923TIP3    H278185   3.389   5.028  12.925  3.2482 -2.0462  0.9316
18924TIP3   OH278186   1.240   2.562  14.861 -0.2973 -0.1845  0.4221
18924TIP3    H178187   1.211   2.493  14.921  1.4352  0.1097  1.6734
18924TIP3    H278188   1.194   2.640  14.889 -0.7487 -0.3963  0.2832
18925TIP3   OH278189   4.237   0.671  14.979  0.0491 -0.4570  0.4041
18925TIP3    H178190   4.288   0.619  14.917  0.1498  0.4367 -0.2904
18925TIP3    H278191   4.152   0.628  14.982  0.6868 -1.7149  1.2441
18926TIP3   OH278192   2.742   5.229  13.568  0.2460  0.3228  0.9813
18926TIP3    H178193   2.779   5.311  13.536 -2.9681  0.8057 -2.0584
18926TIP3    H278194   2.668   5.256  13.623 -1.9406 -0.3654 -1.4520
18927TIP3   OH278195   6.370   4.821   1.541 -0.6151  0.3678 -0.0521
18927TIP3    H178196   6.343   4.894   1.486 -0.1565 -0.3800 -1.3313
18927TIP3    H278197   6.311   4.749   1.516 -0.5833  0.0989  0.6407
18928TIP3   OH278198   4.156   5.715   4.090  0.2701  0.2075 -0.2199
18928TIP3    H178199   4.145   5.702   3.995  0.6899 -2.3566  0.0075
18928TIP3    H278200   4.251   5.725   4.101  0.0826  2.7131 -0.2108
18929TIP3   OH278201   2.277   4.704   1.613 -0.1111 -0.1460 -0.6080
18929TIP3    H178202   2.336   4.630   1.625  0.0372 -0.0365 -0.6726
18929TIP3    H278203   2.278   4.749   1.697 -1.2912 -1.0180 -0.1013
18930TIP3   OH278204   5.139   4.646   6.063  0.1183  0.1774  0.2898
18930TIP3    H178205   5.197   4.674   6.133  0.7140  1.5947 -0.7294
18930TIP3    H278206   5.145   4.715   5.997 -1.9371 -0.1573 -0.3108
18931TIP3   OH278207   1.495   0.164   4.417  0.1833  0.0329 -0.0712
18931TIP3    H178208   1.495   0.103   4.343  0.7802 -0.4413  0.3105
18931TIP3    H278209   1.484   0.250   4.377  0.2178 -0.2445 -0.6897
18932TIP3   OH278210   0.346   0.238   1.849 -1.0611 -0.6196 -0.2004
18932TIP3    H178211   0.412   0.208   1.911 -0.3358  0.9921 -0.1427
18932TIP3    H278212   0.354   0.179   1.774  2.3960  1.0770 -1.3845
18933TIP3   OH278213   3.171   2.619  14.666  0.1079  0.0474  0.0746
18933TIP3    H178214   3.226   2.621  14.744  1.2193  1.5779 -0.7032
18933TIP3    H278215   3.233   2.620  14.593 -0.9303 -0.3149 -0.8439
18934TIP3   OH278216   0.755   3.715   3.705 -0.2289  0.2044 -0.3892
18934TIP3    H178217   0.799   3.671   3.632 -1.0444  0.1619 -0.8777
18934TIP3    H278218   0.773   3.660   3.781 -0.9438 -0.8029 -0.9266
18935TIP3   OH278219   1.478   6.610  17.082  0.2098  0.0620 -0.1225
18935TIP3    H178220   1.481   6.558  17.001  0.1857 -0.9721  0.5206
18935TIP3    H278221   1.451   6.697  17.053  0.6362 -0.1701 -1.2875
18936TIP3   OH278222   2.993   4.510   3.611 -0.7897  0.1674  0.2600
18936TIP3    H178223   2.913   4.461   3.588 -1.2394  0.1318  1.8005
18936TIP3    H278224   2.966   4.566   3.683  0.0959  1.6607 -0.5219
18937TIP3   OH278225   4.067   2.676  13.001  0.0843 -0.2072 -0.0045
18937TIP3    H178226   4.077   2.747  13.064  1.3086 -0.5763  0.2511
18937TIP3    H278227   4.120   2.605  13.037 -0.4082 -0.9435 -0.6974
18938TIP3   OH278228   5.546   3.864  12.327 -0.0127 -0.0440 -0.1439
18938TIP3    H178229   5.507   3.834  12.245  1.3266 -1.1234 -0.4097
18938TIP3    H278230   5.620   3.918  12.300  1.4191 -1.7024  0.3046
18939TIP3   OH278231   0.948   3.997  12.873 -0.0969 -0.3772  0.5069
18939TIP3    H178232   0.984   4.002  12.785 -0.7259  1.2334  0.2985
18939TIP3    H278233   1.018   3.957  12.925  0.5737 -0.6569 -0.5716
18940TIP3   OH278234   3.792   6.621  12.693 -0.3757 -0.4868  0.3049
18940TIP3    H178235   3.833   6.700  12.659 -1.1565 -0.7513 -1.3509
18940TIP3    H278236   3.864   6.559  12.704 -0.1151 -0.4762 -1.1868
18941TIP3   OH278237   6.769   6.580  14.496  0.3112 -0.2710 -0.8229
18941TIP3    H178238   6.729   6.567  14.582 -0.4919 -2.3464 -1.4571
18941TIP3    H278239   6.861   6.600  14.515  0.0108 -0.0683  0.5177
18942TIP3   OH278240   6.318   2.870  11.828  0.2820 -0.2770  0.3361
18942TIP3    H178241   6.373   2.795  11.852  1.1795  0.1029 -0.4944
18942TIP3    H278242   6.237   2.857  11.878  0.0036 -2.3396 -0.5607
18943TIP3   OH278243   6.589   4.288   5.234 -0.1893  0.1638  0.0569
18943TIP3    H178244   6.533   4.249   5.166 -0.4278 -1.1798  0.9833
18943TIP3    H278245   6.602   4.379   5.205 -2.2387  0.3173 -0.5734
18944TIP3   OH278246   5.627   6.139  12.446  0.7112 -0.0563 -0.0916
18944TIP3    H178247   5.537   6.152  12.476  0.2995 -0.0622 -1.2652
18944TIP3    H278248   5.657   6.062  12.494  0.2024  0.1425  0.5578
18945TIP3   OH278249   4.475   5.377   3.547 -0.8434  0.2574  0.2747
18945TIP3    H178250   4.516   5.359   3.462  0.0554  0.4113  0.6678
18945TIP3    H278251   4.473   5.292   3.591  0.1863  0.4614  0.7376
18946TIP3   OH278252   2.157   1.031  14.588  0.4374 -0.2578 -0.2988
18946TIP3    H178253   2.214   0.965  14.627  0.3240 -0.3685 -0.3222
18946TIP3    H278254   2.157   1.103  14.651  0.9449 -0.0798 -0.4950
18947TIP3   OH278255   1.496   2.904  12.128  0.0187  0.0833  0.1452
18947TIP3    H178256   1.445   2.912  12.209  0.5488 -1.1579  0.6329
18947TIP3    H278257   1.486   2.988  12.084 -0.0099  0.9116  1.6747
18948TIP3   OH278258   3.173   0.304  16.229  0.4210  0.5288  0.9329
18948TIP3    H178259   3.089   0.262  16.246 -0.1980  1.9531  1.5011
18948TIP3    H278260   3.236   0.253  16.281 -0.0001 -0.7524  0.2403
18949TIP3   OH278261   5.233   2.076   5.896  0.3139  0.2640 -0.1553
18949TIP3    H178262   5.306   2.134   5.874  0.5027 -0.2355 -0.8826
18949TIP3    H278263   5.266   2.024   5.970  0.8603 -0.2481 -0.7487
18950TIP3   OH278264   4.488   2.979   0.182  0.2815  0.4214  0.1471
18950TIP3    H178265   4.492   2.957   0.275 -0.6995  2.3977  0.7135
18950TIP3    H278266   4.578   3.001   0.159  0.5744 -0.3008  0.5437
18951TIP3   OH278267   5.419   1.786   4.024  0.6499 -0.2980  0.0193
18951TIP3    H178268   5.440   1.877   4.004 -0.7520  0.1719  0.5606
18951TIP3    H278269   5.384   1.789   4.113  2.0033 -1.5985  0.6242
18952TIP3   OH278270   2.654   0.870   9.817 -0.0875  0.7546 -0.3466
18952TIP3    H178271   2.638   0.962   9.797 -1.9866  1.4877  3.5602
18952TIP3    H278272   2.663   0.867   9.913 -1.6944 -3.2550 -0.1061
18953TIP3   OH278273   5.127   5.799   5.808 -0.1707 -0.0569  0.2145
18953TIP3    H178274   5.091   5.730   5.752  1.8598 -0.4512 -0.6962
18953TIP3    H278275   5.119   5.879   5.756 -0.9537  0.1143  0.5796
18954TIP3   OH278276   0.796   3.361  16.899 -0.0015 -0.1576 -0.0350
18954TIP3    H178277   0.711   3.355  16.942 -1.3334  0.1866 -2.4642
18954TIP3    H278278   0.799   3.449  16.862  0.4949 -0.8271 -1.6866
18955TIP3   OH278279   3.713   3.891  13.054 -0.1983 -0.0094  0.0580
18955TIP3    H178280   3.649   3.842  13.001  0.2199 -1.3578  0.7758
18955TIP3    H278281   3.783   3.829  13.071  0.4452  0.9059  0.8370
18956TIP3   OH278282   3.472   6.559   0.560 -0.0193 -0.6658 -0.4213
18956TIP3    H178283   3.456   6.649   0.534 -0.2921 -0.9476 -1.2664
18956TIP3    H278284   3.413   6.507   0.505  1.9699 -1.5593 -1.8528
18957TIP3   OH278285   0.870   4.965  14.649  0.1920  0.4198 -0.1578
18957TIP3    H178286   0.874   4.945  14.743  1.8823  0.1022 -0.2648
18957TIP3    H278287   0.915   4.892  14.608 -1.4188  0.0411 -1.3362
18958TIP3   OH278288   2.860   1.672  14.198  0.2482 -0.0096  0.6241
18958TIP3    H178289   2.932   1.653  14.137  1.0157 -0.5873  1.6730
18958TIP3    H278290   2.807   1.738  14.153  0.1046 -1.2965 -1.1735
18959TIP3   OH278291   3.923   1.614  15.087 -0.6561  0.7314  0.2725
18959TIP3    H178292   3.894   1.663  15.010 -0.8835 -1.1024 -0.8698
18959TIP3    H278293   4.011   1.647  15.104 -0.2757  0.6398 -1.2873
18960TIP3   OH278294   4.110   4.557   2.473 -0.0323  1.3527  0.1615
18960TIP3    H178295   4.161   4.502   2.531  0.1728  2.5539  1.1717
18960TIP3    H278296   4.040   4.501   2.440  1.3193 -0.0329 -0.4388
18961TIP3   OH278297   3.769   4.141   1.222  0.1333 -1.0810  0.0264
18961TIP3    H178298   3.788   4.232   1.244 -2.6148 -0.6543  0.9867
18961TIP3    H278299   3.798   4.131   1.132 -0.0700  0.9256 -0.2917
18962TIP3   OH278300   4.350   5.300  12.520  0.5657 -0.5741 -0.5755
18962TIP3    H178301   4.380   5.215  12.488  2.1788 -0.1883 -0.1820
18962TIP3    H278302   4.363   5.296  12.615 -0.0023 -0.1291 -0.4727
18963TIP3   OH278303   1.061   0.502  11.005 -0.2675 -0.3580 -0.6875
18963TIP3    H178304   1.011   0.579  11.033  0.1841  0.4630 -2.0160
18963TIP3    H278305   1.142   0.507  11.055 -0.6021 -0.4542 -0.1340
18964TIP3   OH278306   1.304   2.205  13.204 -0.4439 -0.2243  0.0277
18964TIP3    H178307   1.353   2.192  13.285 -1.2118  0.4634  0.6072
18964TIP3    H278308   1.298   2.300  13.194 -0.8257 -0.3044 -0.5425
18965TIP3   OH278309   1.801   4.360  14.703  0.0092 -0.2538  0.3006
18965TIP3    H178310   1.852   4.349  14.623  1.5667  1.0833  1.0631
18965TIP3    H278311   1.713   4.332  14.679  0.1559  1.1330 -2.1978
18966TIP3   OH278312   1.233   0.920   6.098 -0.3166 -0.2677  0.1434
18966TIP3    H178313   1.162   0.977   6.127 -1.4818 -0.8515 -1.4309
18966TIP3    H278314   1.229   0.923   6.003  4.3240  2.8305 -0.2707
18967TIP3   OH278315   4.120   1.924  16.138 -0.5094  0.2262  0.4250
18967TIP3    H178316   4.211   1.949  16.155 -0.4867 -0.5177  1.4873
18967TIP3    H278317   4.098   1.970  16.057 -1.0462  5.1500  3.0021
18968TIP3   OH278318   0.910   0.711   0.789  0.0499 -0.2096 -0.1916
18968TIP3    H178319   0.938   0.724   0.880  1.7022 -1.0400 -0.5323
18968TIP3    H278320   0.972   0.763   0.738  0.7723 -1.7623 -0.9611
18969TIP3   OH278321   0.975   1.513   4.114 -0.1496  0.3286 -0.2597
18969TIP3    H178322   0.885   1.519   4.083 -0.8263 -0.9689  1.3090
18969TIP3    H278323   0.983   1.584   4.178  0.2011  0.9256 -0.9550
18970TIP3   OH278324   5.889   3.217  11.929 -0.0484  0.0476 -0.1368
18970TIP3    H178325   5.827   3.280  11.893  1.0773  0.6832 -1.0572
18970TIP3    H278326   5.972   3.265  11.934  0.4234 -0.8182  0.9082
18971TIP3   OH278327   6.349   6.653  12.499  0.4697 -0.2478 -0.8563
18971TIP3    H178328   6.257   6.625  12.497  0.0678  1.0528 -2.9792
18971TIP3    H278329   6.351   6.724  12.563 -0.1320  0.0688 -1.1795
18972TIP3   OH278330   1.242   3.422   1.184 -0.4882  0.5612 -0.2072
18972TIP3    H178331   1.274   3.386   1.267 -1.1652  0.8290  0.1796
18972TIP3    H278332   1.319   3.425   1.128 -0.0918  0.0458  0.2964
18973TIP3   OH278333   4.335   1.726  14.279 -0.3111  0.8900 -0.3534
18973TIP3    H178334   4.407   1.682  14.324 -1.2016  0.2110  0.4640
18973TIP3    H278335   4.357   1.819  14.283  0.6189  0.6727 -0.3162
18974TIP3   OH278336   2.054   6.060  10.772 -0.9358 -0.1560 -0.0085
18974TIP3    H178337   1.976   6.100  10.735 -1.2927 -1.8848 -1.2952
18974TIP3    H278338   2.094   6.013  10.698  0.7159 -0.2101  0.8671
18975TIP3   OH278339   4.827   2.817  16.011  0.1120 -0.0461  0.1595
18975TIP3    H178340   4.810   2.756  16.083  0.0793  0.1207  0.2954
18975TIP3    H278341   4.912   2.790  15.975  1.1420  1.1200  1.5819
18976TIP3   OH278342   2.356   5.007  13.783 -0.0682  0.3474 -0.2129
18976TIP3    H178343   2.263   4.999  13.804 -0.5654 -2.4949 -2.7692
18976TIP3    H278344   2.358   5.037  13.692  1.5384  0.5701 -0.1351
18977TIP3   OH278345   4.101   3.523   1.518 -0.0346 -0.1242 -0.1879
18977TIP3    H178346   4.034   3.559   1.575 -0.6390  0.0645 -0.9961
18977TIP3    H278347   4.177   3.581   1.531  0.1020 -0.5428  0.9765
18978TIP3   OH278348   1.433   4.702  10.571  0.3680  0.0088 -0.2334
18978TIP3    H178349   1.402   4.612  10.583 -1.9220  0.7651  0.1682
18978TIP3    H278350   1.518   4.704  10.614  0.9561 -2.1968 -1.1379
18979TIP3   OH278351   5.257   3.413   1.824  0.4304  0.5460 -0.0432
18979TIP3    H178352   5.217   3.380   1.744 -0.8525  1.9745 -0.0341
18979TIP3    H278353   5.183   3.433   1.881  1.1686  2.4012  0.3296
18980TIP3   OH278354   6.046   5.126  15.148 -0.4652 -0.4810 -0.3250
18980TIP3    H178355   6.141   5.117  15.139 -0.3710 -0.0986  0.2112
18980TIP3    H278356   6.023   5.061  15.214 -0.5198 -0.2982 -0.1655
18981TIP3   OH278357   1.077   3.868  12.332 -0.5085 -0.1348 -0.0705
18981TIP3    H178358   1.042   3.798  12.277  0.2563 -0.3905 -0.2451
18981TIP3    H278359   1.096   3.939  12.270 -1.0323  0.1272  0.0687
18982TIP3   OH278360   3.281   3.700   1.824  0.3639 -0.0871  0.2105
18982TIP3    H178361   3.196   3.706   1.867 -1.2891 -0.8703 -2.7147
18982TIP3    H278362   3.300   3.606   1.822 -0.1463 -0.1805 -1.6586
18983TIP3   OH278363   5.703   6.701   5.712  0.0183  0.1958 -0.1108
18983TIP3    H178364   5.700   6.646   5.790  1.9256  0.7137  0.3863
18983TIP3    H278365   5.612   6.705   5.681 -0.1102 -3.9423 -0.7273
18984TIP3   OH278366   5.607   5.949  11.632 -0.2520 -0.4503  0.7963
18984TIP3    H178367   5.521   5.945  11.590 -0.2108  0.5820  0.5938
18984TIP3    H278368   5.630   5.857  11.647  0.6787 -1.0950 -3.3614
18985TIP3   OH278369   0.017   4.043  13.528  0.0675 -0.7717 -0.1847
18985TIP3    H178370   0.028   4.088  13.445  1.3532 -0.5112  0.1110
18985TIP3    H278371   0.044   4.107  13.594 -0.3602 -1.1817  0.3952
18986TIP3   OH278372   0.494   2.886  12.220  0.2774 -0.4592  0.2613
18986TIP3    H178373   0.502   2.811  12.279 -1.0407 -1.9735 -1.3566
18986TIP3    H278374   0.401   2.889  12.198  0.8411 -0.6918 -2.5373
18987TIP3   OH278375   4.029   6.652   4.224 -0.2892  0.4964 -0.5049
18987TIP3    H178376   3.998   6.574   4.268 -0.1479  0.1318 -1.0402
18987TIP3    H278377   3.983   6.724   4.268 -1.5141  0.0146 -0.9443
18988TIP3   OH278378   4.432   4.845  11.434  0.2845  0.3283  1.4233
18988TIP3    H178379   4.354   4.790  11.437 -0.1777  0.7898 -0.5965
18988TIP3    H278380   4.409   4.916  11.373  2.7224 -0.3073 -0.4087
18989TIP3   OH278381   0.319   6.625   5.349 -0.7971  0.2164 -0.9243
18989TIP3    H178382   0.347   6.658   5.434  0.3032 -1.6012 -0.5126
18989TIP3    H278383   0.392   6.644   5.290 -1.3611  1.0536 -1.3705
18990TIP3   OH278384   2.962   5.261  11.792  0.2070  0.4336 -0.1163
18990TIP3    H178385   2.935   5.245  11.882  0.3932 -2.7381 -0.5281
18990TIP3    H278386   2.880   5.261  11.742  0.3132 -1.3446 -0.3483
18991TIP3   OH278387   5.538   4.984   0.688  0.0216 -0.0678  0.3568
18991TIP3    H178388   5.571   4.904   0.727  0.2138 -0.0763  0.1801
18991TIP3    H278389   5.558   5.053   0.751  2.4790  0.3082 -0.7131
18992TIP3   OH278390   2.094   2.679  12.681  0.3686 -0.2396 -0.2004
18992TIP3    H178391   2.121   2.752  12.626  0.8156 -0.8552 -0.8245
18992TIP3    H278392   2.108   2.709  12.771  1.4588  0.0965 -0.4702
18993TIP3   OH278393   5.093   3.145   3.221 -0.3939  0.0372 -0.0994
18993TIP3    H178394   5.007   3.171   3.254 -0.5174 -0.7584  0.2423
18993TIP3    H278395   5.152   3.160   3.295 -0.1339  1.0718 -0.4987
18994TIP3   OH278396   6.466   4.038   5.406 -0.1468 -0.0064  0.7643
18994TIP3    H178397   6.470   3.953   5.362  2.2344  0.2097  0.4402
18994TIP3    H278398   6.556   4.071   5.403 -0.7873  2.0160  1.9110
18995TIP3   OH278399   1.714   0.598  11.373  0.0752 -0.4116  0.0812
18995TIP3    H178400   1.647   0.571  11.310  0.9441  1.8169 -1.9269
18995TIP3    H278401   1.783   0.532  11.363 -0.9080 -1.5850  0.7131
18996TIP3   OH278402   4.248   6.442  12.115 -0.0759  0.1191  0.2409
18996TIP3    H178403   4.244   6.348  12.094 -1.4071  0.3697 -0.7080
18996TIP3    H278404   4.336   6.468  12.089 -0.7067 -0.2092 -2.5210
18997TIP3   OH278405   5.030   4.980   3.746 -0.4398  0.2439  0.0662
18997TIP3    H178406   5.095   5.025   3.800  0.8462  2.0995 -2.7969
18997TIP3    H278407   5.035   4.889   3.775  0.8435  0.9391  2.3520
18998TIP3   OH278408   1.601   4.227  14.131 -0.3973 -0.0618 -0.2305
18998TIP3    H178409   1.681   4.174  14.122 -0.8832 -0.7584 -0.4860
18998TIP3    H278410   1.567   4.235  14.042 -0.0710  1.1107 -0.2703
18999TIP3   OH278411   4.465   5.510   0.298  0.6228 -0.2663  0.3812
18999TIP3    H178412   4.448   5.534   0.207  1.0376 -3.2558 -0.5958
18999TIP3    H278413   4.378   5.503   0.337  0.3587 -0.3797 -0.2084
19000TIP3   OH278414   2.126   1.044  10.727  0.0813  0.3348  0.4479
19000TIP3    H178415   2.046   1.094  10.707  0.1705 -0.3105 -1.6770
19000TIP3    H278416   2.139   0.988  10.651  2.1255 -0.1706  1.1236
19001TIP3   OH278417   3.173   4.298  14.087 -0.3370 -0.1490 -0.3154
19001TIP3    H178418   3.105   4.247  14.043  0.4442 -0.9090 -0.6582
19001TIP3    H278419   3.193   4.369  14.026  0.1309 -0.7049 -0.8221
19002TIP3   OH278420   2.048   1.635  11.664 -0.3301  0.3777 -0.4812
19002TIP3    H178421   2.053   1.546  11.630  0.0481  1.4062 -3.4151
19002TIP3    H278422   1.984   1.630  11.735 -1.4086 -1.9740 -1.4950
19003TIP3   OH278423   0.591   2.012   2.808 -0.6245 -0.5347  0.0599
19003TIP3    H178424   0.590   1.916   2.812 -0.0759 -0.5732 -0.4674
19003TIP3    H278425   0.661   2.032   2.745 -0.6481  0.2138  0.2632
19004TIP3   OH278426   5.021   2.762  13.589 -0.1570  0.2699  0.2982
19004TIP3    H178427   5.073   2.686  13.616 -1.2175 -0.1896  1.1359
19004TIP3    H278428   4.944   2.724  13.546 -0.2364  0.9083 -0.1404
19005TIP3   OH278429   4.630   3.903   1.663  0.1926 -0.1256  0.6373
19005TIP3    H178430   4.673   3.940   1.740  0.9158 -1.7145  1.0520
19005TIP3    H278431   4.658   3.958   1.590  1.4037  0.0224  1.1906
19006TIP3   OH278432   5.955   0.234   3.934  0.1950  0.0149 -0.1648
19006TIP3    H178433   6.043   0.222   3.899  0.4405  1.4309 -0.0804
19006TIP3    H278434   5.949   0.328   3.951 -1.8559  0.1992 -1.5801
19007TIP3   OH278435   6.485   5.891  11.381  0.0207 -0.4212 -0.0690
19007TIP3    H178436   6.579   5.909  11.369 -0.0137 -0.9047 -1.1247
19007TIP3    H278437   6.477   5.797  11.366 -0.2531 -0.9108  2.5425
19008TIP3   OH278438   5.819   6.478  13.428  0.2273 -0.5339 -0.1643
19008TIP3    H178439   5.748   6.532  13.395 -0.2112 -0.9651  0.0663
19008TIP3    H278440   5.777   6.415  13.487  1.0482  0.5843  1.7087
19009TIP3   OH278441   5.456   5.011   4.655 -0.2969 -0.0046  0.2295
19009TIP3    H178442   5.381   4.951   4.652 -0.5076  0.1954  1.0942
19009TIP3    H278443   5.522   4.965   4.707  0.2274 -0.2206 -0.6121
19010TIP3   OH278444   6.642   2.326  14.791 -0.0767 -0.1668 -0.0063
19010TIP3    H178445   6.705   2.257  14.812 -1.3770 -1.0133  1.3085
19010TIP3    H278446   6.696   2.401  14.768  1.3969 -1.2011 -0.0688
19011TIP3   OH278447   2.468   2.296   6.333  0.1467 -0.0433 -0.3676
19011TIP3    H178448   2.388   2.251   6.358 -0.1978 -0.2522 -1.7404
19011TIP3    H278449   2.439   2.384   6.308  0.5340  0.2988  0.3573
19012TIP3   OH278450   4.833   3.897   3.851  0.1034 -0.1635  0.5362
19012TIP3    H178451   4.831   3.939   3.765 -0.5300 -0.1701  0.5453
19012TIP3    H278452   4.744   3.906   3.885  0.2057 -0.6535  0.9541
19013TIP3   OH278453   4.626   4.840  17.107  0.4718 -0.0012  0.2044
19013TIP3    H178454   4.652   4.769  17.047 -1.5674 -1.9952  1.5475
19013TIP3    H278455   4.577   4.900  17.051  1.2890 -0.1838 -0.7525
19014TIP3   OH278456   5.740   1.016  13.498 -0.0614  0.0571 -0.2399
19014TIP3    H178457   5.798   0.947  13.531  0.7252  0.1463 -1.3929
19014TIP3    H278458   5.668   0.968  13.457 -0.5943 -0.0550  0.8014
19015TIP3   OH278459   3.283   6.419  13.163  0.2691 -0.1562  0.1274
19015TIP3    H178460   3.282   6.515  13.170 -1.8094  0.1923 -2.9859
19015TIP3    H278461   3.363   6.399  13.116  1.7310 -0.2610  2.4696
19016TIP3   OH278462   1.746   3.040   1.716 -0.0366 -0.1252  0.8334
19016TIP3    H178463   1.829   3.029   1.669  0.5957  0.6607  1.7266
19016TIP3    H278464   1.752   2.977   1.788 -1.0374 -1.3859 -0.1303
19017TIP3   OH278465   1.694   6.059   1.375 -0.1355  0.5055  0.0466
19017TIP3    H178466   1.663   6.033   1.288  0.2962 -1.6569  0.4626
19017TIP3    H278467   1.789   6.046   1.371  0.1330  2.1709  0.3133
19018TIP3   OH278468   4.661   3.560   2.380 -0.1656  0.7270 -0.6289
19018TIP3    H178469   4.655   3.616   2.302 -1.6302 -0.0443 -1.1041
19018TIP3    H278470   4.676   3.622   2.451 -0.9985  1.6796 -1.2404
19019TIP3   OH278471   2.537   2.113   3.776  0.1534 -0.0306 -0.9818
19019TIP3    H178472   2.501   2.029   3.802 -2.4610  1.7723  1.9065
19019TIP3    H278473   2.596   2.137   3.847 -0.2259  1.1664 -1.0446
19020TIP3   OH278474   4.613   0.375  12.148  0.0228  0.0095 -0.2742
19020TIP3    H178475   4.534   0.331  12.118  1.7476 -3.0371 -0.7847
19020TIP3    H278476   4.668   0.382  12.069  1.4538 -0.8377  0.5963
19021TIP3   OH278477   4.418   2.771   1.546 -0.1338  0.0641  1.0591
19021TIP3    H178478   4.472   2.737   1.616 -0.4427 -2.4307  0.1900
19021TIP3    H278479   4.329   2.767   1.580 -0.3450 -1.6982  0.3884
19022TIP3   OH278480   0.416   2.550   0.333 -0.4092 -0.5425  0.2322
19022TIP3    H178481   0.466   2.632   0.334 -3.1987  1.3282 -1.0542
19022TIP3    H278482   0.396   2.533   0.425 -0.4298  0.6610  0.4635
19023TIP3   OH278483   1.374   4.570   5.655 -0.3585  0.3365  0.1657
19023TIP3    H178484   1.459   4.533   5.680 -1.1857 -2.1670 -0.4393
19023TIP3    H278485   1.374   4.567   5.559  0.0036  3.2532 -0.0368
19024TIP3   OH278486   6.254   2.818  17.124 -0.5280 -0.1532  0.1853
19024TIP3    H178487   6.293   2.751  17.069  1.8971 -0.4864  2.0869
19024TIP3    H278488   6.280   2.901  17.083  1.0827 -0.3985  0.6215
19025TIP3   OH278489   0.346   3.724  10.458  0.0761 -0.3184 -0.0508
19025TIP3    H178490   0.415   3.698  10.396  1.1283 -1.1071  1.3831
19025TIP3    H278491   0.336   3.818  10.444  1.5638 -0.1569 -0.2247
19026TIP3   OH278492   2.725   0.413   9.879  0.6570  0.2995  0.3279
19026TIP3    H178493   2.783   0.401   9.804 -0.8671 -0.0430 -0.8586
19026TIP3    H278494   2.664   0.482   9.851  0.3226  0.4747  1.4351
19027TIP3   OH278495   2.414   1.451  15.287 -0.3805 -0.0549  0.5210
19027TIP3    H178496   2.337   1.394  15.290  1.2332 -2.3452  1.7504
19027TIP3    H278497   2.407   1.506  15.365 -0.6159 -0.4793  0.8014
19028TIP3   OH278498   3.952   5.319   4.780 -0.0488 -0.1823  0.3570
19028TIP3    H178499   3.971   5.316   4.873  0.8773  2.2504  0.3233
19028TIP3    H278500   4.038   5.327   4.738 -0.4033 -1.8626 -0.7794
19029TIP3   OH278501   0.833   6.304  14.192  0.0270 -0.0147  0.2475
19029TIP3    H178502   0.911   6.253  14.169 -2.1655 -2.8252 -1.5194
19029TIP3    H278503   0.781   6.245  14.247 -0.6070  2.0965  2.1018
19030TIP3   OH278504   0.205   5.171  11.714  0.1112  0.3269  0.0981
19030TIP3    H178505   0.232   5.089  11.755 -0.4344 -0.2958 -0.7652
19030TIP3    H278506   0.113   5.158  11.692  0.4598  0.5037 -1.6020
19031TIP3   OH278507   3.206   2.858  16.149 -0.4502  0.2602  0.0049
19031TIP3    H178508   3.249   2.875  16.065 -1.8119  0.3975 -0.6949
19031TIP3    H278509   3.235   2.769  16.173 -0.3553  0.0671 -0.7993
19032TIP3   OH278510   5.814   2.018   0.393  0.0314  0.2968 -0.0741
19032TIP3    H178511   5.847   2.052   0.476 -0.2994  2.0761 -0.6332
19032TIP3    H278512   5.836   1.925   0.394  1.7526  0.6849  1.1652
19033TIP3   OH278513   0.744   4.146  10.919  1.0890  0.2919 -0.3874
19033TIP3    H178514   0.696   4.065  10.899  0.5671  0.4246  0.2933
19033TIP3    H278515   0.786   4.170  10.836 -0.3805  0.3989 -1.1395
19034TIP3   OH278516   2.744   0.603   0.915 -0.2086  0.0807  0.3087
19034TIP3    H178517   2.754   0.547   0.838 -3.5294 -1.0203  0.5106
19034TIP3    H278518   2.748   0.541   0.989 -0.1138  0.6927  0.8240
19035TIP3   OH278519   5.707   6.176   3.525  0.2681  0.0061 -0.1316
19035TIP3    H178520   5.763   6.193   3.601  0.4680  2.0936 -0.6936
19035TIP3    H278521   5.622   6.212   3.550 -1.0816 -3.4276  0.8469
19036TIP3   OH278522   5.863   2.790  12.668  0.2004  0.1696  0.2104
19036TIP3    H178523   5.796   2.802  12.734  0.2368  2.2754 -0.0834
19036TIP3    H278524   5.943   2.824  12.708  0.3518  0.8673 -0.6563
19037TIP3   OH278525   2.774   0.392  10.347  0.5882  0.4597 -0.1551
19037TIP3    H178526   2.866   0.401  10.368  0.4625  3.9199 -0.4873
19037TIP3    H278527   2.728   0.400  10.430  0.5400  1.3085 -0.2514
19038TIP3   OH278528   5.314   3.383   0.424  0.6756  0.2361  0.2529
19038TIP3    H178529   5.244   3.448   0.427  0.0251 -0.4633  2.3662
19038TIP3    H278530   5.279   3.308   0.473  2.3323 -0.7357  0.0315
19039TIP3   OH278531   6.785   6.669  15.098  0.4195 -0.3396  0.7370
19039TIP3    H178532   6.760   6.650  15.188 -0.5970  0.0698  0.5575
19039TIP3    H278533   6.719   6.731  15.067  0.7991 -0.4080 -0.2584
19040TIP3   OH278534   2.981   4.094   3.363 -0.0477 -0.0429 -0.7706
19040TIP3    H178535   2.990   3.999   3.373  0.2309  0.0791  0.2876
19040TIP3    H278536   3.020   4.130   3.443  0.3019  0.9887 -1.3888
19041TIP3   OH278537   4.014   0.591   5.636 -0.0209 -0.3549  0.1877
19041TIP3    H178538   4.015   0.518   5.697 -2.2216  0.4688  1.3358
19041TIP3    H278539   4.083   0.649   5.666  1.2706 -1.5813 -0.3051
19042TIP3   OH278540   5.725   0.163  14.022 -0.3349 -0.0992 -0.2491
19042TIP3    H178541   5.768   0.078  14.035  0.6577 -0.0268 -2.6273
19042TIP3    H278542   5.650   0.160  14.082  0.1807 -2.2728  0.4060
19043TIP3   OH278543   6.097   3.818   5.255 -0.3931  0.2174 -0.0782
19043TIP3    H178544   6.051   3.838   5.173  0.1548  1.0885 -0.1769
19043TIP3    H278545   6.029   3.783   5.313 -0.9791  0.5467 -0.5614
19044TIP3   OH278546   5.003   2.148  16.988  0.5883  0.6501 -0.1281
19044TIP3    H178547   5.003   2.060  17.027  0.6860  1.4237  1.7490
19044TIP3    H278548   5.016   2.133  16.895 -0.4740 -1.3919 -0.0122
19045TIP3   OH278549   2.380   4.238   6.193  0.1991 -0.2295 -1.0189
19045TIP3    H178550   2.362   4.289   6.272  1.1617 -0.7760 -0.4213
19045TIP3    H278551   2.414   4.302   6.131 -0.7038  0.2306 -1.0559
19046TIP3   OH278552   2.338   3.527  14.231 -0.2798 -0.1203 -0.4291
19046TIP3    H178553   2.272   3.549  14.297 -2.1496 -1.5974 -1.6725
19046TIP3    H278554   2.378   3.446  14.264 -1.0517 -0.7289 -0.9237
19047TIP3   OH278555   0.759   0.874  14.182 -0.0346  0.3524  0.3183
19047TIP3    H178556   0.799   0.928  14.251  2.6215  0.2880 -1.0482
19047TIP3    H278557   0.833   0.838  14.133 -1.6687  2.0059 -3.8544
19048TIP3   OH278558   0.430   6.280  16.897 -0.6494 -0.7332  0.2687
19048TIP3    H178559   0.397   6.351  16.842 -0.0545 -0.2019  0.5721
19048TIP3    H278560   0.359   6.260  16.957 -0.9945 -0.7306 -0.1348
19049TIP3   OH278561   2.261   5.266  15.883  0.0454 -0.1676 -0.5368
19049TIP3    H178562   2.285   5.353  15.852 -0.2084  0.1266  0.0726
19049TIP3    H278563   2.344   5.217  15.881  0.7111  0.7601  1.2740
19050TIP3   OH278564   3.391   2.366  12.977 -0.1991  0.0943 -1.0366
19050TIP3    H178565   3.433   2.438  13.025 -1.1996 -0.3754  0.6049
19050TIP3    H278566   3.353   2.408  12.900 -1.1595  1.4343  0.1160
19051TIP3   OH278567   3.237   1.612   5.205 -0.3439 -0.3438  0.2859
19051TIP3    H178568   3.156   1.627   5.255 -0.5636 -0.1270 -0.1303
19051TIP3    H278569   3.234   1.520   5.180  1.1355 -1.2642  3.0825
19052TIP3   OH278570   6.433   4.486  15.373 -0.1841  0.3152 -0.4076
19052TIP3    H178571   6.483   4.404  15.368 -1.3149 -0.3311 -1.5279
19052TIP3    H278572   6.408   4.493  15.465 -0.9671 -1.1704 -0.4778
19053TIP3   OH278573   2.530   4.785   0.398  0.3617 -0.7994 -0.0717
19053TIP3    H178574   2.493   4.764   0.484 -0.9955  1.0922 -0.1225
19053TIP3    H278575   2.611   4.831   0.418 -1.3636  2.3369  0.4483
19054TIP3   OH278576   6.477   3.689  17.138  0.5831  0.3939 -0.1123
19054TIP3    H178577   6.553   3.744  17.119  0.2781  0.9174  0.1567
19054TIP3    H278578   6.510   3.625  17.202  1.0634 -0.0518 -0.7944
19055TIP3   OH278579   4.360   4.025  13.328 -0.4895  0.2821  0.0504
19055TIP3    H178580   4.412   4.027  13.248 -0.3546  0.9169  0.1462
19055TIP3    H278581   4.301   3.951  13.317 -0.0601  0.0004 -0.3758
19056TIP3   OH278582   0.053   0.993   4.608  0.1980 -0.0241  0.2673
19056TIP3    H178583   0.045   0.904   4.643 -0.3751 -0.1313 -0.1093
19056TIP3    H278584  -0.033   1.011   4.570  0.1929  0.8347  0.6716
19057TIP3   OH278585   5.075   4.680  11.573 -0.4159  0.1440 -0.5469
19057TIP3    H178586   5.162   4.675  11.613 -1.4931  0.0414  1.9909
19057TIP3    H278587   5.022   4.616  11.622 -1.5605 -1.0691 -3.1494
19058TIP3   OH278588   5.268   6.641  12.174 -0.2929 -0.1514 -0.4075
19058TIP3    H178589   5.214   6.640  12.252 -1.2066 -1.4782 -1.0315
19058TIP3    H278590   5.351   6.601  12.201 -0.7507 -0.9768 -0.2190
19059TIP3   OH278591   5.000   5.485  12.389 -0.1228  0.1243 -0.1667
19059TIP3    H178592   5.026   5.422  12.322 -1.0731 -0.6043  0.1225
19059TIP3    H278593   5.029   5.446  12.471 -1.5482 -0.4236  0.1049
19060TIP3   OH278594   0.269   1.536   1.817  0.1506  0.2713  0.0831
19060TIP3    H178595   0.310   1.571   1.738 -0.3097 -0.1110 -0.3298
19060TIP3    H278596   0.179   1.567   1.813  0.1086  0.1968  0.4258
19061TIP3   OH278597   6.735   0.527  14.981 -0.4642 -0.0769  0.1983
19061TIP3    H178598   6.662   0.575  15.020  0.0379 -0.3255  1.5185
19061TIP3    H278599   6.811   0.549  15.036  0.2973 -0.4279 -0.6741
19062TIP3   OH278600   3.465   2.684   3.756 -0.1829  0.2623  0.1401
19062TIP3    H178601   3.483   2.703   3.664  1.7396 -1.4940  0.0638
19062TIP3    H278602   3.545   2.710   3.802 -1.2497  1.4454  1.3979
19063TIP3   OH278603   5.946   3.958   5.894 -0.1953  0.4382  0.2498
19063TIP3    H178604   5.990   3.884   5.935  0.3330  1.1257  0.9512
19063TIP3    H278605   5.976   4.035   5.943 -0.1800  1.2006 -0.9079
19064TIP3   OH278606   3.262   2.243   3.825  0.0821 -0.2659  0.0981
19064TIP3    H178607   3.274   2.249   3.730  0.5734  1.6221  0.2381
19064TIP3    H278608   3.196   2.310   3.845 -0.0749 -0.7013  1.0964
19065TIP3   OH278609   0.900   2.967  15.613 -0.4761  0.0128 -0.2118
19065TIP3    H178610   0.967   2.955  15.680 -2.4150 -0.3301  1.8222
19065TIP3    H278611   0.839   3.031  15.651 -0.8616  1.0043 -2.3501
19066TIP3   OH278612   5.041   6.111  12.938  0.2661 -0.1860  0.6186
19066TIP3    H178613   5.012   6.108  13.030 -0.5319 -2.0592  0.3614
19066TIP3    H278614   5.124   6.064  12.938 -0.2784 -1.2009  0.2548
19067TIP3   OH278615   1.615   2.614  16.173  0.0184 -0.1946 -0.4513
19067TIP3    H178616   1.627   2.655  16.087  0.6991  1.5018  0.4121
19067TIP3    H278617   1.630   2.684  16.236 -1.0810 -1.2428  1.0703
19068TIP3   OH278618   2.271   5.085   5.537  0.2659 -0.3502  0.0959
19068TIP3    H178619   2.309   5.100   5.624 -1.0222 -1.2478  0.8616
19068TIP3    H278620   2.267   5.172   5.497 -1.4499  0.5456  1.9704
19069TIP3   OH278621   3.140   4.794   1.814  0.4757 -0.0203 -0.1748
19069TIP3    H178622   3.081   4.858   1.851  0.5056  0.2129 -0.5213
19069TIP3    H278623   3.227   4.818   1.847  0.4047 -0.2567  0.1914
19070TIP3   OH278624   5.925   5.104   5.011 -0.1374 -0.0465  0.1073
19070TIP3    H178625   5.969   5.026   5.045  1.4556  0.5537 -0.4732
19070TIP3    H278626   5.986   5.139   4.946 -1.8657  0.3715 -1.3642
19071TIP3   OH278627   5.383   1.960  11.484 -0.3813  0.0791  0.4206
19071TIP3    H178628   5.445   2.032  11.490  0.4638 -0.6613  0.8291
19071TIP3    H278629   5.392   1.914  11.568 -1.4167 -0.0916  0.4484
19072TIP3   OH278630   4.923   6.386  15.241 -0.0088 -0.3275  0.9556
19072TIP3    H178631   4.900   6.304  15.198 -0.2383  0.8556 -1.3260
19072TIP3    H278632   4.891   6.376  15.331 -2.0214 -1.8619  0.1425
19073TIP3   OH278633   1.423   3.257  12.678  0.3505 -0.3157  0.0902
19073TIP3    H178634   1.357   3.189  12.692  0.4145 -0.3223  0.3652
19073TIP3    H278635   1.378   3.325  12.627  0.7563 -1.3398 -1.7514
19074TIP3   OH278636   3.492   6.027  13.082 -0.1552 -0.2627  0.2787
19074TIP3    H178637   3.502   6.004  12.990  1.2967 -0.3175  0.4304
19074TIP3    H278638   3.481   5.942  13.127 -1.2735 -0.2129  0.1339
19075TIP3   OH278639   1.221   2.859   4.043 -0.1235 -0.2562 -0.0355
19075TIP3    H178640   1.271   2.777   4.043 -0.5527 -0.5143 -0.2752
19075TIP3    H278641   1.233   2.894   3.955 -1.2940 -0.8865 -0.4693
19076TIP3   OH278642   3.747   5.642  15.869  0.0453 -0.4543 -0.3057
19076TIP3    H178643   3.717   5.677  15.785  1.3916  0.3462 -0.4753
19076TIP3    H278644   3.788   5.559  15.847 -0.8838 -0.9578 -0.2240
19077TIP3   OH278645   4.778   0.161   2.840  0.3535  0.3026  0.1129
19077TIP3    H178646   4.818   0.123   2.918 -0.9806 -1.0666  0.1650
19077TIP3    H278647   4.696   0.200   2.872  0.1862  0.4388 -0.4710
19078TIP3   OH278648   6.273   0.133   0.964 -0.8164 -0.2783  0.0406
19078TIP3    H178649   6.184   0.156   0.938 -1.1776  0.0552  1.4886
19078TIP3    H278650   6.326   0.209   0.940 -0.7423 -0.7674 -1.5117
19079TIP3   OH278651   5.268   5.480   6.221  0.5841  0.0629  0.0605
19079TIP3    H178652   5.353   5.436   6.219  0.9493  0.7273  0.5451
19079TIP3    H278653   5.250   5.503   6.130 -0.0413 -1.8571 -0.3494
19080TIP3   OH278654   0.672   0.783  12.539  0.5725  0.4718  0.0088
19080TIP3    H178655   0.743   0.721  12.557  0.4105  0.9090  2.6164
19080TIP3    H278656   0.592   0.732  12.553  0.4087  0.6402 -0.3050
19081TIP3   OH278657   6.195   2.642  11.248  0.2665  0.1314 -0.0707
19081TIP3    H178658   6.106   2.671  11.230 -0.0051 -0.6304  0.0011
19081TIP3    H278659   6.239   2.646  11.163 -0.0756 -0.2933 -0.2706
19082TIP3   OH278660   3.167   4.515  15.247 -0.2076  0.2741 -0.0131
19082TIP3    H178661   3.089   4.554  15.286 -0.3300 -0.9466  1.0151
19082TIP3    H278662   3.147   4.511  15.153 -1.2584  0.2728  0.1937
19083TIP3   OH278663   4.107   6.299  11.354 -0.0602 -0.5426 -0.4384
19083TIP3    H178664   4.136   6.217  11.393  1.1938  1.8861  4.4576
19083TIP3    H278665   4.030   6.325  11.404 -1.0330  0.9074 -2.5108
19084TIP3   OH278666   0.117   0.290   1.485 -0.2233 -0.2381 -0.2162
19084TIP3    H178667   0.065   0.319   1.560 -1.7888 -1.0774 -0.9185
19084TIP3    H278668   0.207   0.315   1.507 -0.6412 -0.3289  1.8733
19085TIP3   OH278669   3.645   4.381   2.285 -0.0320  0.1869 -0.4336
19085TIP3    H178670   3.586   4.407   2.214  0.7887  0.4932 -1.0212
19085TIP3    H278671   3.588   4.371   2.361 -0.8061  0.7041 -0.9294
19086TIP3   OH278672   2.284   0.289   0.173  0.1322  0.4969  0.5225
19086TIP3    H178673   2.220   0.238   0.122 -0.1073 -1.1321  2.3403
19086TIP3    H278674   2.317   0.227   0.238  1.7965  1.9944  1.1667
19087TIP3   OH278675   3.033   5.602  13.801 -0.1979 -0.1287 -0.5955
19087TIP3    H178676   2.982   5.554  13.736  0.3271 -2.3956  0.5920
19087TIP3    H278677   2.970   5.664  13.838 -0.8286  0.3453 -2.3379
19088TIP3   OH278678   5.671   5.245   1.640 -0.2015 -0.0787  0.3856
19088TIP3    H178679   5.687   5.221   1.548  0.8960  0.1681  0.4918
19088TIP3    H278680   5.743   5.204   1.688  2.3136  3.8321  0.4695
19089TIP3   OH278681   2.832   0.397  14.599  0.2399  0.2238 -0.5082
19089TIP3    H178682   2.882   0.333  14.548  0.2459  1.2762 -1.8796
19089TIP3    H278683   2.749   0.405  14.551 -0.4057  0.0608  0.5603
19090TIP3   OH278684   1.824   5.940  16.840 -0.0654 -0.0599 -0.0047
19090TIP3    H178685   1.855   5.984  16.919 -0.6755 -2.0851  1.4483
19090TIP3    H278686   1.902   5.896  16.805  0.0713  0.3162 -0.1760
19091TIP3   OH278687   5.657   4.686  16.665 -0.6221  0.4551 -1.0818
19091TIP3    H178688   5.601   4.698  16.742 -1.4974 -0.8529 -1.4889
19091TIP3    H278689   5.627   4.605  16.625  0.6867  0.4232 -2.0882
19092TIP3   OH278690   2.430   4.899   4.030 -0.6851  0.3314 -0.3037
19092TIP3    H178691   2.371   4.958   4.077  0.3244 -0.5463  2.2380
19092TIP3    H278692   2.378   4.868   3.955 -1.4547  3.8266 -1.3926
19093TIP3   OH278693   1.266   3.962  16.661  0.3436  0.0313  0.0260
19093TIP3    H178694   1.261   4.058  16.668 -0.8663 -0.1383  3.5366
19093TIP3    H278695   1.358   3.942  16.674  0.8516  0.6846 -2.1046
19094TIP3   OH278696   4.888   0.997   4.893 -0.1598 -0.2968 -0.5263
19094TIP3    H178697   4.952   0.999   4.821  0.7957  1.3669  0.2967
19094TIP3    H278698   4.818   1.055   4.863  0.4252  0.7154  0.0055
19095TIP3   OH278699   5.224   6.739   2.600  0.1916 -0.0972 -0.5774
19095TIP3    H178700   5.211   6.774   2.689 -1.4289  1.0218 -1.2058
19095TIP3    H278701   5.148   6.683   2.585  0.9374 -1.0403 -0.9404
19096TIP3   OH278702   1.993   2.219  16.249 -0.3452 -0.2405 -0.0382
19096TIP3    H178703   2.060   2.204  16.183  0.0591 -1.5283  0.6376
19096TIP3    H278704   1.911   2.228  16.200  0.4104  2.5448 -0.9814
19097TIP3   OH278705   3.114   1.467  12.591 -0.1607  0.0060 -0.0295
19097TIP3    H178706   3.135   1.377  12.616 -1.3319  0.1601  1.6817
19097TIP3    H278707   3.145   1.520  12.664 -1.6553  0.7277  0.1106
19098TIP3   OH278708   2.077   1.548  12.755 -0.1894  0.1100  0.2100
19098TIP3    H178709   2.050   1.467  12.714 -1.1394 -0.6371  2.1808
19098TIP3    H278710   2.010   1.566  12.820  1.2386  1.1681  1.4830
19099TIP3   OH278711   1.302   6.560  11.217  0.3388 -0.9828 -0.0034
19099TIP3    H178712   1.303   6.468  11.243  0.6400 -0.7302  0.8886
19099TIP3    H278713   1.252   6.604  11.285  1.1538 -0.3107  0.1680
19100TIP3   OH278714   1.274   1.515   3.384 -0.8800  0.2532  0.2388
19100TIP3    H178715   1.309   1.558   3.462 -0.4398  1.1018 -0.4081
19100TIP3    H278716   1.302   1.424   3.392  3.1727  1.1793 -1.1134
19101TIP3   OH278717   1.677   5.380  14.130 -0.3203 -0.0977 -0.2997
19101TIP3    H178718   1.687   5.466  14.089 -0.4498 -1.5693 -3.7561
19101TIP3    H278719   1.583   5.363  14.128 -0.3818 -0.0710  1.0894
19102TIP3   OH278720   0.068   1.937  14.360 -0.0553  0.2451  0.8104
19102TIP3    H178721   0.142   1.881  14.341 -0.8457 -0.6037  0.1718
19102TIP3    H278722   0.055   1.928  14.455  0.0314 -0.3808  0.7639
19103TIP3   OH278723   3.385   5.064  15.927 -0.3755  0.2158 -0.2682
19103TIP3    H178724   3.295   5.061  15.892 -1.2738  1.9067  1.6944
19103TIP3    H278725   3.375   5.101  16.014  1.9296 -2.3750  1.2488
19104TIP3   OH278726   1.973   3.018   1.585 -0.1355 -0.1484  0.4043
19104TIP3    H178727   2.062   3.045   1.562  0.5757  1.3009  4.1018
19104TIP3    H278728   1.985   2.947   1.648 -1.5479  0.2340  1.1615
19105TIP3   OH278729   0.276   3.371  11.113  0.0514 -0.4162  0.1160
19105TIP3    H178730   0.280   3.413  11.027 -2.2475 -1.1425 -0.4281
19105TIP3    H278731   0.330   3.293  11.103  1.5170  0.5722  0.0372
19106TIP3   OH278732   1.498   1.218  15.632  0.0811 -0.0281 -0.3705
19106TIP3    H178733   1.568   1.164  15.669  1.2373  0.6449 -1.5087
19106TIP3    H278734   1.448   1.157  15.577  1.1735 -0.0460 -1.3771
19107TIP3   OH278735   5.248   1.000  14.858 -0.3541 -0.1157 -0.5688
19107TIP3    H178736   5.159   1.032  14.871 -0.9234 -2.1582  1.2919
19107TIP3    H278737   5.293   1.021  14.940  0.6640  0.2085 -1.1982
19108TIP3   OH278738   4.691   1.633   5.896  0.3576 -0.0473 -0.2075
19108TIP3    H178739   4.659   1.544   5.885 -2.8382  1.1523 -2.0601
19108TIP3    H278740   4.640   1.669   5.968  0.7822  0.6287 -0.2254
19109TIP3   OH278741   3.283   0.069  11.998 -0.5795 -0.2986 -0.2280
19109TIP3    H178742   3.306  -0.020  12.026 -0.9515  0.0377  1.2726
19109TIP3    H278743   3.207   0.092  12.051  0.1246  1.2845  0.1788
19110TIP3   OH278744   0.398   5.284   5.255  0.0398 -0.5193  0.2994
19110TIP3    H178745   0.367   5.219   5.192 -1.3342 -2.2318  2.6134
19110TIP3    H278746   0.421   5.234   5.333 -0.7766  1.7214  2.0821
19111TIP3   OH278747   5.160   6.598  16.918  0.0051 -0.0851 -0.3213
19111TIP3    H178748   5.081   6.573  16.965  0.0039  1.1287  0.3419
19111TIP3    H278749   5.207   6.515  16.905  0.1037 -0.4420  1.9930
19112TIP3   OH278750   0.516   2.177   0.872 -0.2188 -0.1793 -0.3108
19112TIP3    H178751   0.610   2.199   0.873 -0.5256  1.4746 -2.3416
19112TIP3    H278752   0.514   2.082   0.867  1.3333 -0.2866  0.4079
19113TIP3   OH278753   6.522   4.994   1.700 -0.0554  0.0270 -0.3719
19113TIP3    H178754   6.496   4.918   1.649  0.0965 -1.1727  1.2518
19113TIP3    H278755   6.449   5.056   1.690 -0.1424 -0.2715 -1.7787
19114TIP3   OH278756   4.802   1.539   3.297 -0.0002  0.1455 -0.3240
19114TIP3    H178757   4.791   1.610   3.361  0.0337  0.4293 -0.6309
19114TIP3    H278758   4.809   1.584   3.213  1.0143 -0.1581 -0.4144
19115TIP3   OH278759   2.517   4.225  17.084 -0.2947  0.2601  0.3453
19115TIP3    H178760   2.490   4.241  17.174  0.6709  0.8097  0.5460
19115TIP3    H278761   2.612   4.217  17.087 -0.3280 -0.6829 -0.4937
19116TIP3   OH278762   2.278   2.087  11.551  0.1448 -0.3008  1.1646
19116TIP3    H178763   2.305   2.174  11.523 -2.0346 -0.0123 -0.3485
19116TIP3    H278764   2.219   2.103  11.624 -0.5347 -0.4461  0.6613
19117TIP3   OH278765   3.699   2.369  13.806  0.8425  0.1570  0.2788
19117TIP3    H178766   3.681   2.305  13.737 -0.6631 -0.0615  0.8415
19117TIP3    H278767   3.668   2.452  13.771  2.0022  0.4492 -0.1075
19118TIP3   OH278768   5.344   4.767   1.515 -0.1226 -0.0357  0.7992
19118TIP3    H178769   5.405   4.822   1.465  0.7836 -1.0122  0.7891
19118TIP3    H278770   5.258   4.805   1.497  0.1596 -0.3196 -1.5252
19119TIP3   OH278771   4.464   1.376  15.868  0.4577 -0.9935  0.1324
19119TIP3    H178772   4.426   1.347  15.785 -1.8251  1.5380  0.1803
19119TIP3    H278773   4.396   1.359  15.933  0.7504  0.4281  0.8412
19120TIP3   OH278774   0.371   2.967  11.367  0.2123 -0.1360 -0.0662
19120TIP3    H178775   0.428   2.911  11.420  0.6046  0.2059 -0.1141
19120TIP3    H278776   0.432   3.027  11.324 -0.1375 -0.1653 -0.6029
19121TIP3   OH278777   4.933   0.936   5.170  0.1506 -0.6966 -0.1413
19121TIP3    H178778   4.855   0.955   5.117  1.2538  0.8672 -1.3030
19121TIP3    H278779   4.968   1.022   5.192  2.8999 -1.3042 -1.7481
19122TIP3   OH278780   5.765   1.345   0.383 -0.5002  0.1638 -0.1959
19122TIP3    H178781   5.754   1.301   0.299 -0.9844  1.0637 -0.6279
19122TIP3    H278782   5.770   1.438   0.360 -1.5232  0.4911  0.8295
19123TIP3   OH278783   1.172   2.682  16.399 -0.1985 -0.6288 -0.2164
19123TIP3    H178784   1.231   2.750  16.431 -1.6124  0.3719  0.4023
19123TIP3    H278785   1.172   2.693  16.304  1.2604 -1.2279 -0.3047
19124TIP3   OH278786   3.987   6.516   0.598 -0.3841  0.2145  0.3357
19124TIP3    H178787   3.900   6.554   0.592 -0.0939  0.7543 -0.7356
19124TIP3    H278788   4.027   6.558   0.675 -1.0055  0.0800  0.7338
19125TIP3   OH278789   4.418   5.908  15.715  0.3914 -0.5582  0.0950
19125TIP3    H178790   4.428   5.998  15.744 -2.5796  0.0381 -0.4023
19125TIP3    H278791   4.506   5.881  15.690  1.5291  1.8546  1.1342
19126TIP3   OH278792   5.292   4.217  15.124  0.0146  0.6674  0.0744
19126TIP3    H178793   5.383   4.188  15.129  0.8078  2.3887 -2.3743
19126TIP3    H278794   5.297   4.312  15.127 -1.8095  0.7825  0.7128
19127TIP3   OH278795   1.014   3.928  11.519 -0.2310 -0.1151  0.0926
19127TIP3    H178796   0.981   4.016  11.500  0.7661 -0.0328 -1.3996
19127TIP3    H278797   0.937   3.872  11.513 -0.6250  0.4633 -0.4266
19128TIP3   OH278798   2.935   2.656  14.782 -0.6761 -0.0830 -0.5487
19128TIP3    H178799   3.012   2.691  14.737 -0.0006 -1.1812 -0.2889
19128TIP3    H278800   2.947   2.684  14.874 -0.6539 -0.1541 -0.5308
19129TIP3   OH278801   3.126   2.708   0.934 -0.0642 -0.6617 -0.7360
19129TIP3    H178802   3.178   2.629   0.919 -0.0915 -1.3093  2.0481
19129TIP3    H278803   3.105   2.705   1.027  0.0441  2.7340 -0.4983
19130TIP3   OH278804   1.236   3.992  11.183  0.3725  0.0220 -0.6237
19130TIP3    H178805   1.216   4.054  11.253 -0.8977 -0.1384 -0.8173
19130TIP3    H278806   1.212   3.906  11.220 -2.5755  0.1365 -1.9776
19131TIP3   OH278807   5.834   6.518   3.522  0.4706  0.1869 -0.4112
19131TIP3    H178808   5.750   6.554   3.493  0.3874 -0.1302 -0.5621
19131TIP3    H278809   5.858   6.455   3.454  0.9111  0.3971 -0.4503
19132TIP3   OH278810   4.053   1.628   2.389  0.0892  0.3673 -0.4082
19132TIP3    H178811   3.964   1.662   2.398 -0.1876 -0.5252  0.3430
19132TIP3    H278812   4.052   1.544   2.434  1.5619  0.7694  0.4603
19133TIP3   OH278813   6.603   2.612  11.651 -0.6667  0.2115  0.0803
19133TIP3    H178814   6.549   2.536  11.633 -0.1879  0.0313 -0.6551
19133TIP3    H278815   6.597   2.624  11.745  2.8749 -3.5332  1.0555
19134TIP3   OH278816   6.229   3.027  12.263 -0.4435 -0.2914  0.2885
19134TIP3    H178817   6.288   3.102  12.259 -2.5042  1.6040  2.5057
19134TIP3    H278818   6.201   3.013  12.173  1.6961  0.1054 -0.4929
19135TIP3   OH278819   6.746   3.866   4.136  0.2167  0.3921 -0.5717
19135TIP3    H178820   6.763   3.915   4.217 -1.2354 -0.5314  0.3318
19135TIP3    H278821   6.789   3.919   4.068  0.6090  1.7352  0.6437
19136TIP3   OH278822   3.093   3.297  12.702  0.0349  0.3080 -0.0485
19136TIP3    H178823   3.012   3.305  12.652 -0.3445 -4.1717 -0.5675
19136TIP3    H278824   3.157   3.261  12.640  1.4193  0.4740  1.2097
19137TIP3   OH278825   6.053   0.374   5.221 -0.1491 -0.2230  0.6225
19137TIP3    H178826   6.054   0.342   5.312 -1.0277 -1.1785  0.3121
19137TIP3    H278827   6.029   0.466   5.229  4.2454  1.0729  1.6872
19138TIP3   OH278828   4.816   2.951  11.378 -0.9857 -0.0035  0.0212
19138TIP3    H178829   4.898   2.911  11.409 -1.7712 -0.7445  1.1843
19138TIP3    H278830   4.799   3.022  11.440 -1.4049 -0.0696 -0.0183
19139TIP3   OH278831   0.663   1.364   6.009  0.0726  1.0355 -0.9728
19139TIP3    H178832   0.755   1.342   5.992 -0.5025 -2.7938 -0.1703
19139TIP3    H278833   0.621   1.362   5.923  0.4367  0.8883 -1.1487
19140TIP3   OH278834   1.397   0.061  15.475  0.1552  0.3971  0.8097
19140TIP3    H178835   1.305   0.035  15.470  0.1703  0.5966 -1.5851
19140TIP3    H278836   1.445  -0.021  15.482 -0.1606  0.2139  0.8189
19141TIP3   OH278837   2.386   3.984   0.874 -0.6763  0.2677  0.1424
19141TIP3    H178838   2.329   3.932   0.817 -0.3078 -0.0949  0.1031
19141TIP3    H278839   2.425   3.921   0.933  1.2459  0.1895 -1.1113
19142TIP3   OH278840   3.140   1.510   2.247  0.6049 -0.1155  0.3929
19142TIP3    H178841   3.129   1.501   2.152 -0.9879  1.9956  0.3175
19142TIP3    H278842   3.086   1.585   2.271  3.4183  1.3866  2.5303
19143TIP3   OH278843   5.410   1.406  14.131  0.2787 -0.2822  0.8799
19143TIP3    H178844   5.498   1.395  14.094  0.4621  1.0060  0.9172
19143TIP3    H278845   5.365   1.324  14.108  0.7588 -0.0182 -1.1963
19144TIP3   OH278846   3.945   5.562   5.016  0.2983  0.5006 -0.3225
19144TIP3    H178847   4.023   5.547   4.962  0.9550  1.0361  0.4574
19144TIP3    H278848   3.941   5.485   5.073  1.0196  1.0760  0.5276
19145TIP3   OH278849   6.332   5.046   0.816 -0.2282 -0.6671  0.0042
19145TIP3    H178850   6.295   4.981   0.876 -0.3500 -0.1861  0.4549
19145TIP3    H278851   6.386   5.102   0.871 -2.5402  1.5151  0.2294
19146TIP3   OH278852   3.172   1.185  12.929 -0.1739 -0.0603  0.2538
19146TIP3    H178853   3.106   1.128  12.971 -1.5760  0.5950 -0.9640
19146TIP3    H278854   3.153   1.179  12.836  0.6322  1.2119 -0.0186
19147TIP3   OH278855   5.363   2.125  15.614 -0.7129 -1.1278  0.8632
19147TIP3    H178856   5.410   2.189  15.562 -1.5430  1.2783  2.8777
19147TIP3    H278857   5.274   2.125  15.579 -0.7009 -1.2670  0.8293
19148TIP3   OH278858   6.414   2.200   0.620 -0.1032 -0.1043  0.0160
19148TIP3    H178859   6.399   2.244   0.536  0.8342  0.7083  0.2663
19148TIP3    H278860   6.340   2.227   0.675 -0.0329  0.4065 -0.1367
19149TIP3   OH278861   0.040   4.080  16.633 -0.2502  0.0119 -0.0988
19149TIP3    H178862   0.043   4.055  16.725 -0.8874  0.4952  0.0605
19149TIP3    H278863  -0.035   4.033  16.597  0.4740 -0.8073 -0.5728
19150TIP3   OH278864   0.674   5.482  16.333 -0.7178  0.1646  0.4736
19150TIP3    H178865   0.637   5.504  16.418  0.0223  0.3484  0.7518
19150TIP3    H278866   0.606   5.429  16.290 -0.9299 -0.2709  1.3331
19151TIP3   OH278867   0.251   4.545   1.655  0.3603 -0.4562 -0.2587
19151TIP3    H178868   0.212   4.517   1.573 -0.5544 -0.8455  0.2911
19151TIP3    H278869   0.252   4.640   1.651 -1.8565 -0.3659  0.2250
19152TIP3   OH278870   5.002   3.310  13.756 -0.8940 -0.3703  0.4038
19152TIP3    H178871   5.032   3.220  13.743 -1.2910 -0.2586 -1.7252
19152TIP3    H278872   4.908   3.301  13.773 -0.6719 -0.4234  1.6457
19153TIP3   OH278873   3.546   4.875  15.436  0.2708 -0.2441  0.1227
19153TIP3    H178874   3.473   4.813  15.430 -0.8033  1.0139 -0.4461
19153TIP3    H278875   3.611   4.842  15.374 -0.5259 -0.5045 -0.5894
19154TIP3   OH278876   4.372   3.609   3.982  0.0715 -0.6019 -0.1860
19154TIP3    H178877   4.286   3.570   3.992 -0.8755  1.4466  0.1807
19154TIP3    H278878   4.415   3.597   4.067 -0.9365  0.7469  0.5495
19155TIP3   OH278879   1.843   5.504  12.086  0.1391 -0.1438  0.1585
19155TIP3    H178880   1.905   5.564  12.130 -0.9966  0.1317  1.4410
19155TIP3    H278881   1.826   5.436  12.150  1.0714 -1.6573 -1.1369
19156TIP3   OH278882   5.093   0.334   2.289 -0.1934  0.3550  0.0869
19156TIP3    H178883   5.099   0.240   2.275  0.0651  0.2137  1.1090
19156TIP3    H278884   5.010   0.346   2.335 -0.4640  0.6888 -0.4724
19157TIP3   OH278885   4.263   2.926  11.638 -0.1218  0.4599 -0.1477
19157TIP3    H178886   4.349   2.900  11.606 -0.2805  0.2185 -0.3819
19157TIP3    H278887   4.235   2.995  11.578  0.0517  0.7836  0.1337
19158TIP3   OH278888   0.736   4.330   5.138  0.1909 -0.2851  0.2046
19158TIP3    H178889   0.798   4.399   5.159 -1.6170  0.7859  2.4520
19158TIP3    H278890   0.753   4.262   5.204 -0.4114 -0.3875  0.2564
19159TIP3   OH278891   4.710   1.713  10.542 -0.0425  0.1563 -0.1920
19159TIP3    H178892   4.615   1.719  10.528 -0.3206  2.4317  1.9108
19159TIP3    H278893   4.721   1.641  10.605 -0.5444  0.6777  0.5125
19160TIP3   OH278894   0.122   2.869   0.780  0.2717  0.2800 -0.4172
19160TIP3    H178895   0.166   2.898   0.700 -1.2791  1.3516 -0.9132
19160TIP3    H278896   0.037   2.837   0.751  0.5829 -1.5821  0.5527
19161TIP3   OH278897   2.295   0.080  13.893  0.4753 -0.0973  0.1447
19161TIP3    H178898   2.236   0.005  13.883  0.9410 -0.3519 -0.8315
19161TIP3    H278899   2.314   0.084  13.986  0.0677 -0.9058  0.2694
19162TIP3   OH278900   4.826   3.255   3.271 -0.4716  0.0324 -0.0864
19162TIP3    H178901   4.809   3.287   3.183 -0.9449  1.2163  0.4122
19162TIP3    H278902   4.799   3.327   3.328 -1.3724 -1.1858  1.0789
19163TIP3   OH278903   4.563   4.154   2.905 -0.0842  0.1371  0.0852
19163TIP3    H178904   4.575   4.203   2.824 -0.7181 -0.0896 -0.1510
19163TIP3    H278905   4.623   4.079   2.896  1.4469  1.2314  0.7768
19164TIP3   OH278906   0.887   6.231  16.082 -0.0907  0.1829  0.4265
19164TIP3    H178907   0.926   6.306  16.128  0.3251 -0.8749  1.8627
19164TIP3    H278908   0.898   6.158  16.142 -0.1802 -1.1251 -1.0989
19165TIP3   OH278909   3.265   0.062   5.711 -0.2020 -0.3964  0.1663
19165TIP3    H178910   3.214   0.023   5.640 -1.7573 -1.6213  1.8695
19165TIP3    H278911   3.219   0.036   5.791  0.9537  1.7151  1.6038
19166TIP3   OH278912   5.096   1.833  13.244  0.0428 -0.5957  0.3590
19166TIP3    H178913   5.162   1.876  13.190  0.1040  0.5071  1.2693
19166TIP3    H278914   5.129   1.743  13.255 -0.2527 -1.0297 -1.8448
19167TIP3   OH278915   5.534   1.839  16.423 -0.1445 -0.5550  0.4462
19167TIP3    H178916   5.490   1.880  16.498  0.0752  1.9633 -0.6960
19167TIP3    H278917   5.497   1.883  16.347  0.9828 -1.7159 -0.8194
19168TIP3   OH278918   2.207   6.773  12.180  0.6474  0.0307 -0.3673
19168TIP3    H178919   2.144   6.829  12.227  0.1062  0.2390 -1.3059
19168TIP3    H278920   2.255   6.834  12.124  1.3917 -0.1941  0.0246
19169TIP3   OH278921   5.082   4.948  16.954  0.3335 -0.1930  0.3507
19169TIP3    H178922   5.095   4.868  16.904  1.5195  1.1426 -1.6612
19169TIP3    H278923   5.170   4.979  16.974 -0.0242  1.2866 -0.1569
19170TIP3   OH278924   3.081   3.942   4.340 -0.0170  0.2423 -0.5900
19170TIP3    H178925   3.008   3.884   4.361  0.4187 -0.8285 -1.8625
19170TIP3    H278926   3.060   4.024   4.384 -1.4801 -0.3510 -0.1082
19171TIP3   OH278927   2.997   4.422  16.838  0.0312 -0.0294  0.0423
19171TIP3    H178928   3.038   4.508  16.829 -1.8746  1.0135  0.8285
19171TIP3    H278929   3.012   4.398  16.930  0.7324 -0.6504 -0.2256
19172TIP3   OH278930   0.584   0.568  12.329 -0.2633  0.4179  0.2405
19172TIP3    H178931   0.540   0.614  12.258  0.9208  1.6273  0.2526
19172TIP3    H278932   0.677   0.586  12.315  0.0154  0.3697  1.8611
19173TIP3   OH278933   5.133   2.748  14.659  0.0991 -0.6481 -0.2183
19173TIP3    H178934   5.204   2.812  14.668 -0.0387 -0.2197 -1.7624
19173TIP3    H278935   5.115   2.719  14.748  0.7719  0.8015  0.4234
19174TIP3   OH278936   5.131   2.892   2.031 -0.3115  0.1942 -0.1675
19174TIP3    H178937   5.137   2.975   1.984  1.0031 -0.3078 -0.9533
19174TIP3    H278938   5.073   2.910   2.106 -1.6180  1.2872 -1.3834
19175TIP3   OH278939   0.698   1.103  13.589  0.4149  0.2655 -0.5205
19175TIP3    H178940   0.629   1.169  13.579  0.4621  0.9794  2.6595
19175TIP3    H278941   0.774   1.153  13.619  1.0530 -1.0006  0.0218
19176TIP3   OH278942   0.392   0.457  15.321 -0.2029 -0.2302 -0.1391
19176TIP3    H178943   0.411   0.373  15.363 -0.0129 -0.5398 -0.8361
19176TIP3    H278944   0.469   0.510  15.338 -1.5161  0.8994  2.9499
19177TIP3   OH278945   5.147   0.832   1.605 -0.5803  0.2912 -0.1678
19177TIP3    H178946   5.052   0.839   1.590 -0.4992  1.3256 -0.2723
19177TIP3    H278947   5.182   0.916   1.577  0.1102  0.7400  1.9016
19178TIP3   OH278948   1.938   1.788   5.271  0.0328  0.0107  0.1829
19178TIP3    H178949   1.894   1.754   5.348 -0.1576 -1.5198 -0.5699
19178TIP3    H278950   2.029   1.801   5.299 -0.2957  0.6197  0.9868
19179TIP3   OH278951   6.680   4.020  11.563 -0.0195  0.3536 -0.1518
19179TIP3    H178952   6.590   4.038  11.535 -0.3729 -1.2334 -0.0965
19179TIP3    H278953   6.718   4.107  11.579 -1.8261  1.0267  0.7498
19180TIP3   OH278954   6.677   1.868  14.857 -0.1958  0.7379 -0.0427
19180TIP3    H178955   6.583   1.860  14.871 -0.0217  1.2088  1.5784
19180TIP3    H278956   6.707   1.924  14.929  1.2349  1.0803 -0.8788
19181TIP3   OH278957   1.750   4.477  16.186  0.5621  0.1576 -0.2111
19181TIP3    H178958   1.808   4.400  16.184  0.5937  0.1496  0.8089
19181TIP3    H278959   1.809   4.551  16.200  0.3464  0.1633  0.7021
19182TIP3   OH278960   5.183   1.810   3.862 -0.8418 -0.0095  0.1395
19182TIP3    H178961   5.199   1.901   3.837 -1.3297 -0.1923 -0.9083
19182TIP3    H278962   5.255   1.788   3.921  0.0590  0.6314 -0.6925
19183TIP3   OH278963   1.413   1.734   1.431  0.4701  0.5833  0.2568
19183TIP3    H178964   1.393   1.823   1.401 -0.4190  0.9700  1.8730
19183TIP3    H278965   1.508   1.733   1.441  0.6246  0.9225 -1.0085
19184TIP3   OH278966   3.517   3.111  12.395  0.5138  0.2188 -0.6840
19184TIP3    H178967   3.605   3.073  12.395  0.0500 -0.9776  0.8274
19184TIP3    H278968   3.458   3.036  12.382 -0.2990  0.9419 -1.2862
19185TIP3   OH278969   4.019   4.645   5.778  0.5383 -0.4240 -0.7481
19185TIP3    H178970   4.110   4.615   5.778  1.0356  0.9578 -0.4006
19185TIP3    H278971   3.967   4.567   5.795  1.5381 -1.5455 -2.5586
19186TIP3   OH278972   3.411   1.981  14.928  0.4703  0.0745 -0.6509
19186TIP3    H178973   3.366   2.064  14.914  0.2076  0.2426  1.0179
19186TIP3    H278974   3.350   1.915  14.893 -0.3276  0.4369  0.0121
19187TIP3   OH278975   2.700   5.674  16.510 -0.0254 -0.0589 -0.2180
19187TIP3    H178976   2.735   5.679  16.421  0.8904  2.7309  0.2020
19187TIP3    H278977   2.658   5.758  16.525  2.3420  0.7496  2.9167
19188TIP3   OH278978   4.896   4.170   5.071 -0.0399  0.3398  0.4281
19188TIP3    H178979   4.991   4.167   5.075  0.1872  1.2279 -2.4076
19188TIP3    H278980   4.867   4.111   5.141  2.5468 -0.1137  1.2240
19189TIP3   OH278981   3.041   2.224  14.323 -0.7096 -0.4540  0.2841
19189TIP3    H178982   3.116   2.175  14.358 -0.3645  0.7760  1.3538
19189TIP3    H278983   2.965   2.186  14.366 -0.4605 -0.1824  0.9801
19190TIP3   OH278984   2.484   5.099   0.577 -0.1993  0.3267 -0.1598
19190TIP3    H178985   2.513   5.181   0.618 -0.4793  0.5190 -0.3435
19190TIP3    H278986   2.518   5.104   0.488 -0.4671  0.3812 -0.2611
19191TIP3   OH278987   6.759   1.451   3.774  0.8283 -0.0336  0.2439
19191TIP3    H178988   6.848   1.451   3.809  1.0969  0.6073 -0.4204
19191TIP3    H278989   6.714   1.381   3.822  1.2325  0.6807  1.7125
19192TIP3   OH278990   6.571   6.339  15.328  0.5556  0.3635  0.7590
19192TIP3    H178991   6.489   6.289  15.325 -0.0727  1.2581  2.1224
19192TIP3    H278992   6.638   6.276  15.301 -0.5615 -0.3647 -0.4537
19193TIP3   OH278993   1.729   2.216   6.732 -0.0631 -0.0498 -0.1100
19193TIP3    H178994   1.680   2.297   6.742 -0.6453 -0.3541 -0.4294
19193TIP3    H278995   1.667   2.155   6.691  0.3315 -0.6823  0.2088
19194TIP3   OH278996   4.117   5.683  16.446  0.3380  0.2184 -0.4402
19194TIP3    H178997   4.119   5.611  16.509  1.5601  0.5852 -0.0323
19194TIP3    H278998   4.049   5.659  16.383 -1.4851  0.1920  1.4236
19195TIP3   OH278999   1.496   2.500   2.255  0.0936 -0.1075 -0.4627
19195TIP3    H179000   1.559   2.562   2.291  1.4576 -1.1695 -0.9602
19195TIP3    H279001   1.512   2.502   2.160 -1.4830  0.5132 -0.7589
19196TIP3   OH279002   1.582   6.086   5.606 -0.7428 -0.3370  0.2378
19196TIP3    H179003   1.612   6.088   5.696  1.5467 -1.0527 -0.4452
19196TIP3    H279004   1.538   6.002   5.597  0.5661 -1.0570  0.2776
19197TIP3   OH279005   0.184   0.250  12.357  0.4750  1.1393  0.0778
19197TIP3    H179006   0.173   0.224  12.448 -0.8690  1.0980 -0.0785
19197TIP3    H279007   0.224   0.337  12.361  0.4661  1.1170  0.6924
19198TIP3   OH279008   5.206   6.226  15.198 -0.2177  0.0288 -0.2637
19198TIP3    H179009   5.242   6.300  15.247 -0.8486  0.1772 -0.0137
19198TIP3    H279010   5.219   6.249  15.106  5.2317 -2.2448 -0.4213
19199TIP3   OH279011   3.808   6.707   6.164  0.4861 -0.4612  0.4895
19199TIP3    H179012   3.717   6.677   6.162  0.3495 -0.0769  0.7736
19199TIP3    H279013   3.855   6.639   6.211  0.2181 -0.3392  0.9380
19200TIP3   OH279014   0.199   5.907  13.524 -0.0975  0.4610  0.2346
19200TIP3    H179015   0.226   5.833  13.580 -0.4729  0.8359  0.9244
19200TIP3    H279016   0.255   5.900  13.447  1.8586  1.0657  1.5064
19201TIP3   OH279017   3.033   1.840  15.380 -0.0168  0.0621 -0.1905
19201TIP3    H179018   3.098   1.849  15.311  0.2677 -0.7721 -0.0428
19201TIP3    H279019   2.967   1.906  15.360  0.8347  0.8815 -0.3842
19202TIP3   OH279020   6.086   6.089  13.398  0.0849  0.5005 -0.3989
19202TIP3    H179021   6.135   6.014  13.363  0.3626  0.0736  0.8383
19202TIP3    H279022   6.009   6.050  13.439  0.5375  0.8022  0.8000
19203TIP3   OH279023   0.080   6.119  16.372 -0.0895 -0.2931 -0.3380
19203TIP3    H179024  -0.014   6.108  16.359 -0.6231  0.8576  2.0993
19203TIP3    H279025   0.109   6.167  16.294 -1.5690 -0.3144 -0.9392
19204TIP3   OH279026   4.336   0.794   0.260 -0.0966 -0.2265 -0.1141
19204TIP3    H179027   4.278   0.748   0.200 -0.6703 -1.4505  1.3035
19204TIP3    H279028   4.403   0.730   0.283  0.0051  0.1445  0.6803
19205TIP3   OH279029   1.571   4.495   2.477 -0.1200 -0.4674  0.0567
19205TIP3    H179030   1.488   4.485   2.525  0.2676 -0.8062  0.6595
19205TIP3    H279031   1.566   4.430   2.407  0.0136 -1.1054  0.6282
19206TIP3   OH279032   6.227   2.350  13.228 -0.0122 -0.1183 -0.0539
19206TIP3    H179033   6.181   2.422  13.271  0.8570 -0.4355  1.4530
19206TIP3    H279034   6.311   2.345  13.272  1.0914 -0.2304 -2.0606
19207TIP3   OH279035   4.943   2.562   5.102  0.5320 -0.2156 -0.3489
19207TIP3    H179036   4.974   2.652   5.115  2.4748 -0.5263 -2.3176
19207TIP3    H279037   4.861   2.558   5.153 -1.1965  3.5404 -2.4132
19208TIP3   OH279038   2.646   2.137   2.627 -0.1332 -0.2957 -0.0420
19208TIP3    H179039   2.558   2.115   2.595 -1.0025  1.5479  0.9360
19208TIP3    H279040   2.632   2.164   2.718  1.4657  0.0174  0.1330
19209TIP3   OH279041   1.167   1.366  10.821  0.5912  0.2186 -0.4700
19209TIP3    H179042   1.112   1.395  10.748  1.3945  1.7046 -0.5196
19209TIP3    H279043   1.113   1.300  10.867 -1.4153  1.8948 -0.2629
19210TIP3   OH279044   6.075   1.673   5.049 -0.2051 -0.0466  0.3162
19210TIP3    H179045   6.087   1.601   5.110 -0.7835 -0.6825 -0.3019
19210TIP3    H279046   6.149   1.667   4.989  0.4273  0.6499  1.0102
19211TIP3   OH279047   1.019   2.679   2.203 -0.2588 -0.5153  0.4690
19211TIP3    H179048   1.114   2.667   2.202 -0.4041 -2.0767  1.6962
19211TIP3    H279049   0.984   2.591   2.199 -1.6173 -0.0758  1.7330
19212TIP3   OH279050   3.835   4.234  11.235  0.5173 -0.0272  0.7217
19212TIP3    H179051   3.917   4.186  11.232  0.4766 -0.3028  2.8943
19212TIP3    H279052   3.774   4.177  11.282 -0.5948  0.6600  0.1708
19213TIP3   OH279053   1.241   1.462  16.921 -0.7020  0.8351  0.3922
19213TIP3    H179054   1.163   1.423  16.881 -0.3958  0.9686 -0.3511
19213TIP3    H279055   1.230   1.556  16.910 -0.0240  0.8199 -0.5228
19214TIP3   OH279056   2.588   1.267  16.052 -0.0261 -1.2673 -0.4021
19214TIP3    H179057   2.528   1.278  15.979 -0.4124  1.3365  0.1928
19214TIP3    H279058   2.674   1.257  16.012 -0.3380 -0.7265 -1.2302
19215TIP3   OH279059   6.126   0.128   4.747 -0.3332  0.3852 -0.0677
19215TIP3    H179060   6.048   0.076   4.727  1.2451 -1.3700 -2.1681
19215TIP3    H279061   6.185   0.112   4.673  2.3613  0.9185  1.8166
19216TIP3   OH279062   4.614   0.980  17.020  0.1874 -0.2517  0.4419
19216TIP3    H179063   4.637   1.005  16.931 -1.6119  1.4691  0.3656
19216TIP3    H279064   4.617   1.062  17.069 -0.5831 -0.8440  1.5322
19217TIP3   OH279065   4.751   2.429   0.121  0.9021  0.1081 -0.4631
19217TIP3    H179066   4.731   2.377   0.043  0.9517 -0.0203 -0.3886
19217TIP3    H279067   4.826   2.386   0.161  1.8769  1.0533 -1.1991
19218TIP3   OH279068   3.855   5.785   3.245  0.1577 -0.0670 -0.2107
19218TIP3    H179069   3.923   5.796   3.179 -0.3946  0.2821 -0.7372
19218TIP3    H279070   3.785   5.738   3.199  0.0417 -0.4109  0.3188
19219TIP3   OH279071   6.289   0.073   4.535  0.4785 -0.0144  0.0281
19219TIP3    H179072   6.304   0.012   4.463 -0.8647 -1.6129  1.0409
19219TIP3    H279073   6.302   0.159   4.496  0.6640 -0.8612 -1.8920
19220TIP3   OH279074   4.331   2.732  11.876 -0.3759  0.2004  0.0625
19220TIP3    H179075   4.266   2.667  11.850 -0.9339  0.1402  1.4630
19220TIP3    H279076   4.406   2.681  11.906 -0.1240  0.2465 -0.4839
19221TIP3   OH279077   1.765   3.729  16.143 -0.1456  0.0785  0.1877
19221TIP3    H179078   1.748   3.781  16.065 -0.3075  1.3158  1.0272
19221TIP3    H279079   1.858   3.710  16.141 -0.2098 -0.1735 -0.4669
19222TIP3   OH279080   3.253   1.135   4.624  0.2775 -0.3326 -0.1367
19222TIP3    H179081   3.208   1.213   4.657  2.6825  0.6668  1.0456
19222TIP3    H279082   3.313   1.110   4.694  2.8307 -0.4776 -2.1908
19223TIP3   OH279083   6.347   0.349  17.137  0.3543  0.5129  0.6200
19223TIP3    H179084   6.308   0.325  17.221  0.7913  0.0117  0.6847
19223TIP3    H279085   6.272   0.359  17.079  0.1265 -1.3638  0.5040
19224TIP3   OH279086   1.740   6.116  14.248  0.1515  0.5702 -0.5165
19224TIP3    H179087   1.747   6.021  14.254  1.0550  0.5757 -1.2627
19224TIP3    H279088   1.809   6.149  14.305 -1.1986  0.8305  1.0396
19225TIP3   OH279089   5.993   6.539   2.053  0.9706  0.0384  0.3296
19225TIP3    H179090   6.042   6.587   1.987  2.3771  1.2756  2.1614
19225TIP3    H279091   5.998   6.594   2.131 -3.5994  0.4319  0.6547
19226TIP3   OH279092   2.117   5.509  17.103  0.0734 -0.6516  0.8354
19226TIP3    H179093   2.147   5.576  17.165 -0.9089  0.4035  0.2132
19226TIP3    H279094   2.023   5.502  17.119 -0.4637  0.6161 -1.3924
19227TIP3   OH279095   5.594   2.402  11.685 -0.2677  0.1063 -0.4314
19227TIP3    H179096   5.529   2.466  11.711  0.2185  0.6064 -0.4319
19227TIP3    H279097   5.664   2.453  11.645 -0.2466 -0.4982 -1.1872
19228TIP3   OH279098   1.522   0.661   0.492  0.2963  0.1791  0.3516
19228TIP3    H179099   1.601   0.618   0.526  0.7992  0.3316 -0.5741
19228TIP3    H279100   1.504   0.731   0.555  2.1900  1.5377 -0.5074
19229TIP3   OH279101   3.078   4.538  13.011  0.1596  0.0194 -0.3004
19229TIP3    H179102   3.100   4.629  12.992  0.8603 -0.1014 -0.0878
19229TIP3    H279103   2.985   4.531  12.992  0.0454  0.8487 -0.0498
19230TIP3   OH279104   3.931   6.608  16.539 -0.3106 -0.1399  0.5307
19230TIP3    H179105   3.960   6.608  16.447 -4.0487 -1.1211 -0.8516
19230TIP3    H279106   3.961   6.523  16.573  1.6974  0.5092  0.5515
19231TIP3   OH279107   3.158   0.771   0.580  0.8675 -0.2335  0.2463
19231TIP3    H179108   3.251   0.774   0.603  0.5442 -0.0300  1.6208
19231TIP3    H279109   3.116   0.731   0.656  0.2385 -4.1183 -1.8931
19232TIP3   OH279110   2.400   5.091  14.256  0.5176  0.9512  0.4314
19232TIP3    H179111   2.485   5.048  14.259  0.8504  1.6244  2.8603
19232TIP3    H279112   2.421   5.183  14.242 -0.1405  0.6562 -3.7223
19233TIP3   OH279113   1.464   4.182  10.524  0.2009  0.0131  0.3102
19233TIP3    H179114   1.441   4.096  10.559  0.7060 -0.0164  0.5733
19233TIP3    H279115   1.550   4.169  10.485  0.4130  0.4834  0.6276
19234TIP3   OH279116   5.017   6.463  16.584  0.5204 -0.2342 -0.6095
19234TIP3    H179117   4.996   6.454  16.491 -0.1497  0.4610 -0.5422
19234TIP3    H279118   5.099   6.512  16.585 -0.5612  1.6829 -0.8338
19235TIP3   OH279119   6.764   3.416  14.702 -0.2671  0.6374 -0.2407
19235TIP3    H179120   6.787   3.327  14.677  1.3857  0.4389  1.6973
19235TIP3    H279121   6.765   3.465  14.620  0.1896 -0.8430 -1.1545
19236TIP3   OH279122   1.144   1.153   1.236 -0.4838  0.3734  0.3451
19236TIP3    H179123   1.223   1.157   1.290  0.0541 -1.7486 -0.2000
19236TIP3    H279124   1.176   1.158   1.146 -0.6168 -2.7207 -0.0037
19237TIP3   OH279125   0.510   1.856   2.306  0.5517 -0.0547  0.2397
19237TIP3    H179126   0.437   1.904   2.267  0.2384  0.7343  1.7463
19237TIP3    H279127   0.585   1.878   2.251  0.2482  1.5192  0.4068
19238TIP3   OH279128   0.759   4.727   0.084 -0.7895 -0.4085  0.0853
19238TIP3    H179129   0.827   4.716   0.151 -0.3368 -0.0539 -0.3143
19238TIP3    H279130   0.803   4.708   0.002 -0.9974  0.4945 -0.2436
19239TIP3   OH279131   1.178   5.275   5.079 -0.7141 -0.3161 -0.3034
19239TIP3    H179132   1.210   5.186   5.094 -1.7322 -0.7584 -0.6301
19239TIP3    H279133   1.103   5.283   5.138 -0.7042  0.2824 -0.3705
19240TIP3   OH279134   2.772   5.294   1.282  0.5331 -0.1922 -0.4938
19240TIP3    H179135   2.824   5.372   1.262  1.9446 -1.0600 -0.3014
19240TIP3    H279136   2.836   5.224   1.294 -0.6732 -1.2733 -0.0965
19241TIP3   OH279137   2.544   2.487  10.662  0.5676 -0.2828  0.2082
19241TIP3    H179138   2.639   2.488  10.654  0.4942 -0.2686 -0.8058
19241TIP3    H279139   2.512   2.496  10.572 -0.3974 -1.8727  0.3519
19242TIP3   OH279140   3.503   6.249  17.023 -0.0600  0.1881 -0.0645
19242TIP3    H179141   3.593   6.223  17.043 -0.0117  0.3509 -0.0655
19242TIP3    H279142   3.506   6.345  17.020 -0.3940  0.2307  0.7031
19243TIP3   OH279143   2.223   5.357  14.224  0.0044  0.2288  0.0302
19243TIP3    H179144   2.135   5.362  14.262 -0.0563  1.2616 -0.2208
19243TIP3    H279145   2.229   5.268  14.190 -0.1908 -0.5143  1.8478
19244TIP3   OH279146   4.476   1.177  12.595 -0.0263 -0.3160 -0.3347
19244TIP3    H179147   4.487   1.271  12.611 -1.5655 -0.2331  0.3694
19244TIP3    H279148   4.564   1.147  12.572  0.8822  0.9505  1.2310
19245TIP3   OH279149   5.223   1.384   0.822  0.3813  0.4395 -1.0792
19245TIP3    H179150   5.213   1.356   0.913  0.9489 -2.5272 -1.8332
19245TIP3    H279151   5.317   1.375   0.804  0.1297 -0.0906 -2.2445
19246TIP3   OH279152   4.364   5.251   5.022  0.1134  0.1878 -0.3301
19246TIP3    H179153   4.412   5.212   4.948  0.2242 -0.8417  0.2675
19246TIP3    H279154   4.397   5.204   5.099 -1.4138 -0.1215  0.1609
19247TIP3   OH279155   1.230   4.392   2.845 -0.0735 -0.1213  0.0826
19247TIP3    H179156   1.190   4.306   2.835  0.5554 -0.3615 -0.4687
19247TIP3    H279157   1.304   4.378   2.904  2.2501 -0.7643 -2.7168
19248TIP3   OH279158   6.180   2.414   4.490  0.0877  0.4006 -0.3284
19248TIP3    H179159   6.195   2.503   4.455  1.7330  0.3674  0.1878
19248TIP3    H279160   6.088   2.397   4.472  0.1114  1.5868 -1.9007
19249TIP3   OH279161   1.652   1.870   0.406 -0.3565 -0.0033  0.1730
19249TIP3    H179162   1.695   1.919   0.476  0.0496  1.7568 -1.2169
19249TIP3    H279163   1.699   1.787   0.402 -0.6970 -0.3333  2.2667
19250TIP3   OH279164   4.807   6.375  14.303  0.0307  0.0359  0.9698
19250TIP3    H179165   4.800   6.300  14.243  1.6371 -0.1350  0.9651
19250TIP3    H279166   4.850   6.443  14.251 -1.1090  0.8783  1.0835
19251TIP3   OH279167   0.148   4.479   2.955  0.7887  0.1764 -0.4164
19251TIP3    H179168   0.128   4.557   3.008  0.1916 -1.4687  1.9487
19251TIP3    H279169   0.088   4.485   2.881 -0.7150  0.9734  0.7915
19252TIP3   OH279170   2.451   3.700  16.662  0.4294  0.0241 -0.5885
19252TIP3    H179171   2.528   3.645  16.652  0.7729  0.7190 -2.1470
19252TIP3    H279172   2.424   3.719  16.572  0.2063  2.2145 -0.1114
19253TIP3   OH279173   1.889   5.284   2.889  0.2167 -0.6531  0.0228
19253TIP3    H179174   1.910   5.193   2.909 -1.8567 -1.0541  0.5299
19253TIP3    H279175   1.957   5.335   2.934  1.0276 -1.9002  0.2587
19254TIP3   OH279176   4.034   0.938   3.991  0.1590 -0.5690  0.2358
19254TIP3    H179177   3.987   0.886   3.927  0.8525 -0.8498 -0.0470
19254TIP3    H279178   3.993   0.916   4.075 -2.3852  1.5626 -0.3011
19255TIP3   OH279179   0.013   3.417  15.775  0.1301 -0.9961  0.4965
19255TIP3    H179180   0.044   3.484  15.714 -0.2431  1.2364  2.6157
19255TIP3    H279181  -0.081   3.411  15.758  0.1445 -0.9010  0.3819
19256TIP3   OH279182   1.106   0.781   0.072 -0.0302 -0.4165 -0.4769
19256TIP3    H179183   1.053   0.771  -0.007 -1.1133 -3.2840  0.4501
19256TIP3    H279184   1.149   0.696   0.082  1.1694  0.3536  1.2545
19257TIP3   OH279185   3.362   6.557  13.590  0.1048 -0.6218 -0.7009
19257TIP3    H179186   3.294   6.497  13.559 -1.2796  1.2093 -1.4012
19257TIP3    H279187   3.325   6.595  13.669  0.9064 -0.5734 -0.3452
19258TIP3   OH279188   6.201   0.737   5.733 -0.6009  0.1752  0.5113
19258TIP3    H179189   6.170   0.647   5.724  0.7305 -0.3528  0.8975
19258TIP3    H279190   6.215   0.748   5.827  1.6694 -0.1291  0.2719
19259TIP3   OH279191   6.313   1.708   2.374  0.2050 -0.2351 -0.0990
19259TIP3    H179192   6.298   1.649   2.300 -0.4399  0.6021 -0.6530
19259TIP3    H279193   6.243   1.773   2.368 -0.1397 -0.4038  1.5244
19260TIP3   OH279194   6.051   5.124   2.971 -0.0997  0.1227 -0.0607
19260TIP3    H179195   6.069   5.217   2.986 -0.2460 -0.1645  2.4287
19260TIP3    H279196   6.087   5.105   2.885  1.5682  2.0879  0.1436
19261TIP3   OH279197   1.926   1.682   1.578  0.1823 -0.5555  0.0540
19261TIP3    H179198   1.950   1.645   1.663 -0.5785 -2.6407 -0.5800
19261TIP3    H279199   2.009   1.687   1.531  0.1777 -2.8999 -0.3285
19262TIP3   OH279200   6.661   3.847   5.258 -0.1907 -0.2843  0.1739
19262TIP3    H179201   6.702   3.933   5.267  1.2316 -0.7475 -1.4745
19262TIP3    H279202   6.571   3.867   5.232  0.3372  0.7396 -0.9937
19263TIP3   OH279203   3.030   0.515  11.960  0.6196  0.4166 -0.4374
19263TIP3    H179204   3.070   0.475  12.037  0.8001  0.6757 -0.3980
19263TIP3    H279205   3.064   0.463  11.886 -1.0666 -1.1017 -0.2214
19264TIP3   OH279206   5.644   2.996   5.132 -0.3249 -0.0785  0.1358
19264TIP3    H179207   5.647   2.956   5.219  0.2159 -3.0631 -1.1168
19264TIP3    H279208   5.731   3.035   5.121 -0.4318  0.4035  0.9498
19265TIP3   OH279209   5.922   3.471   2.076 -0.0057  0.2997  0.3051
19265TIP3    H179210   5.889   3.389   2.113  2.1455 -0.1148  1.4510
19265TIP3    H279211   5.884   3.475   1.988 -1.9728 -0.7427  1.0496
19266TIP3   OH279212   1.230   1.563  15.574 -0.3184 -0.6659  0.0177
19266TIP3    H179213   1.216   1.487  15.631  0.4223 -1.1483 -0.4310
19266TIP3    H279214   1.200   1.637  15.626 -2.0574 -1.3537  0.0705
19267TIP3   OH279215   2.608   3.496   0.693  0.3153 -0.5883  0.2333
19267TIP3    H179216   2.617   3.419   0.749 -0.0732  0.2121  1.4429
19267TIP3    H279217   2.662   3.563   0.736 -3.1498  1.3185  2.0646
19268TIP3   OH279218   4.298   6.300  13.472 -0.5929  0.3803  0.2477
19268TIP3    H179219   4.276   6.236  13.404  1.3248 -2.7416  2.3127
19268TIP3    H279220   4.385   6.331  13.449 -0.9761  1.2959 -0.0228
19269TIP3   OH279221   4.331   4.859   5.871  0.1233 -0.0118  0.3170
19269TIP3    H179222   4.419   4.867   5.908  0.1228  2.1421 -0.0106
19269TIP3    H279223   4.312   4.946   5.836 -1.9693 -0.5554 -0.0234
19270TIP3   OH279224   4.851   5.298  11.496  0.3387 -0.3804  0.3630
19270TIP3    H179225   4.846   5.326  11.587  0.8874  0.9696  0.0100
19270TIP3    H279226   4.923   5.350  11.459  1.1535 -2.0142 -0.4596
19271TIP3   OH279227   3.052   2.452  12.907 -0.3798 -0.1218 -0.3883
19271TIP3    H179228   3.119   2.455  12.839  1.1913  0.2320  1.0939
19271TIP3    H279229   3.024   2.543  12.918 -0.1863 -0.0859 -0.1686
19272TIP3   OH279230   0.071   2.105  17.159  0.4388 -0.4082 -0.1962
19272TIP3    H179231   0.046   2.104  17.252 -0.7051 -0.5293 -0.4918
19272TIP3    H279232   0.000   2.153  17.116  1.0909 -0.1324 -0.9805
19273TIP3   OH279233   1.454   0.718  15.862 -0.0085 -0.2951 -0.2663
19273TIP3    H179234   1.436   0.659  15.936 -0.1886 -0.5396 -0.5047
19273TIP3    H279235   1.367   0.742  15.829  0.0847 -0.8894 -0.9581
19274TIP3   OH279236   2.535   4.051   1.935 -0.1156 -0.1108 -0.3202
19274TIP3    H179237   2.548   3.962   1.901 -0.3066  0.6412 -2.5122
19274TIP3    H279238   2.573   4.048   2.023 -0.0995 -2.3470 -0.3397
19275TIP3   OH279239   4.754   3.716  12.422 -0.8298  0.0875 -0.1656
19275TIP3    H179240   4.841   3.742  12.454 -0.2756 -2.8812  1.1039
19275TIP3    H279241   4.702   3.706  12.501 -1.6303 -0.4091 -0.7485
19276TIP3   OH279242   3.973   1.827  13.416 -0.2508  0.1310 -0.1168
19276TIP3    H179243   3.935   1.851  13.501  0.7053 -1.5303  0.8364
19276TIP3    H279244   4.054   1.877  13.411 -0.3296  0.2637 -0.0716
19277TIP3   OH279245   2.804   2.809  17.041 -0.3171 -0.1085 -0.0193
19277TIP3    H179246   2.874   2.795  16.978  0.6019 -0.6945  1.0924
19277TIP3    H279247   2.735   2.749  17.014  0.7003 -1.5275  0.4412
19278TIP3   OH279248   6.553   2.203   1.705  0.1344 -0.0826 -0.4737
19278TIP3    H179249   6.512   2.289   1.704  0.4558  0.0730 -0.7405
19278TIP3    H279250   6.549   2.173   1.614  2.4029  0.8259 -0.9580
19279TIP3   OH279251   2.843   1.628   2.037  0.0338 -0.0070  0.7966
19279TIP3    H179252   2.758   1.655   2.072 -0.2682 -0.4090  0.3990
19279TIP3    H279253   2.852   1.678   1.956 -0.5299 -1.0624  0.0559
19280TIP3   OH279254   5.827   3.034  13.727 -0.1654 -0.3828 -0.2517
19280TIP3    H179255   5.877   3.114  13.742 -0.7379 -0.0420 -0.1135
19280TIP3    H279256   5.825   2.990  13.812 -3.4178  1.5506  0.8598
19281TIP3   OH279257   3.680   6.148   1.920  0.5889 -0.1102  0.6528
19281TIP3    H179258   3.688   6.128   1.826 -1.2574  0.8618  0.2283
19281TIP3    H279259   3.659   6.241   1.922  1.1461  0.0043  2.0882
19282TIP3   OH279260   4.425   3.345  11.033  1.0366  0.2402 -0.4282
19282TIP3    H179261   4.379   3.325  10.952 -1.9531 -0.5743  1.3253
19282TIP3    H279262   4.403   3.437  11.051  0.7726  0.0880  0.0265
19283TIP3   OH279263   3.891   1.987   3.906  0.0675 -0.7362 -0.5283
19283TIP3    H179264   3.875   2.076   3.936 -1.0030 -0.6902 -1.1889
19283TIP3    H279265   3.961   1.996   3.841 -0.7950 -0.2071 -1.4126
19284TIP3   OH279266   1.025   6.520   4.402  0.1674  0.4859 -0.4755
19284TIP3    H179267   0.947   6.477   4.435  1.0012 -0.7983 -0.0816
19284TIP3    H279268   1.097   6.483   4.453  0.9688  2.2923 -0.1832
19285TIP3   OH279269   6.185   1.826  16.099  0.6343  0.0201 -0.4207
19285TIP3    H179270   6.148   1.914  16.090 -0.4450 -0.3037  0.5589
19285TIP3    H279271   6.110   1.767  16.085  0.5446 -0.6451  2.3110
19286TIP3   OH279272   2.371   3.330   0.637  0.1308  0.6415 -0.0726
19286TIP3    H179273   2.417   3.284   0.567  0.2596 -0.7585  0.8773
19286TIP3    H279274   2.382   3.273   0.713 -2.4889  0.6422  0.3814
19287TIP3   OH279275   1.808   1.907  14.118 -0.1027 -0.2400 -0.0340
19287TIP3    H179276   1.758   1.841  14.166  0.2668  0.5922  1.5519
19287TIP3    H279277   1.897   1.898  14.150 -0.2446  1.7436  1.0661
19288TIP3   OH279278   0.442   0.286  11.627  0.3998  0.5746 -0.3471
19288TIP3    H179279   0.463   0.241  11.545  2.7718  1.7995 -0.5070
19288TIP3    H279280   0.403   0.218  11.682 -0.8152 -0.3859 -2.2859
19289TIP3   OH279281   5.943   2.023  11.747  0.0298 -0.2203  0.3854
19289TIP3    H179282   5.888   2.042  11.823  0.6795  0.9452  0.5811
19289TIP3    H279283   5.880   2.007  11.676 -0.5927 -1.8551  1.2532
19290TIP3   OH279284   5.185   3.209   4.571 -0.5120 -0.0782  0.5988
19290TIP3    H179285   5.147   3.146   4.632 -1.1757 -1.3131 -0.9974
19290TIP3    H279286   5.176   3.167   4.485  3.4921  0.0266 -0.0449
19291TIP3   OH279287   0.486   3.454  16.040 -0.0732  0.4598  0.2644
19291TIP3    H179288   0.556   3.407  15.993 -0.2424  1.1327 -0.6910
19291TIP3    H279289   0.405   3.418  16.004 -0.2030  0.9005  0.1044
19292TIP3   OH279290   4.502   5.270  15.751  0.1688 -0.1954  0.1067
19292TIP3    H179291   4.531   5.361  15.754 -1.4044  0.3106  1.7895
19292TIP3    H279292   4.407   5.275  15.753  0.0516 -1.8842  0.3680
19293TIP3   OH279293   3.938   3.828  14.800 -0.1947 -0.0097  0.2934
19293TIP3    H179294   4.006   3.850  14.863 -1.7850  0.7267  1.8249
19293TIP3    H279295   3.971   3.862  14.717  0.9465  1.0411  1.1408
19294TIP3   OH279296   1.317   4.657  13.368  0.4178 -0.1647 -0.4616
19294TIP3    H179297   1.326   4.750  13.389 -0.8031 -0.1130 -0.0541
19294TIP3    H279298   1.403   4.620  13.383  0.5200  0.6007  1.0088
19295TIP3   OH279299   6.562   0.485   2.966 -0.1484  0.0765 -0.5931
19295TIP3    H179300   6.641   0.468   3.018  0.0775 -0.6336 -1.1634
19295TIP3    H279301   6.592   0.483   2.875 -0.7492  0.2219 -0.7986
19296TIP3   OH279302   2.513   0.972   2.062 -0.3522 -0.0612 -0.5988
19296TIP3    H179303   2.428   0.957   2.103  1.3547  0.0497  3.4895
19296TIP3    H279304   2.541   1.057   2.096  2.3783 -1.2128  0.3103
19297TIP3   OH279305   6.100   2.189  14.642  0.0093  0.1620 -0.4130
19297TIP3    H179306   6.018   2.239  14.633 -1.4977 -1.8910  1.0566
19297TIP3    H279307   6.161   2.250  14.683 -1.4631  1.1183  0.4367
19298TIP3   OH279308   2.013   3.161   3.670  0.3856 -0.4675 -0.4274
19298TIP3    H179309   2.069   3.174   3.746 -1.8290  2.2062  0.9296
19298TIP3    H279310   2.052   3.215   3.601 -0.6468  1.7636  0.6531
19299TIP3   OH279311   3.174   6.355  12.683  0.3383  0.4017 -0.1100
19299TIP3    H179312   3.194   6.448  12.675 -2.5823  1.0824 -1.0085
19299TIP3    H279313   3.138   6.332  12.597  1.1821 -1.6348  0.0365
19300TIP3   OH279314   3.030   2.754  12.813  0.2037 -0.8533  0.5247
19300TIP3    H179315   3.096   2.719  12.753 -0.8188 -1.1923 -0.4485
19300TIP3    H279316   3.041   2.849  12.808 -1.1836 -0.7202 -1.8794
19301TIP3   OH279317   5.805   0.933   0.927 -0.1133 -0.7514  0.0654
19301TIP3    H179318   5.732   0.990   0.906  1.0557  0.8458  0.1470
19301TIP3    H279319   5.765   0.853   0.961 -1.8147 -0.3090 -0.8026
19302TIP3   OH279320   2.716   4.510  16.608 -0.3146 -0.2228 -0.0752
19302TIP3    H179321   2.680   4.493  16.521  0.5808  1.6030 -0.8493
19302TIP3    H279322   2.786   4.446  16.619  0.2227  0.1590 -1.1408
19303TIP3   OH279323   6.719   5.301  17.034  0.3309  0.5934  0.1484
19303TIP3    H179324   6.651   5.304  17.101  0.6320 -1.1843  0.6040
19303TIP3    H279325   6.795   5.341  17.075  0.3886 -0.1002  0.7454
19304TIP3   OH279326   1.300   1.208  12.631 -0.5283 -0.1023 -0.0283
19304TIP3    H179327   1.303   1.180  12.540 -0.4848  0.5482 -0.2277
19304TIP3    H279328   1.372   1.161  12.673  0.3580  0.7060 -0.6393
19305TIP3   OH279329   5.888   6.409  15.757 -0.0584 -0.1982  0.0924
19305TIP3    H179330   5.874   6.315  15.773  0.3592 -0.3073 -0.1622
19305TIP3    H279331   5.838   6.427  15.677  0.1675 -0.2877 -0.0691
19306TIP3   OH279332   1.496   3.919   6.506  0.3581 -0.0333  0.7056
19306TIP3    H179333   1.522   3.928   6.414 -1.3588 -1.8204 -0.0301
19306TIP3    H279334   1.545   3.843   6.537 -2.4904 -2.3929 -0.2087
19307TIP3   OH279335   4.897   3.651  13.780 -0.7402 -0.3510  0.0402
19307TIP3    H179336   4.844   3.572  13.772  0.4887 -1.2666  0.5270
19307TIP3    H279337   4.944   3.639  13.863 -1.1625  1.3045  0.5571
19308TIP3   OH279338   6.470   2.159   1.158  0.3100  0.3029  0.0429
19308TIP3    H179339   6.499   2.068   1.153  0.1412  0.2346  0.3242
19308TIP3    H279340   6.498   2.197   1.075 -0.0936 -0.1404 -0.2984
19309TIP3   OH279341   0.276   3.747  16.453 -0.4145  0.0655  0.3215
19309TIP3    H179342   0.288   3.739  16.359  0.9197 -0.2599  0.4978
19309TIP3    H279343   0.215   3.677  16.476  0.1709 -0.6147 -0.1527
19310TIP3   OH279344   6.274   2.318   1.051  0.0265  0.0011 -0.6961
19310TIP3    H179345   6.336   2.253   1.083 -0.9921 -0.2801  0.8442
19310TIP3    H279346   6.222   2.342   1.129  0.9465  3.3440 -0.9547
19311TIP3   OH279347   6.135   1.922  13.620 -0.1889 -0.2043 -0.8983
19311TIP3    H179348   6.174   1.849  13.572 -0.3107 -1.8971  1.4155
19311TIP3    H279349   6.045   1.925  13.589 -0.3017 -1.3456 -0.7368
19312TIP3   OH279350   1.638   2.346  13.645 -0.1527  0.2527  0.5334
19312TIP3    H179351   1.694   2.421  13.627  0.7910 -0.2270  1.3448
19312TIP3    H279352   1.686   2.295  13.711  0.1408 -2.0159 -1.2891
19313TIP3   OH279353   6.260   4.523   2.387 -0.6245 -0.2827  0.1382
19313TIP3    H179354   6.244   4.511   2.481  1.0663 -0.9384  0.3626
19313TIP3    H279355   6.353   4.540   2.380 -0.3362 -2.1553 -1.5879
19314TIP3   OH279356   4.999   0.538  13.312 -0.2266 -0.0659 -0.3314
19314TIP3    H179357   4.989   0.617  13.365 -0.4050 -0.8811  0.9111
19314TIP3    H279358   4.909   0.511  13.292 -0.2417 -0.9716  0.8628
19315TIP3   OH279359   6.750   4.530  15.975 -0.0537  0.5361  0.1081
19315TIP3    H179360   6.658   4.539  15.998 -0.3382 -1.7802  0.0439
19315TIP3    H279361   6.796   4.534  16.058 -0.2317  1.1333  0.1889
19316TIP3   OH279362   4.241   3.691  12.796  0.1013 -0.0704 -0.3305
19316TIP3    H179363   4.299   3.615  12.798 -0.3130 -0.3957  1.5929
19316TIP3    H279364   4.163   3.661  12.750  0.4582 -0.3858 -0.7424
19317TIP3   OH279365   2.161   3.953   1.478 -0.0492  0.7758  0.3854
19317TIP3    H179366   2.189   3.868   1.442 -0.6719  0.6640  0.1388
19317TIP3    H279367   2.238   4.009   1.470  0.7695 -0.0969  1.6914
19318TIP3   OH279368   0.453   0.673   4.173 -0.5518  0.0574  0.2027
19318TIP3    H179369   0.524   0.737   4.163  0.6273 -0.7712  2.6045
19318TIP3    H279370   0.375   0.727   4.189 -0.4985  0.9624 -2.0938
19319TIP3   OH279371   1.863   6.460   0.916  0.4647 -0.6633 -0.0683
19319TIP3    H179372   1.790   6.520   0.933  1.6818  0.6539  0.7351
19319TIP3    H279373   1.895   6.436   1.003  1.3184 -0.8065 -0.4124
19320TIP3   OH279374   2.804   5.083  15.466 -0.0426  0.4619 -0.0597
19320TIP3    H179375   2.850   5.059  15.385 -0.4367  0.5741 -0.3231
19320TIP3    H279376   2.711   5.076  15.443 -0.1637 -0.6453  0.7354
19321TIP3   OH279377   1.334   3.289   1.433  0.3298  0.3844  0.4682
19321TIP3    H179378   1.318   3.234   1.356 -0.8491  0.5758  0.5477
19321TIP3    H279379   1.382   3.232   1.493  1.2418  0.2268 -0.3872
19322TIP3   OH279380   0.334   6.271  14.992  0.2819 -0.6681 -0.1750
19322TIP3    H179381   0.365   6.346  14.943 -1.3668  0.8239  0.9149
19322TIP3    H279382   0.248   6.252  14.955  0.7633 -2.2115 -0.5844
19323TIP3   OH279383   4.088   5.920   2.793  0.3565 -0.1430 -0.2667
19323TIP3    H179384   3.995   5.937   2.781 -0.2503 -3.2861 -1.0421
19323TIP3    H279385   4.126   5.931   2.706  0.4121 -0.2858 -0.2620
19324TIP3   OH279386   0.293   5.422  15.613  0.4183  0.1758  0.1810
19324TIP3    H179387   0.359   5.477  15.572 -1.6634  2.7188  0.0173
19324TIP3    H279388   0.275   5.354  15.548  3.5547 -1.3016  0.6826
19325TIP3   OH279389   6.067   5.226   3.639  0.0582  0.3323  0.3211
19325TIP3    H179390   5.989   5.227   3.584  0.6775  0.5162 -0.5962
19325TIP3    H279391   6.068   5.140   3.680  0.4570 -0.4878 -1.3057
19326TIP3   OH279392   2.607   0.604   2.575  0.7869  0.0791 -0.2239
19326TIP3    H179393   2.560   0.531   2.617 -0.8145  1.3404  0.2728
19326TIP3    H279394   2.588   0.594   2.481 -0.6911  0.6710 -0.0146
19327TIP3   OH279395   2.108   2.324   5.894  0.3537  0.0247  0.2316
19327TIP3    H179396   2.113   2.322   5.989  0.0433  0.5481  0.2678
19327TIP3    H279397   2.127   2.416   5.872 -0.0480  0.0113 -0.1760
19328TIP3   OH279398   2.861   4.559   0.847 -0.5487  0.2012  0.7490
19328TIP3    H179399   2.906   4.521   0.772 -0.4043  2.1016 -0.1766
19328TIP3    H279400   2.781   4.506   0.857 -0.1041 -0.6601 -0.1311
19329TIP3   OH279401   0.842   3.091   0.329 -0.0444  0.5444  0.5413
19329TIP3    H179402   0.883   3.140   0.258  1.8623 -0.2198  1.0506
19329TIP3    H279403   0.817   3.007   0.289 -3.4307  1.8160 -0.3652
19330TIP3   OH279404   5.011   1.552   6.281 -0.2958 -0.6794 -0.2601
19330TIP3    H179405   4.922   1.574   6.309  0.1653  0.6713  0.2374
19330TIP3    H279406   5.000   1.476   6.223 -1.9148  0.2488 -1.2653
19331TIP3   OH279407   6.411   1.810  13.105  0.1593 -0.1916  0.9576
19331TIP3    H179408   6.460   1.883  13.143 -1.1844  1.3955 -0.2001
19331TIP3    H279409   6.319   1.831  13.124 -0.3763 -0.6467 -0.9043
19332TIP3   OH279410   1.340   3.309   3.766  0.0190  0.4484 -0.6835
19332TIP3    H179411   1.263   3.254   3.781  0.0177 -0.0320 -2.2962
19332TIP3    H279412   1.400   3.254   3.717  0.6581  1.3958 -0.9992
19333TIP3   OH279413   2.761   2.819  14.109 -0.1987  0.0440  0.4276
19333TIP3    H179414   2.752   2.803  14.015  0.1441 -0.1613  0.4273
19333TIP3    H279415   2.772   2.731  14.147  4.3394  0.2675  0.1594
19334TIP3   OH279416   4.559   6.288   3.399 -0.0526  0.0415  0.0462
19334TIP3    H179417   4.471   6.287   3.360 -0.5265  0.9816  1.0400
19334TIP3    H279418   4.618   6.285   3.324 -0.9219  3.1996 -0.9529
19335TIP3   OH279419   1.158   3.570   5.110  0.0166 -0.5135  0.1562
19335TIP3    H179420   1.080   3.615   5.078 -1.1110 -1.5101  1.3581
19335TIP3    H279421   1.214   3.639   5.144 -0.8641  0.1449  0.3104
19336TIP3   OH279422   4.763   4.851  16.791  0.1589  0.3481 -0.0553
19336TIP3    H179423   4.822   4.913  16.748  0.2909 -0.3431 -0.8946
19336TIP3    H279424   4.809   4.768  16.787 -0.1166  0.1441  0.8615
19337TIP3   OH279425   5.124   1.971  12.416  0.0298  0.1940 -0.5467
19337TIP3    H179426   5.103   1.880  12.438 -0.1623  0.7342  1.7852
19337TIP3    H279427   5.196   1.993  12.475  3.0638  0.3512 -3.9322
19338TIP3   OH279428   4.831   5.695   0.508  0.4664  0.1740 -0.0676
19338TIP3    H179429   4.759   5.634   0.525  0.2050 -0.0421 -1.8023
19338TIP3    H279430   4.796   5.757   0.444  1.7681  0.1916 -0.7975
19339TIP3   OH279431   2.450   6.011   0.170 -0.0306 -0.3747 -0.0852
19339TIP3    H179432   2.397   6.031   0.247  0.1461 -0.1345 -0.0262
19339TIP3    H279433   2.538   5.995   0.205  0.2226  0.4780 -0.3078
19340TIP3   OH279434   4.494   2.939  16.104  0.2308 -0.1352 -0.2708
19340TIP3    H179435   4.415   2.974  16.063 -0.0110  0.6267  0.7923
19340TIP3    H279436   4.566   2.977  16.055 -0.0517  0.1070 -0.5018
19341TIP3   OH279437   2.584   2.989  14.812  0.3817 -0.4793 -0.2430
19341TIP3    H179438   2.660   2.952  14.768 -0.1646 -1.5891 -0.2909
19341TIP3    H279439   2.541   3.042  14.745  1.1051  0.1708 -0.2101
19342TIP3   OH279440   5.788   4.412  14.648 -0.0822  0.1637 -0.5295
19342TIP3    H179441   5.831   4.327  14.655  2.1029  1.0125 -2.1853
19342TIP3    H279442   5.807   4.455  14.732 -2.2302 -1.3301  0.8013
19343TIP3   OH279443   0.198   0.098   3.847 -0.3671 -0.1626 -0.2383
19343TIP3    H179444   0.119   0.082   3.796 -0.8072  2.3854 -0.4668
19343TIP3    H279445   0.168   0.140   3.927  0.6686 -0.3226  0.2586
19344TIP3   OH279446   5.198   1.640   0.002 -0.0794 -0.0072  0.1235
19344TIP3    H179447   5.188   1.681  -0.084  2.3526  1.0337  0.2538
19344TIP3    H279448   5.250   1.561  -0.015  2.6207  1.5084  0.8449
19345TIP3   OH279449   5.875   0.780  14.299  0.3066  0.1211 -0.1641
19345TIP3    H179450   5.797   0.804  14.348 -0.3635 -0.3352 -0.9951
19345TIP3    H279451   5.928   0.730  14.362 -0.3957 -0.1845  0.1970
19346TIP3   OH279452   2.401   1.063   3.700  0.6656  0.0863 -0.1430
19346TIP3    H179453   2.431   0.973   3.687 -0.5975 -0.3339 -0.2777
19346TIP3    H279454   2.402   1.101   3.612  1.1427  0.1872 -0.0951
19347TIP3   OH279455   4.933   3.665   3.972 -0.3556  0.3443 -0.2071
19347TIP3    H179456   4.880   3.599   3.929 -1.2757  0.2400  1.0113
19347TIP3    H279457   4.902   3.749   3.937  0.5549  0.1816 -1.4727
19348TIP3   OH279458   0.121   0.775   5.145 -0.0797  0.5227 -0.0799
19348TIP3    H179459   0.105   0.693   5.098 -2.2455  1.2675 -0.7538
19348TIP3    H279460   0.086   0.759   5.233  0.7625  0.2919  0.2227
19349TIP3   OH279461   5.663   5.786  16.319  0.4198 -0.5099 -0.2817
19349TIP3    H179462   5.708   5.716  16.272  1.1061 -0.4902  0.3364
19349TIP3    H279463   5.693   5.778  16.409 -0.4362 -0.1742  0.0385
19350TIP3   OH279464   6.221   4.813  13.777  0.4040  0.3900  0.5154
19350TIP3    H179465   6.151   4.852  13.829  1.4167  1.6197  0.9879
19350TIP3    H279466   6.300   4.824  13.829  1.0582 -0.4964 -0.2474
19351TIP3   OH279467   5.364   3.218  15.758  0.0990  0.4107 -0.2786
19351TIP3    H179468   5.334   3.298  15.716  0.2124  0.4227 -0.3376
19351TIP3    H279469   5.319   3.148  15.712 -0.0795  0.4471 -0.1589
19352TIP3   OH279470   2.768   5.912   4.549 -0.0812 -0.4091 -0.2284
19352TIP3    H179471   2.796   6.000   4.525  2.0228 -0.6491  1.1752
19352TIP3    H279472   2.771   5.863   4.466 -2.2737  1.0077 -1.2281
19353TIP3   OH279473   5.360   3.743   4.342 -0.7412 -0.4701 -0.2020
19353TIP3    H179474   5.286   3.702   4.297 -2.3828  1.0823  0.9630
19353TIP3    H279475   5.436   3.718   4.289 -2.2047 -1.1844 -2.1039
19354TIP3   OH279476   5.533   4.654  14.391 -0.0270 -1.1658 -0.4526
19354TIP3    H179477   5.454   4.618  14.432  1.1894 -2.2086  1.0572
19354TIP3    H279478   5.503   4.735  14.350 -1.5141 -0.4997  1.7677
19355TIP3   OH279479   5.564   0.259   2.385  0.3432  0.5886  0.0401
19355TIP3    H179480   5.535   0.172   2.411  1.5388  1.0783  3.6375
19355TIP3    H279481   5.484   0.312   2.387 -0.7220 -0.5235 -3.8022
19356TIP3   OH279482   3.468   4.313  12.226 -0.2605 -0.3638 -0.0408
19356TIP3    H179483   3.475   4.391  12.171  1.3746 -0.3565  0.1344
19356TIP3    H279484   3.538   4.256  12.196  0.5117 -0.4758  1.8426
19357TIP3   OH279485   5.695   3.721   2.557 -0.1224 -0.0092 -0.1267
19357TIP3    H179486   5.613   3.771   2.554 -0.7204 -0.9413  0.2898
19357TIP3    H279487   5.672   3.636   2.519  0.2098 -0.8693  1.5322
19358TIP3   OH279488   3.895   4.742   4.542 -0.0199  0.4118 -0.0837
19358TIP3    H179489   3.911   4.727   4.449  1.6638  0.5132  0.1522
19358TIP3    H279490   3.810   4.786   4.545 -0.1881  0.2402 -1.5551
19359TIP3   OH279491   6.487   5.879   2.383  0.1241 -0.3688  0.0855
19359TIP3    H179492   6.431   5.812   2.423 -0.7314 -0.8093 -1.7276
19359TIP3    H279493   6.554   5.829   2.338  1.2750  0.1287  1.1935
19360TIP3   OH279494   0.358   2.865   1.942 -0.6198  0.0484  0.0366
19360TIP3    H179495   0.337   2.894   1.853 -0.2279 -1.0609 -0.4287
19360TIP3    H279496   0.441   2.909   1.962  0.1330 -0.9501 -0.7827
19361TIP3   OH279497   6.057   5.365   2.812 -0.4574  0.1967 -0.1232
19361TIP3    H179498   5.967   5.365   2.780 -0.3471  2.6530 -0.6515
19361TIP3    H279499   6.099   5.291   2.769 -1.4532  0.8182 -2.2750
19362TIP3   OH279500   2.640   3.065  14.126  0.4159  1.1198  0.0426
19362TIP3    H179501   2.554   3.025  14.139  1.0662 -0.1367  0.6661
19362TIP3    H279502   2.697   2.992  14.102  1.2569  1.9791 -0.6661
19363TIP3   OH279503   3.714   6.785   2.068 -0.3004 -0.1820 -0.3158
19363TIP3    H179504   3.785   6.748   2.119 -1.9445  0.6832  2.8407
19363TIP3    H279505   3.756   6.846   2.008  1.6667 -0.4006  0.7828
19364TIP3   OH279506   5.238   5.955   6.147  0.5504 -0.4164  0.2622
19364TIP3    H179507   5.214   5.867   6.177 -0.7804 -0.4315 -0.7422
19364TIP3    H279508   5.292   5.940   6.070  1.8239 -0.3464  1.1103
19365TIP3   OH279509   0.056   1.574  15.920  0.0451  0.0539  0.0187
19365TIP3    H179510   0.047   1.663  15.956  1.4181 -0.6296  2.2217
19365TIP3    H279511  -0.015   1.567  15.857 -3.1901  1.1335  3.1745
19366TIP3   OH279512   5.167   6.152   2.059  0.0942  0.3060 -0.8347
19366TIP3    H179513   5.239   6.183   2.114  0.4726 -0.6715 -0.7507
19366TIP3    H279514   5.208   6.130   1.976 -0.1409 -0.0738 -0.8523
19367TIP3   OH279515   5.933   0.058   0.642  0.2744  0.1587  0.1910
19367TIP3    H179516   5.893   0.119   0.580  0.3158  0.2744  0.2779
19367TIP3    H279517   5.938  -0.025   0.595 -0.5810 -0.0035  0.3661
19368TIP3   OH279518   4.747   3.735   2.564 -0.8950  0.4430  0.4606
19368TIP3    H179519   4.759   3.734   2.659 -1.1042 -0.9000  0.4868
19368TIP3    H279520   4.728   3.827   2.543  1.0200  1.1123  1.4587
19369TIP3   OH279521   4.547   3.507  14.414 -0.0274 -0.2082  0.0300
19369TIP3    H179522   4.527   3.415  14.395  0.5980 -0.6032  1.2074
19369TIP3    H279523   4.474   3.556  14.376  0.6457 -0.9985 -2.4612
19370TIP3   OH279524   4.046   5.064   4.309 -0.4497 -0.3516 -0.0305
19370TIP3    H179525   4.012   5.122   4.377 -0.2071 -0.5634  0.2716
19370TIP3    H279526   4.016   4.977   4.334 -0.3601 -0.4307 -0.1948
19371TIP3   OH279527   2.784   0.946  14.034 -0.3563  0.0258  0.1108
19371TIP3    H179528   2.826   1.024  14.070 -1.3557  0.0472  1.3167
19371TIP3    H279529   2.763   0.969  13.944  0.9063  0.5101 -0.0841
19372TIP3   OH279530   2.780   4.283   3.021  0.1658  0.1071  0.6583
19372TIP3    H179531   2.748   4.214   2.964 -2.4872 -0.1583  2.2967
19372TIP3    H279532   2.774   4.363   2.968  3.5547 -0.8053 -1.3479
19373TIP3   OH279533   2.466   4.254   3.076 -0.1703 -0.1617 -0.3240
19373TIP3    H179534   2.464   4.298   2.991 -0.9583 -0.9319 -0.7280
19373TIP3    H279535   2.482   4.162   3.054 -1.3312 -0.5198  0.2947
19374TIP3   OH279536   4.530   1.557   0.937 -0.0063  0.6689 -0.1210
19374TIP3    H179537   4.539   1.640   0.983 -0.4488  0.3329  0.5896
19374TIP3    H279538   4.557   1.491   1.001  3.8074  0.4036 -1.7163
19375TIP3   OH279539   1.633   1.608  12.067 -0.7254  0.1648  0.7975
19375TIP3    H179540   1.571   1.674  12.036 -0.6989 -0.1078  0.1380
19375TIP3    H279541   1.579   1.535  12.097 -0.8159  1.0333  2.9203
19376TIP3   OH279542   2.952   6.632   4.903  0.6951 -0.5701 -0.5500
19376TIP3    H179543   2.921   6.641   4.813 -2.0481 -0.5310  0.2852
19376TIP3    H279544   2.903   6.557   4.937  0.7798  0.1325  1.2395
19377TIP3   OH279545   0.637   6.111  15.579  0.3462  0.7821  0.4590
19377TIP3    H179546   0.724   6.117  15.540  0.6855 -0.3290  1.0193
19377TIP3    H279547   0.654   6.091  15.671 -0.5053 -1.2988  0.2117
19378TIP3   OH279548   1.099   2.793   0.625  0.3980  0.2667  0.0852
19378TIP3    H179549   1.140   2.810   0.709  2.7642 -0.5881 -0.7972
19378TIP3    H279550   1.059   2.706   0.635  2.1894 -0.6407 -0.1040
19379TIP3   OH279551   5.696   0.154  11.442 -0.1292 -0.0118  0.1658
19379TIP3    H179552   5.622   0.093  11.449  0.7760 -1.3060 -1.1317
19379TIP3    H279553   5.655   0.239  11.425 -1.3591 -0.4610  0.7112
19380TIP3   OH279554   5.993   2.195  12.301  0.1993 -0.5422 -0.5774
19380TIP3    H179555   5.989   2.120  12.360 -0.0583 -0.6433 -0.7181
19380TIP3    H279556   5.937   2.170  12.227  0.7955 -0.5605 -1.0305
19381TIP3   OH279557   1.493   1.692   4.631 -0.1884 -0.1347  0.0652
19381TIP3    H179558   1.461   1.728   4.714 -0.7222  0.0751 -0.2256
19381TIP3    H279559   1.510   1.600   4.650 -2.0922 -0.5490 -0.0464
19382TIP3   OH279560   4.300   4.597   5.775 -0.3145 -0.1302 -0.1134
19382TIP3    H179561   4.362   4.552   5.833  1.4259 -0.0923 -1.8728
19382TIP3    H279562   4.303   4.689   5.804 -1.3939 -0.5173  1.3419
19383TIP3   OH279563   4.375   5.253  13.816 -0.6121  0.3800  0.2861
19383TIP3    H179564   4.313   5.232  13.885  0.2718 -3.1484  0.1642
19383TIP3    H279565   4.322   5.300  13.750 -2.7115 -0.8401  1.0016
19384TIP3   OH279566   0.605   0.436   6.014 -0.3385  0.4145 -0.2546
19384TIP3    H179567   0.516   0.412   5.988 -0.1850  1.3389 -1.7580
19384TIP3    H279568   0.617   0.395   6.100 -2.2997  0.4853  0.0977
19385TIP3   OH279569   2.753   2.203  11.150 -0.2432  0.2568  0.3707
19385TIP3    H179570   2.712   2.210  11.236 -1.9748  0.5201 -0.4238
19385TIP3    H279571   2.762   2.294  11.121 -1.8255  0.1424 -0.6366
19386TIP3   OH279572   0.153   1.948  13.214  0.2569 -0.6544  0.0135
19386TIP3    H179573   0.214   1.874  13.214 -0.4627 -1.2624 -0.7802
19386TIP3    H279574   0.178   1.999  13.291  0.2283 -2.1777  1.0887
19387TIP3   OH279575   3.396   2.386  11.605 -0.2654 -0.2031 -0.2106
19387TIP3    H179576   3.315   2.335  11.596 -1.1839  1.1209  0.2168
19387TIP3    H279577   3.432   2.390  11.516  0.3365 -2.3410 -0.1098
19388TIP3   OH279578   0.632   0.137  10.721 -0.4749 -0.4274 -0.6110
19388TIP3    H179579   0.721   0.167  10.738 -1.3397  1.9437  0.1707
19388TIP3    H279580   0.633   0.107  10.631  1.2413 -1.0532 -0.4204
19389TIP3   OH279581   1.794   3.358  12.733  0.3965 -0.0223 -0.4189
19389TIP3    H179582   1.738   3.436  12.740 -0.0741 -0.3208 -0.8123
19389TIP3    H279583   1.739   3.286  12.764  1.3390  0.0036  1.4212
19390TIP3   OH279584   3.042   2.406   5.400 -0.3076  0.4858 -0.0314
19390TIP3    H179585   3.088   2.393   5.317  0.6586  2.1278  0.2185
19390TIP3    H279586   3.094   2.471   5.447 -1.3867  0.3305  1.4472
19391TIP3   OH279587   5.421   3.833  12.082 -0.0771 -0.1990 -0.2959
19391TIP3    H179588   5.343   3.889  12.078 -0.2864 -0.2558  1.6341
19391TIP3    H279589   5.494   3.892  12.067 -0.3650  0.4152  0.6213
19392TIP3   OH279590   1.566   6.474  11.205 -0.8392  0.4683 -0.4109
19392TIP3    H179591   1.575   6.442  11.115 -0.4560 -1.8985  0.3985
19392TIP3    H279592   1.492   6.534  11.201 -0.7060  0.5892 -2.3447
19393TIP3   OH279593   1.935   5.598  13.643  0.3678 -0.3645 -0.1205
19393TIP3    H179594   1.854   5.566  13.602  0.2266 -2.1763  1.4612
19393TIP3    H279595   1.998   5.597  13.571  0.3537 -4.2928 -0.3278
19394TIP3   OH279596   0.463   4.038   3.178  0.5142  0.7496  0.2831
19394TIP3    H179597   0.394   3.974   3.194  0.5164  0.9308  1.0296
19394TIP3    H279598   0.417   4.113   3.140  0.5333  0.2614 -0.7512
19395TIP3   OH279599   4.051   0.494  13.554  0.1419 -0.2240 -0.3062
19395TIP3    H179600   4.014   0.426  13.610 -0.8625 -1.8357 -2.7854
19395TIP3    H279601   4.146   0.485  13.565  0.1067  1.8114  3.6179
19396TIP3   OH279602   2.142   6.757  15.577  0.1970  0.4912  1.0546
19396TIP3    H179603   2.080   6.829  15.566  1.2298  1.6601  2.5203
19396TIP3    H279604   2.126   6.724  15.665  2.3828  1.5885  1.9307
19397TIP3   OH279605   3.110   1.101   5.293 -0.2647  0.1466  0.3836
19397TIP3    H179606   3.071   1.182   5.325 -0.9157 -0.3716  0.9259
19397TIP3    H279607   3.038   1.053   5.253  0.2344  0.0851 -0.4699
19398TIP3   OH279608   3.061   4.324   2.911 -0.0700 -0.3220 -0.4721
19398TIP3    H179609   2.989   4.384   2.930 -1.6391 -1.3754 -2.6954
19398TIP3    H279610   3.034   4.240   2.949 -0.2464 -0.8288 -1.6664
19399TIP3   OH279611   0.412   5.800   0.693  0.1973  0.0900 -0.1234
19399TIP3    H179612   0.327   5.834   0.722  0.3526  1.9650 -1.6402
19399TIP3    H279613   0.391   5.747   0.616  0.4543  1.7900 -1.4362
19400TIP3   OH279614   5.273   3.538   0.939 -0.1914 -0.2155 -0.6117
19400TIP3    H179615   5.291   3.566   0.850  1.4845  0.1510 -0.1903
19400TIP3    H279616   5.178   3.543   0.947 -0.2951  0.6794 -2.0611
19401TIP3   OH279617   0.087   5.923  16.685 -0.0802  0.3549  0.8628
19401TIP3    H179618   0.089   5.827  16.681 -1.3890  0.3540 -1.4698
19401TIP3    H279619   0.177   5.949  16.665  0.1379 -0.3893  0.8459
19402TIP3   OH279620   6.004   6.050  11.743 -0.0907 -0.0692 -0.0151
19402TIP3    H179621   5.966   5.987  11.804  0.3813 -1.7629 -1.3664
19402TIP3    H279622   6.088   6.011  11.718  0.7614  1.6875 -0.0507
19403TIP3   OH279623   6.331   4.671  13.134 -0.0218  0.6790  0.2192
19403TIP3    H179624   6.307   4.738  13.198 -0.7650  0.4799  0.1584
19403TIP3    H279625   6.427   4.674  13.131 -0.0375  1.6378  0.3218
19404TIP3   OH279626   0.653   2.987  12.848 -0.1861  0.2809  0.7471
19404TIP3    H179627   0.679   3.064  12.797 -2.1085 -0.2460 -1.1535
19404TIP3    H279628   0.587   3.021  12.909  0.4715  0.4914  1.3554
19405TIP3   OH279629   5.392   4.241  11.958 -0.1423  0.3686 -0.0051
19405TIP3    H179630   5.327   4.231  11.888  0.0800 -0.5655 -0.0881
19405TIP3    H279631   5.475   4.256  11.912  0.3319 -1.9947 -0.0496
19406TIP3   OH279632   1.244   4.969   5.130 -0.2023  0.2548 -0.1374
19406TIP3    H179633   1.162   4.939   5.092  0.0239  0.5967 -0.9044
19406TIP3    H279634   1.312   4.921   5.082  0.0671  0.3434  0.1495
19407TIP3   OH279635   6.401   5.937   5.226  0.4326 -0.5491  0.0900
19407TIP3    H179636   6.392   6.002   5.295 -0.3740 -0.2995 -0.2387
19407TIP3    H279637   6.457   5.869   5.264  2.2939  0.8900  0.0158
19408TIP3   OH279638   5.746   2.378   2.573  0.4385 -0.6678 -0.2054
19408TIP3    H179639   5.816   2.410   2.516  1.1043  0.8133  1.3462
19408TIP3    H279640   5.678   2.444   2.569  0.4257 -0.6181  0.5534
19409TIP3   OH279641   1.982   6.158   1.661  0.0663 -0.0819 -0.4076
19409TIP3    H179642   1.966   6.106   1.583 -0.5620 -0.8098  0.1903
19409TIP3    H279643   1.895   6.182   1.692  0.2349 -0.8718  0.7652
19410TIP3   OH279644   4.945   5.876  15.940  0.6052  0.4914 -0.7864
19410TIP3    H179645   4.854   5.885  15.911 -0.1666  1.0831  1.5563
19410TIP3    H279646   4.961   5.954  15.994  1.8239 -0.5722  0.4612
19411TIP3   OH279647   2.497   0.104   2.647 -0.2088 -0.2003  0.1384
19411TIP3    H179648   2.585   0.067   2.639  0.1426  0.8869 -1.3882
19411TIP3    H279649   2.502   0.163   2.722  0.6397  0.5803 -0.5218
19412TIP3   OH279650   2.757   0.324  15.478 -0.0220  0.1455 -0.0321
19412TIP3    H179651   2.666   0.339  15.452 -0.1170 -2.7713 -1.8089
19412TIP3    H279652   2.755   0.240  15.524  1.9278 -0.9055 -1.6715
19413TIP3   OH279653   1.486   5.225  14.334  0.0075 -0.0997 -0.1341
19413TIP3    H179654   1.486   5.131  14.352 -1.4841  0.1024  1.2014
19413TIP3    H279655   1.507   5.265  14.419 -0.0751  0.7836 -0.5217
19414TIP3   OH279656   2.212   6.231   3.760 -0.4619 -0.0912 -0.4713
19414TIP3    H179657   2.273   6.246   3.832 -0.9568 -2.3574  0.5126
19414TIP3    H279658   2.127   6.218   3.802 -0.8230 -1.1363 -1.4544
19415TIP3   OH279659   5.562   3.117   2.406 -0.5726  0.3792  0.3637
19415TIP3    H179660   5.556   3.023   2.424  0.6305  0.0387 -0.8772
19415TIP3    H279661   5.490   3.134   2.344  0.7935 -0.3027 -1.4929
19416TIP3   OH279662   1.525   3.486  11.955  0.5148 -0.3554  0.4033
19416TIP3    H179663   1.460   3.546  11.992  1.0825  0.2695  0.4150
19416TIP3    H279664   1.530   3.414  12.017 -1.4140 -1.2841 -0.4579
19417TIP3   OH279665   5.189   0.208  13.233  0.4488  0.0075 -0.6663
19417TIP3    H179666   5.219   0.292  13.196  0.0653  0.8965  0.9492
19417TIP3    H279667   5.204   0.217  13.327 -0.9723 -1.1697 -0.3029
19418TIP3   OH279668   0.634   6.255   0.466 -0.3623 -0.5593 -0.8351
19418TIP3    H179669   0.551   6.287   0.502  0.8035  0.3969  1.2137
19418TIP3    H279670   0.651   6.175   0.515 -0.1909 -0.8865 -1.4274
19419TIP3   OH279671   0.909   2.057  14.517 -0.2543 -0.2340  0.0113
19419TIP3    H179672   0.879   2.118  14.450 -0.9733 -1.9747 -1.3410
19419TIP3    H279673   0.842   2.061  14.585  1.1973  2.6168  1.4428
19420TIP3   OH279674   2.350   6.187  15.648  0.1415 -0.2610 -0.1494
19420TIP3    H179675   2.289   6.214  15.579  0.4744 -0.4667 -0.5262
19420TIP3    H279676   2.425   6.151  15.601 -0.0496 -1.3202  0.3390
19421TIP3   OH279677   5.490   5.747  14.910  0.5635  0.1319  0.0137
19421TIP3    H179678   5.567   5.713  14.864  1.0973  2.0687 -0.6398
19421TIP3    H279679   5.525   5.815  14.968 -0.5513  0.5039  0.2681
19422TIP3   OH279680   5.190   5.775   5.137  0.2254  0.3520  0.0966
19422TIP3    H179681   5.121   5.833   5.168  1.1764  1.2637  0.5381
19422TIP3    H279682   5.249   5.764   5.211  0.8416 -0.0043 -0.4257
19423TIP3   OH279683   4.162   4.324   5.469  0.0300  0.7190 -0.1621
19423TIP3    H179684   4.250   4.315   5.432  0.3820  2.1462  0.2663
19423TIP3    H279685   4.177   4.357   5.558 -0.9741  2.3954 -0.5715
19424TIP3   OH279686   0.948   3.912   0.860  0.4565 -0.0452  0.2009
19424TIP3    H179687   0.950   3.824   0.821 -1.1851  0.1599 -0.4404
19424TIP3    H279688   1.036   3.946   0.847  0.4114 -0.6105 -1.9598
19425TIP3   OH279689   3.602   3.272  13.101  0.3665 -0.1522 -0.6385
19425TIP3    H179690   3.678   3.226  13.067  1.0422  0.0353  0.5734
19425TIP3    H279691   3.576   3.330  13.030  0.8146 -0.8438 -1.3843
19426TIP3   OH279692   6.356   1.140  17.111  0.0327 -0.0154 -0.1626
19426TIP3    H179693   6.307   1.160  17.032 -0.1073 -1.5941 -0.4935
19426TIP3    H279694   6.440   1.106  17.080  0.7678  1.2061  0.3942
19427TIP3   OH279695   5.111   5.531   2.593 -0.1536  0.3381  0.2900
19427TIP3    H179696   5.015   5.534   2.596 -0.1441  0.9041  0.1341
19427TIP3    H279697   5.138   5.572   2.675 -0.0427 -0.8608  0.8825
19428TIP3   OH279698   5.453   3.508   3.117  0.2308  0.6180 -0.5101
19428TIP3    H179699   5.497   3.457   3.048 -2.5872 -1.6301 -0.8033
19428TIP3    H279700   5.449   3.449   3.192 -1.3690  1.0922 -0.1882
19429TIP3   OH279701   0.783   6.416   1.804 -0.4135  0.0843 -0.1526
19429TIP3    H179702   0.798   6.369   1.721  1.7636 -0.5685  0.5361
19429TIP3    H279703   0.819   6.358   1.871  0.3506  1.7707  0.9715
19430TIP3   OH279704   0.091   5.740   0.717  0.5087  0.1100 -0.0996
19430TIP3    H179705   0.005   5.705   0.691  0.0930 -0.2307  1.6331
19430TIP3    H279706   0.092   5.828   0.679  0.4153 -0.7058 -2.1537
19431TIP3   OH279707   0.291   5.120  15.399  0.1269  0.0703  0.6922
19431TIP3    H179708   0.202   5.085  15.394  0.0681  0.3601 -0.8001
19431TIP3    H279709   0.341   5.051  15.444 -0.4302 -0.9999 -0.2696
19432TIP3   OH279710   5.361   2.404  14.536  0.4161  0.1344 -0.0927
19432TIP3    H179711   5.348   2.418  14.442 -2.1956  1.8305  0.4220
19432TIP3    H279712   5.450   2.435  14.553  0.4604  1.0628 -1.8001
19433TIP3   OH279713   0.561   0.693  12.076 -0.2600  0.0387 -0.3920
19433TIP3    H179714   0.558   0.648  11.992  0.7394 -0.1674 -0.3262
19433TIP3    H279715   0.637   0.751  12.070 -0.7839  0.7725 -0.0047
19434TIP3   OH279716   0.792   2.794  16.572 -0.3135 -0.2922 -0.7242
19434TIP3    H179717   0.740   2.741  16.511  0.2696 -1.1544 -0.4761
19434TIP3    H279718   0.831   2.731  16.632  0.5711  0.4002 -0.5546
19435TIP3   OH279719   5.497   3.876  14.463 -0.3905 -0.0326  0.2864
19435TIP3    H179720   5.446   3.795  14.462  0.3065 -0.5032 -2.0193
19435TIP3    H279721   5.568   3.861  14.401  1.7572  1.1647  2.2795
19436TIP3   OH279722   5.696   2.455  14.449  0.2875  0.7278 -0.2690
19436TIP3    H179723   5.708   2.388  14.516 -2.1536  1.2574  0.7658
19436TIP3    H279724   5.748   2.423  14.375  0.3749 -1.5668  0.6915
19437TIP3   OH279725   5.862   3.291  15.558 -0.1610 -0.4499  0.0663
19437TIP3    H179726   5.936   3.308  15.499  0.7539 -0.5960  1.1315
19437TIP3    H279727   5.801   3.363  15.540  0.6064  0.1377 -0.2803
19438TIP3   OH279728   0.018   5.622  10.656  0.4658 -0.2861  0.1244
19438TIP3    H179729  -0.031   5.540  10.657 -1.0758  0.5670 -1.3673
19438TIP3    H279730  -0.027   5.678  10.718  0.1129  0.1840 -0.5476
19439TIP3   OH279731   4.559   0.496   3.311 -0.5252 -0.2274 -0.0946
19439TIP3    H179732   4.646   0.479   3.275 -0.3628  4.0214 -2.3876
19439TIP3    H279733   4.574   0.516   3.403  1.0672  0.7744 -0.5276
19440TIP3   OH279734   1.423   0.704  15.291  0.4589  0.4174  0.0379
19440TIP3    H179735   1.335   0.740  15.291  0.2175 -0.1616 -0.0880
19440TIP3    H279736   1.469   0.753  15.358  0.2070  1.1145 -0.2854
19441TIP3   OH279737   0.102   3.871  10.658  0.0703 -0.2551 -0.2926
19441TIP3    H179738   0.190   3.887  10.623  0.4347 -1.4685  0.0128
19441TIP3    H279739   0.063   3.808  10.597 -0.5202  0.1304 -0.3170
19442TIP3   OH279740   4.428   6.434  13.152  0.4130 -0.2284  0.0519
19442TIP3    H179741   4.440   6.480  13.235  1.5921  0.6412 -0.5770
19442TIP3    H279742   4.490   6.362  13.154  0.5210 -0.1424 -0.1048
19443TIP3   OH279743   4.666   5.226   2.176 -0.4671 -0.5365  0.3167
19443TIP3    H179744   4.582   5.239   2.219 -0.5966  1.2550 -0.3836
19443TIP3    H279745   4.666   5.289   2.104  1.9643  0.4209  1.0428
19444TIP3   OH279746   3.961   5.447   4.120  0.6052 -0.2115 -0.5776
19444TIP3    H179747   3.975   5.466   4.027 -1.0298  0.0561 -0.8143
19444TIP3    H279748   3.961   5.351   4.124  1.2312 -0.2210 -0.7552
19445TIP3   OH279749   2.142   2.471   1.828 -0.3251 -0.6314 -0.3222
19445TIP3    H179750   2.094   2.396   1.793  0.3046 -1.1965 -0.0306
19445TIP3    H279751   2.155   2.529   1.753 -1.7143 -0.3107 -0.3372
19446TIP3   OH279752   3.072   5.449   4.450  0.0391  0.0926  0.6625
19446TIP3    H179753   3.075   5.441   4.354 -1.9160  1.3424  0.4565
19446TIP3    H279754   3.140   5.514   4.470  0.1137  0.2009  0.0886
19447TIP3   OH279755   0.438   2.408  15.375 -0.1205  0.6861 -0.1358
19447TIP3    H179756   0.420   2.402  15.469  1.8177 -3.0984  0.1684
19447TIP3    H279757   0.353   2.421  15.335 -0.8942  3.6606  2.0979
19448TIP3   OH279758   1.600   3.975   0.974 -0.2524  0.1403  0.0620
19448TIP3    H179759   1.694   3.986   0.961  0.0258  2.0681  2.8787
19448TIP3    H279760   1.588   3.881   0.988  1.1345 -0.2002 -0.8710
19449TIP3   OH279761   2.285   3.275   1.218 -0.1688  0.2112  0.0330
19449TIP3    H179762   2.309   3.339   1.151  0.2400 -0.0974 -0.1228
19449TIP3    H279763   2.240   3.205   1.170 -1.6193  0.8920  0.3540
19450TIP3   OH279764   2.679   5.007  15.685  0.1618 -0.5140 -0.4072
19450TIP3    H179765   2.728   5.029  15.606  2.6409  0.0296  1.1658
19450TIP3    H279766   2.740   4.956  15.738 -0.5343  1.0975  2.1270
19451TIP3   OH279767   0.532   3.898  17.118  0.5298 -0.1626  0.0225
19451TIP3    H179768   0.553   3.924  17.208  1.9151  0.6523 -0.5053
19451TIP3    H279769   0.615   3.867  17.083 -0.3837 -2.1895 -0.4432
19452TIP3   OH279770   5.960   1.163   1.385  0.0488  0.5432 -0.5032
19452TIP3    H179771   5.920   1.148   1.300  0.7900  0.3647 -0.8281
19452TIP3    H279772   6.054   1.166   1.368  0.2582 -0.1740  0.4005
19453TIP3   OH279773   3.269   0.727  12.169 -0.1008  0.2990  0.3492
19453TIP3    H179774   3.192   0.671  12.166  0.5847 -0.9806  2.7839
19453TIP3    H279775   3.318   0.706  12.090 -1.6419  0.2369 -0.6151
19454TIP3   OH279776   4.700   4.298  12.676 -0.2158 -0.2217 -0.5316
19454TIP3    H179777   4.720   4.381  12.720  0.1229 -0.5952  0.0285
19454TIP3    H279778   4.783   4.268  12.640 -0.7378  0.7901 -2.7175
19455TIP3   OH279779   1.573   4.976   0.138  0.6773 -0.7658 -0.2927
19455TIP3    H179780   1.521   4.982   0.058 -0.2292 -1.3298  0.2291
19455TIP3    H279781   1.655   4.935   0.110  0.1618 -1.4535 -0.8479
19456TIP3   OH279782   5.929   1.028   6.434 -0.6862  0.2511  0.7455
19456TIP3    H179783   5.970   0.955   6.480  0.3942  0.7444  0.6036
19456TIP3    H279784   5.850   0.991   6.396 -0.7283 -0.5709  1.6034
19457TIP3   OH279785   3.644   1.281   5.540  0.1443  0.1449  0.0959
19457TIP3    H179786   3.734   1.283   5.506  0.7425  1.4805  1.6174
19457TIP3    H279787   3.590   1.309   5.466  1.2081  1.2758 -0.2863
19458TIP3   OH279788   3.088   2.364  14.872  0.2063  0.4543  0.3547
19458TIP3    H179789   3.026   2.416  14.923 -0.5990  0.9269 -1.0680
19458TIP3    H279790   3.139   2.428  14.823  0.5633 -0.0195  0.0944
19459TIP3   OH279791   3.593   6.662  10.832  0.2797 -0.3528 -0.0170
19459TIP3    H179792   3.608   6.580  10.785  0.3081 -0.8879  0.9032
19459TIP3    H279793   3.656   6.723  10.794 -0.5363 -0.4116 -1.5234
19460TIP3   OH279794   6.353   4.297   0.257 -0.0942  0.6373 -0.0482
19460TIP3    H179795   6.344   4.241   0.180  2.1551  1.1058 -0.7129
19460TIP3    H279796   6.429   4.352   0.239 -0.0099  1.3525  2.1482
19461TIP3   OH279797   1.184   3.349  11.931  0.1714 -0.4790 -0.0990
19461TIP3    H179798   1.243   3.423  11.918 -0.7507  0.4859  0.9289
19461TIP3    H279799   1.118   3.358  11.863 -0.4335  0.1829  0.5560
19462TIP3   OH279800   0.709   4.375   1.470 -0.0993 -0.4828 -0.0716
19462TIP3    H179801   0.729   4.434   1.543  0.0797 -0.0701 -0.4515
19462TIP3    H279802   0.629   4.330   1.498 -0.5972  0.3899 -0.0328
19463TIP3   OH279803   5.608   5.081   4.421 -0.4264 -0.6662  0.2904
19463TIP3    H179804   5.681   5.126   4.465 -1.1387  0.3856  0.4469
19463TIP3    H279805   5.533   5.098   4.478 -0.9178 -1.2018 -0.1968
19464TIP3   OH279806   4.197   1.482  13.690  0.0008  0.1667  0.1998
19464TIP3    H179807   4.180   1.533  13.769 -0.7406  0.3337 -0.0654
19464TIP3    H279808   4.283   1.512  13.660 -0.1053  0.7310  0.4540
19465TIP3   OH279809   2.152   1.704   1.022  0.5016 -0.6610 -0.6736
19465TIP3    H179810   2.153   1.712   0.927  0.7150 -1.0195 -0.7071
19465TIP3    H279811   2.099   1.777   1.053 -0.2296 -1.0020 -1.1113
19466TIP3   OH279812   1.644   1.245   3.942  0.0502  0.7532  0.4172
19466TIP3    H179813   1.656   1.237   3.848 -1.5906 -0.3702  0.2799
19466TIP3    H279814   1.552   1.223   3.958  0.5232 -0.0517  2.3919
19467TIP3   OH279815   5.790   1.193  16.354 -0.7584 -0.2630  0.1779
19467TIP3    H179816   5.706   1.149  16.339 -0.1510 -1.4560  0.1749
19467TIP3    H279817   5.855   1.131  16.322  0.2769 -0.4515  2.4548
19468TIP3   OH279818   0.986   4.415  14.576 -0.0085 -0.1636 -0.0833
19468TIP3    H179819   1.019   4.366  14.500  3.0472  0.8506  0.4432
19468TIP3    H279820   0.891   4.405  14.571  0.2471 -2.8948 -2.1332
19469TIP3   OH279821   3.411   4.296  16.764 -0.8262 -0.1398  0.1197
19469TIP3    H179822   3.466   4.328  16.693 -0.6488 -1.2892 -0.2804
19469TIP3    H279823   3.471   4.247  16.821 -0.5513  2.3480  2.1670
19470TIP3   OH279824   4.919   3.187   4.347  0.2247  0.2799  0.1670
19470TIP3    H179825   4.914   3.103   4.392  1.9300 -0.0026 -0.0815
19470TIP3    H279826   4.972   3.242   4.404 -0.7247  1.1475  0.2432
19471TIP3   OH279827   2.173   1.666   2.717 -0.3859  0.3114 -0.5305
19471TIP3    H179828   2.119   1.663   2.638 -2.8360 -0.0911  1.0459
19471TIP3    H279829   2.113   1.646   2.788  1.8284  0.1534  1.4278
19472TIP3   OH279830   2.694   0.179   4.289  0.5365 -0.0340 -0.3603
19472TIP3    H179831   2.668   0.090   4.264  0.1568 -0.4840  1.5521
19472TIP3    H279832   2.612   0.223   4.310  0.8459  0.2880  0.1946
19473TIP3   OH279833   4.591   4.885  12.508 -0.4703 -0.0173 -0.0768
19473TIP3    H179834   4.645   4.896  12.586 -0.9940 -1.1065  0.4778
19473TIP3    H279835   4.580   4.790  12.500 -2.7695  0.1601  0.1915
19474TIP3   OH279836   2.209   5.457   1.599 -0.3135 -0.4380  0.4009
19474TIP3    H179837   2.132   5.411   1.567  0.0805 -1.9417  1.5240
19474TIP3    H279838   2.180   5.547   1.611 -1.8288 -0.9220  0.5852
19475TIP3   OH279839   6.298   5.795   0.760  0.4664 -0.3945  0.3048
19475TIP3    H179840   6.302   5.768   0.669 -0.1985 -0.5304  0.3086
19475TIP3    H279841   6.207   5.821   0.774  0.9396  1.2973  0.4642
19476TIP3   OH279842   5.363   2.947   1.326  0.1085  0.2251  0.4078
19476TIP3    H179843   5.416   2.987   1.394 -0.7116  1.4920  0.3318
19476TIP3    H279844   5.292   3.009   1.310  0.1583 -0.1244 -1.4680
19477TIP3   OH279845   0.644   4.442   2.998 -0.6391 -0.0530  0.3745
19477TIP3    H179846   0.587   4.505   3.041  1.3678  2.2648 -0.1127
19477TIP3    H279847   0.718   4.431   3.058 -1.2182 -2.5754  0.7598
19478TIP3   OH279848   3.806   5.075  16.259  0.9074 -0.3477  0.0459
19478TIP3    H179849   3.873   5.134  16.225 -0.3408  1.2112  0.1792
19478TIP3    H279850   3.846   5.035  16.336  1.4837  1.0143  0.4750
19479TIP3   OH279851   3.820   6.383  15.942  0.3618  0.2614  0.3606
19479TIP3    H179852   3.796   6.329  16.018 -2.4331  0.8884  0.0128
19479TIP3    H279853   3.753   6.364  15.877  2.5350 -0.0550 -1.9445
19480TIP3   OH279854   3.337   3.788  12.292  0.1127  0.4421 -0.1308
19480TIP3    H179855   3.382   3.843  12.228  0.9939 -2.0076 -1.7634
19480TIP3    H279856   3.364   3.699  12.270 -1.0884 -0.6728  2.4870
19481TIP3   OH279857   2.688   5.920  12.557  0.0603 -0.2936 -0.1177
19481TIP3    H179858   2.688   6.014  12.577 -0.9807 -0.3539  0.2596
19481TIP3    H279859   2.604   5.889  12.592  0.4277 -1.3770 -0.1738
19482TIP3   OH279860   0.316   3.397   4.443  0.0094  0.1446  0.1406
19482TIP3    H179861   0.259   3.474   4.444 -1.1562 -0.6741  1.4791
19482TIP3    H279862   0.404   3.432   4.450 -0.4803  1.3832  0.3650
19483TIP3   OH279863   2.563   3.091  15.569  0.9446 -0.0877  0.5227
19483TIP3    H179864   2.587   3.168  15.518  0.3536 -0.5618 -0.5059
19483TIP3    H279865   2.576   3.117  15.660  1.4748  0.9659  0.1557
19484TIP3   OH279866   1.976   5.271   3.193  0.5659  0.1415 -0.0850
19484TIP3    H179867   2.046   5.333   3.172  1.6498 -0.4754  1.4948
19484TIP3    H279868   1.942   5.301   3.277  1.7966 -1.9013  1.2267
19485TIP3   OH279869   5.590   0.669  12.410  0.7928 -0.4557 -0.4866
19485TIP3    H179870   5.521   0.606  12.389  1.4503 -0.6931 -2.0858
19485TIP3    H279871   5.648   0.667  12.334  2.5742 -0.2592  0.8179
19486TIP3   OH279872   5.140   6.628  12.623  0.6774  0.5986  0.0549
19486TIP3    H179873   5.094   6.584  12.695  0.0025  0.8141 -0.2495
19486TIP3    H279874   5.200   6.561  12.589  0.4720  0.2706  0.3377
19487TIP3   OH279875   0.301   4.664  16.725  0.5549 -0.3179  0.1479
19487TIP3    H179876   0.388   4.634  16.700  0.6428  0.7714 -0.9825
19487TIP3    H279877   0.251   4.584  16.741  0.9131 -1.0840 -2.1994
19488TIP3   OH279878   4.824   6.550  13.909 -0.1311 -0.4311 -0.1547
19488TIP3    H179879   4.785   6.471  13.871 -1.7862  0.6195 -0.7424
19488TIP3    H279880   4.842   6.606  13.833  1.3602 -0.3451  0.2282
19489TIP3   OH279881   0.668   0.573  15.347 -0.9908 -0.3273  0.3908
19489TIP3    H179882   0.686   0.605  15.258 -1.5549 -1.6366 -0.2133
19489TIP3    H279883   0.741   0.606  15.399  0.2418 -0.9362 -0.8890
19490TIP3   OH279884   5.806   6.128  16.248  0.6000  0.0191  0.1071
19490TIP3    H179885   5.748   6.192  16.288  1.9035  0.6275  1.0811
19490TIP3    H279886   5.747   6.067  16.204 -0.7532  0.7770  0.8024
19491TIP3   OH279887   3.857   0.639  12.844  0.0121  0.3973  0.4262
19491TIP3    H179888   3.925   0.667  12.906  0.1414 -1.6167  1.2879
19491TIP3    H279889   3.884   0.551  12.818 -1.5441  0.1039 -0.3033
19492TIP3   OH279890   1.337   0.025  16.952 -0.3317  0.0340 -0.3589
19492TIP3    H179891   1.350   0.108  16.999 -1.1387 -0.6437  1.1434
19492TIP3    H279892   1.242   0.016  16.946 -0.2465 -0.3706 -1.2991
19493TIP3   OH279893   2.343   0.084   0.349  0.0681 -0.0145 -0.6161
19493TIP3    H179894   2.415   0.087   0.412 -0.7634  0.6483  0.3302
19493TIP3    H279895   2.264   0.073   0.402 -0.8771  2.5341 -1.3420
19494TIP3   OH279896   0.651   0.943  12.953 -0.1363 -0.5259  0.0563
19494TIP3    H179897   0.594   1.011  12.989  1.8078  0.6303  1.1255
19494TIP3    H279898   0.685   0.982  12.872  0.9532 -0.1872  0.6530
19495TIP3   OH279899   4.544   4.479   4.843 -0.0143  0.5280 -0.0917
19495TIP3    H179900   4.471   4.422   4.819  0.4096 -0.0510 -0.0194
19495TIP3    H279901   4.585   4.436   4.917  1.0366  0.2947 -0.7849
19496TIP3   OH279902   6.511   6.164  12.995  0.9526  0.5335 -0.2780
19496TIP3    H179903   6.563   6.107  12.939 -1.0456 -0.5476 -1.1278
19496TIP3    H279904   6.479   6.233  12.936  0.6535  0.6518  0.0179
19497TIP3   OH279905   2.926   1.237  11.258  0.1497 -0.4490  0.2757
19497TIP3    H179906   2.860   1.197  11.201  0.7333 -0.8199 -0.1569
19497TIP3    H279907   2.936   1.326  11.224 -0.6769 -0.1289  0.8294
19498TIP3   OH279908   5.619   6.390  16.074  0.1746 -0.7439  0.0176
19498TIP3    H179909   5.604   6.312  16.128  0.4167 -1.3966 -0.8251
19498TIP3    H279910   5.603   6.463  16.132  0.7518 -1.4249  1.0629
19499TIP3   OH279911   2.881   4.780  16.166 -0.2375 -0.2958  0.1370
19499TIP3    H179912   2.810   4.752  16.224 -0.6216 -1.4963 -0.8465
19499TIP3    H279913   2.934   4.701  16.154  1.5401  0.7004  1.1938
19500TIP3   OH279914   6.729   5.792   3.096 -0.2376 -0.0357 -0.3224
19500TIP3    H179915   6.809   5.828   3.133 -0.9892 -0.1674  1.5066
19500TIP3    H279916   6.689   5.865   3.049  0.2190  0.4256  0.0050
19501TIP3   OH279917   4.094   2.935  10.425 -0.0438  0.0971  0.5308
19501TIP3    H179918   4.112   2.955  10.333 -0.4570 -0.1788  0.3876
19501TIP3    H279919   3.999   2.944  10.434  0.1207  1.3839  1.2365
19502TIP3   OH279920   1.156   5.269   2.519  0.7163  0.5492  0.0322
19502TIP3    H179921   1.233   5.253   2.573 -1.0755 -2.2475  2.0790
19502TIP3    H279922   1.083   5.274   2.582 -1.4438 -2.4412 -1.9379
19503TIP3   OH279923   5.072   3.608  13.978  0.3868  0.5233 -0.2983
19503TIP3    H179924   5.003   3.569  14.032  0.4864  0.3939 -0.2620
19503TIP3    H279925   5.148   3.612  14.037  0.0026  2.0548  0.1312
19504TIP3   OH279926   0.454   2.729   3.573  0.3795 -0.0862 -0.4986
19504TIP3    H179927   0.505   2.652   3.599  0.3838  0.0393 -0.1305
19504TIP3    H279928   0.440   2.777   3.654  0.3171  0.2674 -0.7161
19505TIP3   OH279929   5.477   6.469  12.199  0.3103 -0.1979  0.1009
19505TIP3    H179930   5.422   6.397  12.229 -0.8425  0.4902 -0.3024
19505TIP3    H279931   5.540   6.428  12.139 -2.2941 -0.5035 -2.6579
19506TIP3   OH279932   2.633   5.606  14.971  0.1184  0.1735  0.0232
19506TIP3    H179933   2.706   5.667  14.959  0.6091 -0.3482  0.3267
19506TIP3    H279934   2.602   5.624  15.060  0.8597 -0.6395  0.4640
19507TIP3   OH279935   3.391   5.782  13.201 -0.0223  0.0431 -0.3735
19507TIP3    H179936   3.428   5.763  13.287  0.1480  2.3610  0.1231
19507TIP3    H279937   3.375   5.696  13.162  1.8744 -1.0481  1.1097
19508TIP3   OH279938   4.753   2.087   1.613  0.3524 -0.0744  0.8612
19508TIP3    H179939   4.823   2.025   1.596  0.5995  0.3979  0.1087
19508TIP3    H279940   4.679   2.054   1.563  1.1870  1.5164 -1.5952
19509TIP3   OH279941   5.719   3.309   3.721 -0.4628 -0.6359  0.0896
19509TIP3    H179942   5.770   3.232   3.746  1.9649  0.8764  0.1717
19509TIP3    H279943   5.693   3.292   3.630  0.6752 -1.2798 -0.1382
19510TIP3   OH279944   5.236   6.738  16.315 -0.1078  0.7508 -0.2119
19510TIP3    H179945   5.143   6.734  16.293 -0.0696 -1.1210 -0.2405
19510TIP3    H279946   5.244   6.813  16.373 -1.5239  1.3194 -0.7195
19511TIP3   OH279947   6.664   5.632   2.886  0.0334 -0.2359 -0.3460
19511TIP3    H179948   6.571   5.626   2.907  0.5447 -0.3400  2.2643
19511TIP3    H279949   6.701   5.689   2.954  1.9896 -0.8487 -0.8181
19512TIP3   OH279950   1.583   4.882  10.893  0.0472 -0.0957  0.2332
19512TIP3    H179951   1.611   4.832  10.816 -1.6085  0.3758 -0.7209
19512TIP3    H279952   1.652   4.949  10.904  0.4852 -0.3886 -0.6199
19513TIP3   OH279953   3.298   0.135  15.559  0.5789 -0.2493 -0.5904
19513TIP3    H179954   3.228   0.074  15.580  0.4657 -0.0431 -0.3642
19513TIP3    H279955   3.298   0.198  15.632  1.0897 -0.3305 -0.5185
19514TIP3   OH279956   4.986   2.976   5.815  0.4869  0.3694  0.1041
19514TIP3    H179957   5.004   2.935   5.730 -0.5376  0.1076 -0.0064
19514TIP3    H279958   5.072   2.997   5.851  1.0259 -1.4155 -0.0673
19515TIP3   OH279959   2.586   0.185  12.315 -0.5484  0.3743  0.6878
19515TIP3    H179960   2.627   0.126  12.377  0.0924 -0.2986 -0.3386
19515TIP3    H279961   2.618   0.272  12.339  1.8392 -0.1451 -0.2656
19516TIP3   OH279962   6.222   5.871  16.323  0.4094  0.0219  0.6367
19516TIP3    H179963   6.157   5.861  16.253  1.0904 -0.3823  0.0529
19516TIP3    H279964   6.169   5.880  16.403 -0.3748 -1.6119  0.3470
19517TIP3   OH279965   4.576   0.794  13.146  0.1559 -0.4437  0.3277
19517TIP3    H179966   4.616   0.865  13.095  0.0871 -0.7501 -0.1561
19517TIP3    H279967   4.491   0.828  13.173 -0.4720 -0.8452 -1.0867
19518TIP3   OH279968   0.684   5.983  14.667  0.3680 -0.2121 -0.1789
19518TIP3    H179969   0.751   6.031  14.717 -0.9117  0.2233  1.1935
19518TIP3    H279970   0.607   6.039  14.671  0.5257  0.5181 -3.8765
19519TIP3   OH279971   1.079   1.446  11.600  0.0899 -0.6302  0.4298
19519TIP3    H179972   1.172   1.467  11.599  0.0952 -0.6152  1.0053
19519TIP3    H279973   1.039   1.516  11.653 -0.1027 -1.1954  1.0483
19520TIP3   OH279974   6.521   5.782  15.682 -0.1923 -0.6245  0.2016
19520TIP3    H179975   6.506   5.694  15.648 -0.5874 -0.1979 -0.7969
19520TIP3    H279976   6.481   5.839  15.616  1.5244  0.3656 -0.0262
19521TIP3   OH279977   0.224   1.934   2.547 -1.0151  0.4011 -0.2127
19521TIP3    H179978   0.301   1.881   2.568 -1.4365  0.2187  0.9654
19521TIP3    H279979   0.158   1.871   2.519 -1.4223  0.2885  0.9091
19522TIP3   OH279980   2.201   0.064  11.247 -0.4323 -0.3988  0.1319
19522TIP3    H179981   2.253   0.112  11.183  0.4375 -0.6360  0.6484
19522TIP3    H279982   2.248  -0.018  11.259 -0.5057 -0.3024  1.1678
19523TIP3   OH279983   4.424   6.171  15.803  0.3110 -0.1593  0.1151
19523TIP3    H179984   4.345   6.223  15.792 -0.2064 -0.6286  1.4055
19523TIP3    H279985   4.461   6.201  15.887  1.9830  0.6564 -0.8523
19524TIP3   OH279986   3.054   6.161   1.508 -0.0767 -0.2508 -0.1736
19524TIP3    H179987   3.132   6.209   1.479  0.3683 -0.2838  0.9236
19524TIP3    H279988   3.020   6.121   1.428 -1.0420  2.6604 -1.3325
19525TIP3   OH279989   4.657   4.545   3.027 -0.2867 -0.0177  0.4883
19525TIP3    H179990   4.708   4.560   2.948  0.4637 -1.8568  0.5857
19525TIP3    H279991   4.638   4.633   3.061  1.1656  0.7343 -0.5874
19526TIP3   OH279992   0.637   0.934   3.345 -0.4784  0.1051 -0.2843
19526TIP3    H179993   0.671   0.867   3.404 -0.3695  1.0265  0.7302
19526TIP3    H279994   0.690   0.925   3.266  0.5738 -0.0106  0.4081
19527TIP3   OH279995   0.220   0.106  17.183  0.4600  0.4616  0.1177
19527TIP3    H179996   0.307   0.072  17.161  1.3734  2.2377  0.7337
19527TIP3    H279997   0.185   0.139  17.100 -0.3288 -1.6102 -0.4363
19528TIP3   OH279998   4.957   4.389   2.409 -0.7279 -0.0838 -0.6392
19528TIP3    H179999   5.044   4.420   2.434 -0.1917 -1.5490 -0.5973
19528TIP3    H280000   4.974   4.319   2.346 -1.7553 -2.0295  1.1292
19529TIP3   OH280001   5.095   2.716  17.080 -0.2222  0.4105 -0.3547
19529TIP3    H180002   5.001   2.728  17.071 -0.6105  0.4893  2.6701
19529TIP3    H280003   5.119   2.772  17.154  1.8209 -1.0662  0.1953
19530TIP3   OH280004   2.377   6.205   3.513  0.1158 -0.1079  0.6825
19530TIP3    H180005   2.344   6.125   3.472 -0.2598  0.4073 -0.0614
19530TIP3    H280006   2.320   6.220   3.588 -1.8095  1.0777 -0.9013
19531TIP3   OH280007   4.499   0.150  10.941 -0.1208  0.0053 -0.0368
19531TIP3    H180008   4.410   0.133  10.912  0.2748  0.0626 -1.3542
19531TIP3    H280009   4.554   0.123  10.867  0.9000  0.8512  0.3874
19532TIP3   OH280010   5.487   4.806   5.447 -0.9849 -0.3346 -0.4419
19532TIP3    H180011   5.551   4.837   5.511 -0.8700 -1.6007  0.0868
19532TIP3    H280012   5.510   4.852   5.366 -1.8379  2.1837  0.6321
19533TIP3   OH280013   5.515   3.716   3.238  0.3727 -0.5613  0.0329
19533TIP3    H180014   5.456   3.739   3.310 -0.3125  1.2347 -1.0376
19533TIP3    H280015   5.470   3.646   3.191 -0.6161  0.3380 -0.3820
19534TIP3   OH280016   0.121   1.485  10.218  0.6737 -0.7461  0.0815
19534TIP3    H180017   0.163   1.400  10.225 -0.8079 -1.5939 -0.6212
19534TIP3    H280018   0.027   1.466  10.229  0.2550  0.6811 -0.7521
19535TIP3   OH280019   6.538   2.993  11.300  0.8784  0.3506  0.2167
19535TIP3    H180020   6.487   3.064  11.339 -0.7540 -0.4265 -0.3897
19535TIP3    H280021   6.524   2.919  11.359 -1.4456 -0.7823 -1.5656
19536TIP3   OH280022   6.648   2.420  13.134 -0.0702  0.3218  0.2695
19536TIP3    H180023   6.630   2.344  13.189  0.2945 -0.6621 -0.9220
19536TIP3    H280024   6.570   2.430  13.080 -0.3527  1.1710  0.8107
19537TIP3   OH280025   0.528   5.867  15.599 -0.0912 -0.7027 -0.3316
19537TIP3    H180026   0.569   5.947  15.566 -0.6672 -0.1313  0.3224
19537TIP3    H280027   0.557   5.860  15.689  0.1686 -1.3828 -0.4632
19538TIP3   OH280028   6.597   4.049  11.008  0.6655 -0.4772 -0.4663
19538TIP3    H180029   6.505   4.022  11.001  0.9332 -2.0436  1.3034
19538TIP3    H280030   6.635   4.025  10.924  0.1857 -3.0454 -0.0392
19539TIP3   OH280031   4.698   0.477   5.588  0.0290 -0.1525 -0.3951
19539TIP3    H180032   4.741   0.541   5.532  2.2168 -1.2594 -0.0631
19539TIP3    H280033   4.641   0.428   5.528 -0.6519  1.1766 -0.8893
19540TIP3   OH280034   4.394   3.620   2.068  0.9189  0.1948 -0.0824
19540TIP3    H180035   4.454   3.546   2.056 -0.6543 -0.9793 -1.2220
19540TIP3    H280036   4.363   3.639   1.979  1.3227  2.2911  0.1903
19541TIP3   OH280037   4.649   6.318  15.692 -0.2448 -0.1244  0.6099
19541TIP3    H180038   4.579   6.276  15.643  0.3533  0.4719 -0.8084
19541TIP3    H280039   4.635   6.292  15.783 -0.5140 -2.4887 -0.0635
19542TIP3   OH280040   0.308   2.905  15.518  0.3855 -0.0662  0.0772
19542TIP3    H180041   0.231   2.962  15.523  0.1993 -0.4264  2.4497
19542TIP3    H280042   0.375   2.950  15.569  0.7226 -1.2220  0.6903
19543TIP3   OH280043   2.190   2.147  15.729  0.3592  0.2409 -0.0492
19543TIP3    H180044   2.269   2.106  15.694 -0.5389  0.6174 -2.7028
19543TIP3    H280045   2.147   2.186  15.653 -1.5220  1.5413  1.5803
19544TIP3   OH280046   0.090   1.122  14.816 -0.1186  0.3408 -0.0076
19544TIP3    H180047   0.055   1.088  14.898 -0.9944 -1.1594 -0.9354
19544TIP3    H280048   0.084   1.217  14.824 -1.4587  0.1902  1.1235
19545TIP3   OH280049   3.109   1.712   4.031  0.0401 -0.0163  0.2088
19545TIP3    H180050   3.043   1.653   4.066 -0.1938 -0.7030 -1.2946
19545TIP3    H280051   3.156   1.660   3.966  0.2743  1.2459 -0.6740
19546TIP3   OH280052   4.147   3.595  12.321 -0.6069  0.5885 -0.4554
19546TIP3    H180053   4.175   3.507  12.296 -1.6124 -0.5139  2.0521
19546TIP3    H280054   4.209   3.622  12.389 -0.7678  1.5289 -0.6667
19547TIP3   OH280055   3.425   3.480   3.802  0.0589 -0.4287  0.2830
19547TIP3    H180056   3.492   3.416   3.827  0.4894  0.4655  1.5381
19547TIP3    H280057   3.395   3.515   3.886 -2.4016 -1.2006 -0.2111
19548TIP3   OH280058   3.869   2.569   1.241  0.6909 -0.4101 -0.1657
19548TIP3    H180059   3.841   2.607   1.158 -1.4535  0.2786  0.7988
19548TIP3    H280060   3.841   2.478   1.237 -0.1101 -0.1804  0.0871
19549TIP3   OH280061   5.408   2.471  15.866  0.0626 -0.1460  0.8035
19549TIP3    H180062   5.395   2.481  15.772  1.2700 -1.2403  0.4868
19549TIP3    H280063   5.489   2.518  15.884  0.4027 -0.8329  1.0948
19550TIP3   OH280064   1.623   6.730   1.260  0.1277 -0.1165  0.4547
19550TIP3    H180065   1.572   6.649   1.268  0.4521 -0.1647  2.4856
19550TIP3    H280066   1.583   6.775   1.186 -1.8425 -0.8973  0.9725
19551TIP3   OH280067   1.435   5.311   0.510  0.0065 -0.4736  0.0967
19551TIP3    H180068   1.368   5.321   0.578 -0.4817 -0.3326 -0.3907
19551TIP3    H280069   1.452   5.217   0.506  0.0083 -0.4859  0.3835
19552TIP3   OH280070   2.926   3.011   3.803  0.9786  0.0163  0.0454
19552TIP3    H180071   3.006   2.963   3.782  1.7220  0.9689  0.6036
19552TIP3    H280072   2.901   3.053   3.721  0.4594 -1.0773 -0.3869
19553TIP3   OH280073   0.970   0.199   0.232 -0.3108  0.2485 -0.1531
19553TIP3    H180074   1.023   0.274   0.260  0.2557 -0.7484  1.5679
19553TIP3    H280075   1.027   0.149   0.175  0.0039  0.0959  0.2908
19554TIP3   OH280076   6.005   6.201  14.299  0.3057  0.4314 -0.1192
19554TIP3    H180077   6.094   6.237  14.297  0.0992  0.9628  0.0360
19554TIP3    H280078   5.950   6.272  14.266 -0.2640  0.7307  1.3756
19555TIP3   OH280079   6.732   2.633  15.070 -0.0062 -0.0763  0.0951
19555TIP3    H180080   6.754   2.700  15.134 -1.2462  0.3426  0.1096
19555TIP3    H280081   6.640   2.648  15.050 -0.2469 -1.6160 -0.0951
19556TIP3   OH280082   5.387   2.397   3.054 -0.4098  0.0353 -0.2985
19556TIP3    H180083   5.372   2.469   3.115 -0.3220  0.8215 -1.1857
19556TIP3    H280084   5.308   2.344   3.059 -0.2216 -0.1560  0.8150
19557TIP3   OH280085   4.459   6.501  13.929 -0.0338  0.1113 -0.2975
19557TIP3    H180086   4.383   6.510  13.872 -1.2765 -0.1113  1.2478
19557TIP3    H280087   4.518   6.443  13.882 -2.3743 -2.6466 -0.0892
19558TIP3   OH280088   3.077   4.881  15.423  0.0600 -0.0885 -0.0960
19558TIP3    H180089   3.143   4.935  15.468  0.6761  0.8743 -2.0256
19558TIP3    H280090   3.010   4.943  15.395  0.7358 -0.2294 -2.2838
19559TIP3   OH280091   1.971   3.296  11.498  0.6404 -0.4131 -0.5082
19559TIP3    H180092   2.066   3.311  11.500  0.1971  3.6243  2.3450
19559TIP3    H280093   1.949   3.274  11.589 -1.3397  0.2229 -0.8020
19560TIP3   OH280094   6.464   5.871  11.725 -0.3916 -0.4539 -0.1793
19560TIP3    H180095   6.382   5.824  11.741 -1.5706  0.6724 -2.4427
19560TIP3    H280096   6.457   5.902  11.635  1.0927  2.5167  0.5889
19561TIP3   OH280097   6.282   1.314   0.576 -0.0810  0.3901  0.3471
19561TIP3    H180098   6.341   1.362   0.517  0.2499 -0.1998  0.1949
19561TIP3    H280099   6.271   1.372   0.651  0.9227  0.3870  0.5083
19562TIP3   OH280100   2.107   3.935  15.531 -0.2421  0.4122 -0.2925
19562TIP3    H180101   2.130   3.943  15.624 -1.6569  0.5357  0.0633
19562TIP3    H280102   2.099   3.841  15.517  0.1494  0.3843 -0.3382
19563TIP3   OH280103   2.999   3.280  12.993 -0.3642  0.6310  0.0153
19563TIP3    H180104   2.974   3.226  13.069  0.8880 -0.6047 -0.4026
19563TIP3    H280105   3.087   3.311  13.013 -0.3486  0.9888 -0.5743
19564TIP3   OH280106   3.839   4.114   4.246  0.0315 -0.4112 -0.5563
19564TIP3    H180107   3.819   4.024   4.218  0.3582 -0.8988  0.7166
19564TIP3    H280108   3.922   4.134   4.203  1.0053 -1.4975  0.7112
19565TIP3   OH280109   0.646   3.562   4.617 -0.4440  0.6973  0.3376
19565TIP3    H180110   0.587   3.511   4.674 -0.7577  0.6000 -0.0646
19565TIP3    H280111   0.717   3.590   4.675  0.7467 -1.7737  0.2081
19566TIP3   OH280112   0.157   2.217  12.882  0.1557  0.5484  0.5856
19566TIP3    H180113   0.197   2.142  12.837  1.7455  1.2596  0.7420
19566TIP3    H280114   0.208   2.227  12.962  0.5086  2.2727  0.1803
19567TIP3   OH280115   0.931   1.834  12.748  0.5687 -0.3296  0.3610
19567TIP3    H180116   0.957   1.746  12.722 -0.2229 -0.2044 -1.0061
19567TIP3    H280117   1.013   1.883  12.755  0.9764 -1.0393  0.5824
19568TIP3   OH280118   3.071   3.879  12.288 -0.3052  0.4947  0.6605
19568TIP3    H180119   3.041   3.898  12.200 -0.0979  0.2313  0.5307
19568TIP3    H280120   3.148   3.823  12.276  0.7724  1.8527  0.9479
19569TIP3   OH280121   4.391   3.703   0.894 -0.1328  0.1700 -0.5539
19569TIP3    H180122   4.329   3.751   0.839  1.8946  0.9815 -2.2522
19569TIP3    H280123   4.457   3.768   0.918 -1.0966 -0.0404  3.2777
19570TIP3   OH280124   4.104   6.245   4.019 -0.2039 -0.2909 -0.2614
19570TIP3    H180125   4.074   6.331   3.990  1.4477 -0.2305 -2.0303
19570TIP3    H280126   4.144   6.261   4.105  2.8067  1.4164 -1.8332
19571TIP3   OH280127   2.326   4.730   4.291  0.9515  0.1534 -0.7842
19571TIP3    H180128   2.412   4.763   4.315  0.5196  0.3827  0.5046
19571TIP3    H280129   2.335   4.634   4.296  0.4031  0.1621  2.2746
19572TIP3   OH280130   1.116   1.423  12.587  0.1251 -0.5178 -0.3558
19572TIP3    H180131   1.059   1.424  12.664  1.0849  0.8145  0.3796
19572TIP3    H280132   1.181   1.355  12.607 -0.8517 -1.6726 -0.9669
19573TIP3   OH280133   5.527   5.676  11.636  0.1729 -0.4068  0.5698
19573TIP3    H180134   5.546   5.609  11.569  1.2561 -1.3617  1.7608
19573TIP3    H280135   5.432   5.686  11.633  0.1108 -1.0412 -0.5362
19574TIP3   OH280136   0.135   3.216  12.508  0.1267 -0.3855  0.1459
19574TIP3    H180137   0.215   3.167  12.488  0.4807  0.0115  0.5702
19574TIP3    H280138   0.121   3.204  12.602  1.2220  1.7376  0.6528
19575TIP3   OH280139   0.764   1.069   2.581  0.1783  0.3783 -0.2994
19575TIP3    H180140   0.801   0.986   2.549  0.7079  0.2258  0.6812
19575TIP3    H280141   0.721   1.106   2.504  1.5995  0.1204 -1.2671
19576TIP3   OH280142   3.523   1.024   0.144 -0.6877 -0.8189  0.2364
19576TIP3    H180143   3.481   0.973   0.213 -2.2631  1.3313  0.9793
19576TIP3    H280144   3.490   0.986   0.063 -2.4980 -0.5114  0.7800
19577TIP3   OH280145   4.065   6.615  13.000  0.5837  0.0936 -0.6215
19577TIP3    H180146   4.153   6.645  13.020  0.1996  0.1310  1.1799
19577TIP3    H280147   4.022   6.607  13.085 -0.3691 -2.3926 -1.2303
19578TIP3   OH280148   4.917   6.716  15.634 -0.1467 -0.2521  0.4519
19578TIP3    H180149   4.926   6.687  15.543 -0.9260  1.6497 -0.2994
19578TIP3    H280150   4.891   6.638  15.682 -1.3447 -0.9942 -1.2877
19579TIP3   OH280151   3.371   2.641  16.256 -0.3040  0.2631 -0.3073
19579TIP3    H180152   3.389   2.573  16.191 -0.7625 -1.0605  0.9068
19579TIP3    H280153   3.455   2.655  16.299 -0.6793 -1.2133  0.9712
19580TIP3   OH280154   0.531   1.157   1.608 -1.1059  0.5331 -0.4507
19580TIP3    H180155   0.532   1.200   1.523 -1.4291  1.7172  0.1195
19580TIP3    H280156   0.548   1.227   1.671  0.8108 -0.5875  0.3768
19581TIP3   OH280157   3.558   6.474   0.800 -1.1025  0.1914  0.1695
19581TIP3    H180158   3.531   6.513   0.717 -0.2399  2.0769  0.7362
19581TIP3    H280159   3.627   6.412   0.776  0.7468  2.3378 -0.3829
19582TIP3   OH280160   5.095   5.746   0.455  0.1287  0.4191  0.4019
19582TIP3    H180161   5.104   5.655   0.425 -0.3382  0.6982 -0.6007
19582TIP3    H280162   5.003   5.753   0.480  0.3503  0.3945  1.2601
19583TIP3   OH280163   3.010   1.365  15.000 -0.1506  0.4982 -0.0772
19583TIP3    H180164   2.940   1.346  15.063  0.5031 -1.4863  0.1138
19583TIP3    H280165   3.091   1.350  15.049  0.3791  0.1431 -1.0516
19584TIP3   OH280166   1.861   2.592   4.490 -0.1735 -0.0398 -0.0817
19584TIP3    H180167   1.887   2.683   4.476 -0.5626  0.3798  1.6441
19584TIP3    H280168   1.777   2.583   4.445  0.5531  0.0047 -1.5083
19585TIP3   OH280169   6.597   2.308   2.927 -0.5011 -0.7458 -0.4828
19585TIP3    H180170   6.679   2.354   2.942 -0.4406 -0.0455 -2.6951
19585TIP3    H280171   6.532   2.378   2.915 -1.0788 -1.2792 -0.5303
19586TIP3   OH280172   1.696   3.138   2.732 -0.9906  0.0016  0.4366
19586TIP3    H180173   1.643   3.175   2.661 -2.5320 -0.9978  1.0397
19586TIP3    H280174   1.750   3.212   2.762 -0.4772  0.5130 -1.5775
19587TIP3   OH280175   3.518   4.906  17.162 -0.2935 -0.1155 -0.0050
19587TIP3    H180176   3.535   4.926  17.254  0.1553 -1.3355  0.2072
19587TIP3    H280177   3.579   4.961  17.114 -0.9491  0.9748  0.3880
19588TIP3   OH280178   0.077   3.834  16.168  0.2086  0.2290  0.0258
19588TIP3    H180179   0.018   3.876  16.230  1.4835 -0.7901  2.0130
19588TIP3    H280180   0.059   3.878  16.085 -1.6760  1.5255  1.0485
19589TIP3   OH280181   2.868   4.467  14.121 -0.0139 -0.4171  0.0183
19589TIP3    H180182   2.895   4.396  14.063  0.7904 -0.2460  0.1695
19589TIP3    H280183   2.922   4.456  14.199 -0.5676 -0.2059  0.4372
19590TIP3   OH280184   5.199   3.695  12.389  0.3017 -0.2994 -0.1051
19590TIP3    H180185   5.134   3.630  12.362 -0.2541  0.4280 -0.5681
19590TIP3    H280186   5.157   3.779  12.370  0.9545  0.1950  0.6028
19591TIP3   OH280187   3.022   4.015   0.031  0.8470  0.6073  0.2076
19591TIP3    H180188   3.072   4.082   0.077  1.0637 -0.7094  1.9627
19591TIP3    H280189   2.982   3.963   0.101  0.9248 -1.2768 -1.0950
19592TIP3   OH280190   6.257   1.865   0.501  0.3640  0.3994  0.2658
19592TIP3    H180191   6.331   1.836   0.448  1.0163 -0.6633  1.7028
19592TIP3    H280192   6.210   1.785   0.523  1.0593  0.5945  2.6529
19593TIP3   OH280193   0.753   3.621  15.752 -0.3223  0.3775  0.1715
19593TIP3    H180194   0.809   3.550  15.783 -2.3307 -1.6957 -0.6053
19593TIP3    H280195   0.749   3.608  15.657 -2.2702  0.2753  0.2273
19594TIP3   OH280196   5.907   1.072   5.564 -0.4390 -0.0797  0.0206
19594TIP3    H180197   5.957   1.009   5.513 -0.2938  0.1257 -0.0948
19594TIP3    H280198   5.827   1.086   5.513  0.8126  2.0615 -1.5145
19595TIP3   OH280199   2.368   3.038  11.980 -0.1899  0.5154  0.1712
19595TIP3    H180200   2.431   3.089  11.930 -0.9491  0.7580 -0.5740
19595TIP3    H280201   2.421   2.988  12.042  0.8220 -0.0796 -1.1300
19596TIP3   OH280202   5.265   6.241   3.797  0.4039  0.3996  0.1903
19596TIP3    H180203   5.172   6.252   3.817  0.3223  0.9586 -0.4268
19596TIP3    H280204   5.301   6.196   3.873 -0.4453 -0.1698  0.2662
19597TIP3   OH280205   1.504   3.939  11.722  0.7126 -0.9990 -0.1659
19597TIP3    H180206   1.557   3.991  11.783 -0.3119  1.3104 -1.1224
19597TIP3    H280207   1.414   3.967  11.739  0.3501 -0.7503 -2.2809
19598TIP3   OH280208   5.016   6.768  16.474 -0.2542  0.2669  0.1068
19598TIP3    H180209   5.079   6.726  16.532 -0.4573  0.4869  0.4879
19598TIP3    H280210   4.966   6.827  16.530  0.4446  1.4932 -0.5279
19599TIP3   OH280211   4.915   0.721   5.538  0.5318  0.4718  0.2446
19599TIP3    H180212   4.990   0.679   5.581 -0.7426 -0.9429  1.1545
19599TIP3    H280213   4.937   0.718   5.445  0.8380 -1.5914  0.3365
19600TIP3   OH280214   1.144   5.361  16.062 -0.2586  0.0013 -0.0462
19600TIP3    H180215   1.201   5.428  16.101  0.4870 -0.5753 -0.1130
19600TIP3    H280216   1.055   5.390  16.083  0.0939  0.1449  1.3585
19601TIP3   OH280217   4.678   3.893   2.919 -0.2546  0.2557 -0.0967
19601TIP3    H180218   4.730   3.879   2.998  0.0921  0.7448 -0.2325
19601TIP3    H280219   4.741   3.886   2.848 -0.9971 -3.0111 -0.5948
19602TIP3   OH280220   6.234   1.953   1.458 -0.4748  0.4444 -0.3536
19602TIP3    H180221   6.206   1.915   1.375 -2.6207 -0.3404  0.6561
19602TIP3    H280222   6.234   2.048   1.442 -0.4195  0.2798 -1.3772
19603TIP3   OH280223   3.875   5.381   5.953 -0.4500 -0.0502 -0.1643
19603TIP3    H180224   3.825   5.300   5.963 -1.8792  0.7658 -0.4755
19603TIP3    H280225   3.913   5.396   6.040 -0.3837 -0.9085 -0.0355
19604TIP3   OH280226   1.059   3.985   4.312 -0.4944  0.2095  0.2058
19604TIP3    H180227   0.978   4.002   4.360 -1.9192 -0.0428 -1.9897
19604TIP3    H280228   1.108   4.068   4.318 -1.0963  0.5123  1.1940
19605TIP3   OH280229   5.859   3.688  11.577  0.2799 -0.5717 -0.2899
19605TIP3    H180230   5.916   3.713  11.505  0.7319 -0.2425  0.1735
19605TIP3    H280231   5.778   3.659  11.535 -0.2140  1.5139 -0.8501
19606TIP3   OH280232   5.805   4.836   1.811  0.1611  0.1995 -0.4659
19606TIP3    H180233   5.876   4.777   1.835  0.1282  0.3869  0.1148
19606TIP3    H280234   5.726   4.795   1.847 -0.0032  0.0667 -0.9799
19607TIP3   OH280235   2.839   3.481  10.899  0.8293  0.0647  0.5712
19607TIP3    H180236   2.850   3.537  10.822  0.0077 -1.6423 -0.8501
19607TIP3    H280237   2.927   3.469  10.933  1.3752 -0.1643 -0.8691
19608TIP3   OH280238   1.712   3.933  13.824 -0.0719  0.0621  0.2692
19608TIP3    H180239   1.646   3.913  13.758 -0.7839 -0.2027  1.0432
19608TIP3    H280240   1.771   3.996  13.781 -0.6648  0.0876 -0.5228
19609TIP3   OH280241   4.733   2.937  12.100 -0.4854  0.5739 -0.1785
19609TIP3    H180242   4.753   2.844  12.103 -0.3958  0.6202  1.1030
19609TIP3    H280243   4.702   2.952  12.010 -1.0365 -0.7840 -0.2372
19610TIP3   OH280244   5.749   1.318  12.857  0.3462  0.0178  0.5328
19610TIP3    H180245   5.792   1.233  12.847  1.1557  0.5229 -0.5413
19610TIP3    H280246   5.804   1.365  12.919  0.7602  0.2736 -0.0132
19611TIP3   OH280247   1.019   3.073   0.560  0.3520 -0.2853 -0.9718
19611TIP3    H180248   1.070   2.992   0.553 -0.8630 -1.0329 -1.6727
19611TIP3    H280249   0.969   3.076   0.479 -0.0122  0.9131 -0.7158
19612TIP3   OH280250   4.454   0.121  16.344  0.1738  0.5845  0.3258
19612TIP3    H180251   4.532   0.111  16.290 -0.0718 -0.4057  0.1452
19612TIP3    H280252   4.386   0.149  16.284 -0.1321 -0.6458  0.0865
19613TIP3   OH280253   3.388   4.020   0.490 -0.2731  0.0811 -0.6201
19613TIP3    H180254   3.446   4.084   0.531 -0.2879  1.3286 -2.4769
19613TIP3    H280255   3.363   3.962   0.562  0.9948  1.2074  0.7922
19614TIP3   OH280256   4.687   4.525   1.736  0.0715 -0.0432  0.1668
19614TIP3    H180257   4.738   4.533   1.817  1.2887  0.7373 -0.6452
19614TIP3    H280258   4.753   4.519   1.667 -0.7592 -4.6540 -0.5641
19615TIP3   OH280259   5.417   2.460  16.721 -0.0401 -1.0092 -0.5819
19615TIP3    H180260   5.500   2.481  16.764 -0.7013  0.5995 -0.0125
19615TIP3    H280261   5.382   2.386  16.771  0.1833 -0.4853  0.3781
19616TIP3   OH280262   2.854   3.506  11.482  0.5305 -0.2866  0.6956
19616TIP3    H180263   2.774   3.515  11.535  0.3419  0.0974  0.3480
19616TIP3    H280264   2.851   3.579  11.421  0.9825 -0.4662  0.4533
19617TIP3   OH280265   5.290   6.086   1.826  0.0768  0.9686 -0.0174
19617TIP3    H180266   5.262   6.030   1.753 -1.5427  0.2249  1.1085
19617TIP3    H280267   5.381   6.107   1.806  0.2036 -0.6185 -1.3921
19618TIP3   OH280268   3.770   2.535   5.295  0.4412 -0.6276  0.7424
19618TIP3    H180269   3.836   2.538   5.364  0.7181  0.5334  0.4403
19618TIP3    H280270   3.715   2.612   5.310  0.5246 -0.3342 -0.3445
19619TIP3   OH280271   5.747   4.559   2.861 -0.3897 -0.0617 -0.5335
19619TIP3    H180272   5.828   4.607   2.845 -0.8437  1.3225  1.0162
19619TIP3    H280273   5.772   4.467   2.855  0.9896  0.3324 -1.4112
19620TIP3   OH280274   5.441   3.774   3.537  0.4066  0.6138 -0.1099
19620TIP3    H180275   5.405   3.839   3.596 -1.7770 -0.3484 -0.2710
19620TIP3    H280276   5.492   3.715   3.594 -1.0746  0.1052  0.7495
19621TIP3   OH280277   6.277   1.522   5.432 -0.0158  0.0673 -0.0051
19621TIP3    H180278   6.369   1.500   5.451  0.9604  2.1285 -1.8085
19621TIP3    H280279   6.249   1.456   5.369  0.5863 -0.0060 -0.2066
19622TIP3   OH280280   3.064   2.313  16.582 -0.4279  0.1170 -0.6414
19622TIP3    H180281   3.030   2.246  16.523  3.5037 -1.9286 -0.9757
19622TIP3    H280282   3.151   2.282  16.605  0.0386  3.1741  2.5794
19623TIP3   OH280283   6.346   6.161  16.219 -0.3228  0.2718  0.0570
19623TIP3    H180284   6.303   6.095  16.273  0.1475  1.5914  2.1544
19623TIP3    H280285   6.281   6.229  16.206 -0.1990  0.3027 -0.4606
19624TIP3   OH280286   0.670   2.795   6.330  0.4845  0.2035  0.2688
19624TIP3    H180287   0.694   2.765   6.242  1.0263 -0.5722  0.6681
19624TIP3    H280288   0.714   2.733   6.389 -0.9287 -0.0649  1.0742
19625TIP3   OH280289   5.415   5.599   4.579  0.3084 -0.1632  0.0503
19625TIP3    H180290   5.421   5.504   4.574  0.9012 -0.1011 -0.7006
19625TIP3    H280291   5.425   5.620   4.671 -0.4322 -0.8592  0.3047
19626TIP3   OH280292   4.530   2.564   0.950  0.1073 -0.2583  0.8398
19626TIP3    H180293   4.565   2.483   0.913 -0.9110  0.2288 -1.3627
19626TIP3    H280294   4.545   2.556   1.044  2.1755 -1.9247  0.4372
19627TIP3   OH280295   0.063   2.812  12.982  0.3939 -0.0617 -0.3341
19627TIP3    H180296   0.056   2.779  13.072  1.7035  0.7047  0.0799
19627TIP3    H280297  -0.002   2.882  12.977 -0.2203 -0.6119 -0.2396
19628TIP3   OH280298   3.608   6.108   4.932 -0.8669 -0.0910 -0.3637
19628TIP3    H180299   3.523   6.078   4.964 -1.5524  2.2269  0.2041
19628TIP3    H280300   3.587   6.175   4.867  0.5565 -1.5433 -2.4560
19629TIP3   OH280301   1.281   5.617   1.063 -0.0828 -0.1996 -0.1322
19629TIP3    H180302   1.302   5.524   1.070  1.1070  0.0332 -0.3620
19629TIP3    H280303   1.214   5.621   0.995  0.4077 -0.8205 -0.6634
19630TIP3   OH280304   1.222   4.401   0.849  0.0727  0.1231  0.0776
19630TIP3    H180305   1.297   4.418   0.792 -0.3744  1.5498 -0.1226
19630TIP3    H280306   1.173   4.483   0.851 -0.6338 -0.2855  1.4899
19631TIP3   OH280307   0.397   4.346   0.695  0.2888  0.3253  0.2331
19631TIP3    H180308   0.414   4.271   0.752 -1.4771  0.9093  1.6423
19631TIP3    H280309   0.408   4.422   0.752  1.9774  1.1678 -1.1575
19632TIP3   OH280310   3.258   2.008  13.966  0.1533  0.0952  0.6324
19632TIP3    H180311   3.304   2.045  14.042  0.0293  1.3999  0.1023
19632TIP3    H280312   3.266   2.075  13.899 -2.4989  0.3647  0.5082
19633TIP3   OH280313   0.450   0.228   2.765 -0.4153 -0.0637 -0.1776
19633TIP3    H180314   0.361   0.263   2.771 -0.2466  0.2800  0.4586
19633TIP3    H280315   0.482   0.259   2.681 -1.2715 -1.1065 -0.9213
19634TIP3   OH280316   2.239   4.400   1.661  0.0784  0.5697 -0.0345
19634TIP3    H180317   2.275   4.364   1.742  0.5826  0.7536 -0.1737
19634TIP3    H280318   2.166   4.342   1.639  1.0844 -0.5811 -0.4415
19635TIP3   OH280319   0.455   0.808  11.579  0.8069 -0.0900  0.4650
19635TIP3    H180320   0.517   0.736  11.579  0.6648 -0.2295 -0.6645
19635TIP3    H280321   0.492   0.872  11.518 -0.5534 -0.5438 -0.8787
19636TIP3   OH280322   2.602   6.043  15.240  0.4297  0.4484 -0.8638
19636TIP3    H180323   2.603   5.973  15.175  1.6722 -1.5812  1.1884
19636TIP3    H280324   2.667   6.107  15.209  1.0359 -0.5008 -1.5934
19637TIP3   OH280325   4.870   4.444   3.189 -0.8580 -0.2652  0.3157
19637TIP3    H180326   4.870   4.518   3.249 -0.7923 -0.5255  0.6391
19637TIP3    H280327   4.816   4.473   3.115  2.5249  1.7032 -1.5790
19638TIP3   OH280328   4.356   4.368   1.016 -0.1813 -0.0693 -0.7578
19638TIP3    H180329   4.342   4.400   1.105 -0.7674 -1.1488 -0.4432
19638TIP3    H280330   4.359   4.273   1.025  2.7054 -0.1290 -1.4975
19639TIP3   OH280331   1.128   1.005   2.558  0.2444 -0.0756 -0.3600
19639TIP3    H180332   1.190   0.963   2.617 -1.6514 -1.0442  1.0760
19639TIP3    H280333   1.063   0.937   2.539 -1.2744  1.3212 -0.4199
19640TIP3   OH280334   1.455   4.930   5.899  0.0959 -0.2308  0.0145
19640TIP3    H180335   1.544   4.949   5.927  0.1646 -0.9180  0.2746
19640TIP3    H280336   1.449   4.965   5.810  0.1730  1.1144  0.5271
19641TIP3   OH280337   5.003   0.865  15.902 -0.1602 -0.2765  0.1391
19641TIP3    H180338   4.952   0.908  15.971 -0.2421 -1.2248  0.6770
19641TIP3    H280339   4.961   0.780  15.890 -1.5358  0.6337 -2.6413
19642TIP3   OH280340   2.409   6.547   6.000 -0.3606  0.1874 -0.4462
19642TIP3    H180341   2.446   6.460   6.014 -0.9038 -0.0619 -0.5567
19642TIP3    H280342   2.388   6.549   5.907  0.3977  0.7317 -0.6124
19643TIP3   OH280343   0.568   4.237  14.404  0.0583  0.3891  0.0046
19643TIP3    H180344   0.476   4.214  14.392 -0.2687  2.0030 -0.9106
19643TIP3    H280345   0.603   4.240  14.315  0.7149  0.8284  0.2736
19644TIP3   OH280346   3.445   5.555  16.111  0.2440  0.0660 -0.0828
19644TIP3    H180347   3.410   5.639  16.142  0.5300  0.8525 -1.7738
19644TIP3    H280348   3.380   5.523  16.049  1.1938  0.1768 -1.1682
19645TIP3   OH280349   3.601   5.066  12.251 -0.1182 -0.4292 -0.0581
19645TIP3    H180350   3.507   5.052  12.239 -0.5440 -0.7150  2.9108
19645TIP3    H280351   3.633   4.982  12.285  1.6497 -0.9286 -2.6072
19646TIP3   OH280352   1.608   6.089   2.395  0.2154 -0.0925 -0.1274
19646TIP3    H180353   1.643   6.001   2.381 -1.4974 -1.0797  1.3196
19646TIP3    H280354   1.685   6.142   2.416  1.1525 -1.5507  0.3045
19647TIP3   OH280355   3.262   4.458   1.592  0.3538  0.0778  0.2845
19647TIP3    H180356   3.302   4.377   1.561  0.0919  0.2350 -0.4983
19647TIP3    H280357   3.320   4.489   1.661  0.9772 -0.2755 -0.0753
19648TIP3   OH280358   3.146   1.699  11.179  0.0860  0.2387 -0.3536
19648TIP3    H180359   3.208   1.669  11.246 -0.1646  1.7426  0.5983
19648TIP3    H280360   3.173   1.789  11.160 -0.0757 -0.0342 -2.0408
19649TIP3   OH280361   4.637   0.565   1.837  0.4277  0.0821  0.6318
19649TIP3    H180362   4.687   0.592   1.914  1.3071 -0.1450  0.1437
19649TIP3    H280363   4.601   0.480   1.861  2.0258 -0.7358  0.2130
19650TIP3   OH280364   2.138   0.473  15.512  0.0993 -0.7888  0.8603
19650TIP3    H180365   2.154   0.401  15.451  0.8790  0.4333 -0.4524
19650TIP3    H280366   2.224   0.515  15.521 -0.0639 -0.7574  2.6066
19651TIP3   OH280367   3.733   5.277   1.991  0.4863 -0.1067 -0.1888
19651TIP3    H180368   3.638   5.278   2.006  0.4098 -1.6855 -0.3641
19651TIP3    H280369   3.770   5.315   2.071 -0.2659 -0.3091  0.2704
19652TIP3   OH280370   1.210   0.179   1.060 -0.1040  0.0606  0.6682
19652TIP3    H180371   1.168   0.226   1.132 -0.0912  2.6798 -0.9105
19652TIP3    H280372   1.170   0.215   0.981  2.1893 -0.3090 -0.7627
19653TIP3   OH280373   3.863   1.313  16.276  0.2067  0.1399 -0.3118
19653TIP3    H180374   3.835   1.302  16.367  1.1071  0.4551  0.0111
19653TIP3    H280375   3.877   1.224  16.244 -1.0843 -0.0273 -0.4695
19654TIP3   OH280376   0.906   5.844  11.197  0.1428 -0.3283 -0.1704
19654TIP3    H180377   0.840   5.851  11.267  0.2499 -1.3823  0.0564
19654TIP3    H280378   0.876   5.771  11.143  0.0313  0.5105 -1.2866
19655TIP3   OH280379   2.303   0.530   4.220 -0.9310  0.1601 -0.1480
19655TIP3    H180380   2.368   0.493   4.160 -1.7046  2.5014 -2.6587
19655TIP3    H280381   2.220   0.519   4.174 -2.0931 -0.8403  2.0385
19656TIP3   OH280382   1.275   3.242  10.928 -0.2218  0.1398  0.3319
19656TIP3    H180383   1.350   3.300  10.941  0.1394 -0.3896  0.6234
19656TIP3    H280384   1.202   3.302  10.912  0.2395  0.6631  0.1260
19657TIP3   OH280385   5.253   2.621  12.152  0.6781  0.0111  0.3643
19657TIP3    H180386   5.315   2.693  12.143 -0.3860  0.9220  0.0203
19657TIP3    H280387   5.170   2.664  12.173  0.0842 -1.1386  0.4207
19658TIP3   OH280388   3.737   2.751  14.635 -0.2502 -0.3566  0.3315
19658TIP3    H180389   3.758   2.695  14.710 -0.9945  0.0055  0.8182
19658TIP3    H280390   3.788   2.831  14.649  0.5885 -0.7726 -0.2153
19659TIP3   OH280391   0.579   1.216   2.885 -0.3758  0.1681  0.0612
19659TIP3    H180392   0.494   1.184   2.913  0.9066 -0.5232  3.6428
19659TIP3    H280393   0.618   1.143   2.836 -1.4495  0.2082 -0.9068
19660TIP3   OH280394   3.115   6.458  13.528  0.7327  0.1391 -0.0232
19660TIP3    H180395   3.075   6.507  13.600  0.6127  0.8975 -0.5858
19660TIP3    H280396   3.055   6.469  13.454  0.5520 -1.1403 -0.0840
19661TIP3   OH280397   0.483   4.086  11.174  0.3283 -0.2068 -0.4696
19661TIP3    H180398   0.419   4.127  11.116 -0.8923 -0.4103  0.6742
19661TIP3    H280399   0.537   4.158  11.206  0.4482  0.0174 -1.1756
19662TIP3   OH280400   2.359   1.867  11.129 -0.0740 -0.3637  0.0609
19662TIP3    H180401   2.347   1.832  11.217  0.8427  0.3939  0.5024
19662TIP3    H280402   2.288   1.930  11.118  0.3885  0.2650  0.6411
19663TIP3   OH280403   0.721   1.066   5.736 -0.2996 -0.3696  0.7597
19663TIP3    H180404   0.638   1.105   5.709 -0.6010  0.1052  2.3333
19663TIP3    H280405   0.716   1.061   5.831  1.5382 -0.1990  0.8959
19664TIP3   OH280406   5.204   3.000  11.150  0.0097 -0.2489  0.3112
19664TIP3    H180407   5.109   3.000  11.142  0.0172  1.4871 -0.1333
19664TIP3    H280408   5.232   2.924  11.097 -1.0303  0.2950 -1.0822
19665TIP3   OH280409   4.005   0.412  16.344  0.3870 -0.1804 -0.5022
19665TIP3    H180410   3.989   0.495  16.299 -0.6477 -0.4289 -0.6184
19665TIP3    H280411   4.087   0.426  16.392 -0.0500  1.0791 -0.0893
19666TIP3   OH280412   5.844   4.925   3.248  0.2983  0.1228 -0.4054
19666TIP3    H180413   5.756   4.941   3.283 -0.4189 -0.1663 -1.9575
19666TIP3    H280414   5.833   4.848   3.191  1.0161  1.4331 -2.4252
19667TIP3   OH280415   3.760   3.767   4.209 -0.4926 -0.0427  0.1600
19667TIP3    H180416   3.735   3.733   4.123 -1.6250 -1.1063  0.8670
19667TIP3    H280417   3.684   3.747   4.265  0.0224  1.0688  1.2885
19668TIP3   OH280418   3.242   4.490   4.961 -0.1141 -0.5500  0.2649
19668TIP3    H180419   3.287   4.536   5.032  2.7616 -2.2035 -0.3083
19668TIP3    H280420   3.240   4.399   4.989 -1.0274 -0.8714 -0.7889
19669TIP3   OH280421   3.352   3.488   1.046  0.4475  0.2474 -0.4168
19669TIP3    H180422   3.273   3.500   1.099 -0.5476  0.4831 -1.8781
19669TIP3    H280423   3.424   3.505   1.106 -0.5580 -1.1004  1.2682
19670TIP3   OH280424   2.193   1.575   3.127  0.0163 -0.0691 -0.3345
19670TIP3    H180425   2.167   1.651   3.074  1.4545  0.9506  0.3564
19670TIP3    H280426   2.140   1.581   3.206 -0.3201 -0.1444 -0.5540
19671TIP3   OH280427   1.388   3.717  16.483  0.2842  0.1683 -0.4064
19671TIP3    H180428   1.454   3.752  16.423  0.4063  0.6899  0.0237
19671TIP3    H280429   1.430   3.721  16.569 -0.5308  1.0970 -0.0369
19672TIP3   OH280430   2.519   0.829   3.656 -0.1851  0.3223 -0.0493
19672TIP3    H180431   2.599   0.838   3.709 -0.9566  3.0014  0.8650
19672TIP3    H280432   2.540   0.762   3.591  1.6485 -1.4063  2.1514
19673TIP3   OH280433   5.601   0.573   5.219 -0.1424 -0.3811  0.4003
19673TIP3    H180434   5.562   0.649   5.263 -1.8458 -1.0549  0.0941
19673TIP3    H280435   5.539   0.502   5.232  0.8554 -1.4360 -0.3561
19674TIP3   OH280436   4.528   5.987  15.380 -0.3028 -0.3271 -0.0892
19674TIP3    H180437   4.598   5.947  15.432  0.8321 -0.5607 -1.7102
19674TIP3    H280438   4.526   6.078  15.407  0.3775 -0.4107  0.2504
19675TIP3   OH280439   4.280   4.879   1.073  0.3373  0.0182  0.0921
19675TIP3    H180440   4.350   4.923   1.025 -0.3780  1.0933 -0.0093
19675TIP3    H280441   4.201   4.895   1.021 -0.0949 -0.6295  0.5269
19676TIP3   OH280442   4.943   1.716  13.574 -0.2970  0.0573  0.1413
19676TIP3    H180443   5.013   1.770  13.612  0.6247 -0.1369 -1.2001
19676TIP3    H280444   4.971   1.626  13.589  0.3853 -0.0267 -1.4576
19677TIP3   OH280445   2.557   3.152  14.577 -0.8778 -0.0103  0.3304
19677TIP3    H180446   2.522   3.068  14.548 -0.2755 -0.0411 -0.3535
19677TIP3    H280447   2.592   3.192  14.497 -2.6118  1.6322  0.3290
19678TIP3   OH280448   3.395   1.564   2.352 -0.4122 -0.1244 -0.6098
19678TIP3    H180449   3.318   1.548   2.297 -0.0645  0.2765 -1.2227
19678TIP3    H280450   3.420   1.477   2.383 -1.7607 -0.1575  0.5025
19679TIP3   OH280451   3.509   5.112   4.709 -0.1626  0.1998 -0.1766
19679TIP3    H180452   3.536   5.118   4.801  2.4052 -0.4482 -0.8031
19679TIP3    H280453   3.492   5.019   4.695 -1.8716  0.4668 -0.0715
19680TIP3   OH280454   1.657   1.895  12.675 -0.7082 -0.0854 -0.4814
19680TIP3    H180455   1.735   1.841  12.663 -0.8849 -0.1867 -1.1716
19680TIP3    H280456   1.584   1.836  12.659 -0.9086  0.2591 -0.8400
19681TIP3   OH280457   4.468   2.918  12.922  0.0927  0.7088  0.0889
19681TIP3    H180458   4.385   2.884  12.888 -0.1520  1.5868 -0.2301
19681TIP3    H280459   4.532   2.849  12.905 -0.2906  0.6027 -0.9730
19682TIP3   OH280460   3.325   2.825   1.157 -1.2277  0.6517  0.3396
19682TIP3    H180461   3.311   2.755   1.093  1.8457 -0.1447  0.3643
19682TIP3    H280462   3.314   2.783   1.242  0.4033  0.1599  0.3497
19683TIP3   OH280463   4.001   1.258  13.677 -0.1553  0.3738  0.3158
19683TIP3    H180464   3.998   1.173  13.634 -0.6414  1.0211 -0.9946
19683TIP3    H280465   4.060   1.310  13.623  1.9740  0.2554  2.3560
19684TIP3   OH280466   0.820   2.436  15.592 -0.6094  0.2072 -0.5433
19684TIP3    H180467   0.813   2.518  15.543  1.2853  1.5489  1.2531
19684TIP3    H280468   0.854   2.373  15.529 -0.3956  1.2693 -1.5225
19685TIP3   OH280469   4.100   2.381  12.239  0.3426  0.1291 -0.5558
19685TIP3    H180470   4.143   2.329  12.308 -0.3608 -1.7309 -1.4465
19685TIP3    H280471   4.011   2.345  12.234 -0.1217  1.3219 -1.3543
19686TIP3   OH280472   4.658   1.609  12.488 -0.3755 -0.4137 -0.3260
19686TIP3    H180473   4.619   1.654  12.413 -0.2516 -1.0736 -0.7918
19686TIP3    H280474   4.737   1.660  12.508 -0.5390 -0.0955 -0.4830
19687TIP3   OH280475   3.617   0.788  16.643 -0.0701  0.6421  0.0951
19687TIP3    H180476   3.675   0.846  16.593  1.4818 -1.0459 -0.1826
19687TIP3    H280477   3.664   0.772  16.725 -1.5907  1.6444  1.2093
19688TIP3   OH280478   5.148   0.770   2.405 -0.3589 -0.1613 -0.3045
19688TIP3    H180479   5.062   0.750   2.442  0.1010  0.6535  1.2993
19688TIP3    H280480   5.195   0.815   2.476  1.3900 -0.5860 -1.1350
19689TIP3   OH280481   4.080   2.204   5.633  0.1286 -0.1391 -0.1327
19689TIP3    H180482   3.998   2.226   5.677 -1.0183  0.8511 -2.6207
19689TIP3    H280483   4.073   2.111   5.614  0.3074 -0.4070  0.9940
19690TIP3   OH280484   3.502   4.388  11.487 -0.0102  0.1546  0.5507
19690TIP3    H180485   3.467   4.476  11.499 -1.2516 -0.2874  0.3662
19690TIP3    H280486   3.555   4.393  11.408  0.0217  0.7667  0.6104
19691TIP3   OH280487   5.730   0.779   4.120 -0.0648 -0.2580 -0.3846
19691TIP3    H180488   5.776   0.722   4.182 -0.1241 -0.0856 -0.1767
19691TIP3    H280489   5.665   0.723   4.078 -1.2052 -0.0031  0.9595
19692TIP3   OH280490   5.018   4.943  13.302 -0.4175 -0.1295 -0.1319
19692TIP3    H180491   5.032   4.855  13.268 -2.5909 -0.7689  0.4534
19692TIP3    H280492   4.940   4.936  13.357  0.0440  1.9231  0.9015
19693TIP3   OH280493   3.976   6.112   1.237 -0.3992  0.2994  0.1853
19693TIP3    H180494   3.906   6.171   1.210 -0.2887  0.2577 -0.2031
19693TIP3    H280495   3.988   6.054   1.162 -0.4560 -0.1705  0.5353
19694TIP3   OH280496   4.308   0.384   4.260  0.4335 -0.2206 -0.0114
19694TIP3    H180497   4.302   0.409   4.352 -0.3714  1.3108 -0.4584
19694TIP3    H280498   4.329   0.465   4.214 -0.7074 -0.6564 -1.3578
19695TIP3   OH280499   0.318   2.551  10.306 -0.5321 -0.2222  0.0427
19695TIP3    H180500   0.236   2.502  10.307 -0.1836 -0.8205  1.2926
19695TIP3    H280501   0.385   2.486  10.283 -0.2380 -0.0491  0.3961
19696TIP3   OH280502   6.171   5.768   2.931 -0.5307  0.2821  0.3922
19696TIP3    H180503   6.214   5.848   2.899  0.1486 -0.1780  0.1279
19696TIP3    H280504   6.240   5.724   2.981 -1.1054  0.1930  1.1173
19697TIP3   OH280505   2.469   2.827   3.022 -0.0438 -0.1423 -0.6453
19697TIP3    H180506   2.557   2.789   3.014 -0.2711 -0.9850  0.5304
19697TIP3    H280507   2.413   2.751   3.040 -1.0994  0.3224 -1.8963
19698TIP3   OH280508   4.714   4.001   1.939  0.1833  0.0852 -0.3974
19698TIP3    H180509   4.758   3.920   1.962  1.2277  0.6953 -0.1749
19698TIP3    H280510   4.684   4.037   2.022 -0.7478 -0.3165 -0.5455
19699TIP3   OH280511   0.555   6.350  11.562 -0.2504  0.4670  0.3127
19699TIP3    H180512   0.649   6.364  11.568  0.2461 -2.3877  0.3623
19699TIP3    H280513   0.531   6.309  11.645 -1.1087 -0.7506 -0.4935
19700TIP3   OH280514   2.358   2.430  12.527  0.1427  0.2929 -0.0314
19700TIP3    H180515   2.395   2.358  12.579 -0.2510  0.1496  0.0518
19700TIP3    H280516   2.378   2.406  12.437 -0.4099 -0.1664 -0.0369
19701TIP3   OH280517   0.234   3.421   1.744  0.1859 -0.5737 -0.3310
19701TIP3    H180518   0.161   3.386   1.693 -0.3116 -0.4496  0.2794
19701TIP3    H280519   0.312   3.381   1.705 -0.2092 -0.7569 -0.9504
19702TIP3   OH280520   4.369   4.563  12.125 -0.0654  0.8186 -0.3620
19702TIP3    H180521   4.445   4.505  12.118 -0.4834  0.1728  0.3471
19702TIP3    H280522   4.297   4.512  12.088 -0.5658  0.6351  0.8402
19703TIP3   OH280523   1.587   4.599   4.100 -0.5483 -0.1065  0.1393
19703TIP3    H180524   1.580   4.692   4.123  0.3631 -0.2760  1.1609
19703TIP3    H280525   1.552   4.553   4.177  2.1726 -0.6796  1.1461
19704TIP3   OH280526   5.651   3.223   3.476  0.2835  0.1104 -0.8653
19704TIP3    H180527   5.696   3.138   3.478  0.7333  0.3145 -1.9340
19704TIP3    H280528   5.604   3.223   3.392 -1.3111  0.1223 -0.0140
19705TIP3   OH280529   3.796   0.110  16.860  0.2385  0.4423 -0.1453
19705TIP3    H180530   3.734   0.174  16.894 -0.4755 -1.2510  1.9882
19705TIP3    H280531   3.741   0.039  16.827  0.9824 -0.6593  0.8941
19706TIP3   OH280532   5.398   1.360   0.175 -0.4069  0.1256  0.2924
19706TIP3    H180533   5.454   1.412   0.118 -2.1026  1.1769 -0.4824
19706TIP3    H280534   5.456   1.292   0.210  1.3865  1.2966 -0.2717
19707TIP3   OH280535   3.429   0.640   2.462  0.3207 -0.1834 -0.1008
19707TIP3    H180536   3.338   0.656   2.486 -0.6155 -1.0311 -2.6627
19707TIP3    H280537   3.456   0.566   2.516 -1.1508 -1.0688 -0.5054
19708TIP3   OH280538   0.898   0.072  14.815 -0.1010 -0.4837 -0.7087
19708TIP3    H180539   0.869   0.146  14.763 -0.1108  2.0576  2.6351
19708TIP3    H280540   0.985   0.096  14.846  0.3265 -2.3391 -0.2938
19709TIP3   OH280541   4.159   1.775   1.763 -0.1810  0.2256  0.1449
19709TIP3    H180542   4.174   1.831   1.838  1.5215  0.4475 -0.3263
19709TIP3    H280543   4.108   1.829   1.702  2.8431  1.9642 -1.0180
19710TIP3   OH280544   2.189   4.230   4.931 -0.0347  0.4350 -0.1896
19710TIP3    H180545   2.156   4.250   4.843  1.0239 -1.8907 -1.2180
19710TIP3    H280546   2.195   4.314   4.975 -3.2840  1.4220 -1.3379
19711TIP3   OH280547   5.759   2.714   3.404  0.3486 -0.4885  0.0992
19711TIP3    H180548   5.809   2.642   3.442  1.7353  1.0894  1.4181
19711TIP3    H280549   5.770   2.705   3.310  1.9976 -1.0081  0.3133
19712TIP3   OH280550   2.021   0.313  13.405 -0.4302 -0.0386  0.2210
19712TIP3    H180551   2.077   0.241  13.436  1.3746  1.5530  0.8519
19712TIP3    H280552   1.935   0.273  13.394  0.2066 -2.0064  1.7580
19713TIP3   OH280553   0.152   1.646  10.955  0.4216 -0.4614 -0.3632
19713TIP3    H180554   0.195   1.732  10.957  0.2967 -0.3684 -1.2002
19713TIP3    H280555   0.166   1.610  11.042  1.0647  0.1218 -0.2169
19714TIP3   OH280556   2.857   5.739   4.304  0.5090 -0.0787 -0.1793
19714TIP3    H180557   2.786   5.685   4.267  0.5203 -1.8788  2.1892
19714TIP3    H280558   2.937   5.699   4.269  0.4707 -0.7806  0.5147
19715TIP3   OH280559   4.986   3.023  16.204 -0.0199 -0.0361  0.0904
19715TIP3    H180560   4.915   2.980  16.251  0.7304 -2.0426 -0.4934
19715TIP3    H280561   4.984   2.984  16.117  1.1288  0.6320 -0.2602
19716TIP3   OH280562   3.394   3.151   1.730  0.5295 -0.0080 -0.1778
19716TIP3    H180563   3.481   3.136   1.694  0.7957  2.8277 -0.9185
19716TIP3    H280564   3.396   3.241   1.762 -1.9423 -0.0696  0.3572
19717TIP3   OH280565   2.698   1.769  10.866 -0.6500 -0.4411 -0.4531
19717TIP3    H180566   2.686   1.831  10.939 -1.5478 -1.8336  0.6451
19717TIP3    H280567   2.781   1.726  10.885 -0.0313  0.3807 -1.2118
19718TIP3   OH280568   0.881   4.130   6.281 -0.1832 -0.3941 -0.0396
19718TIP3    H180569   0.868   4.050   6.231  2.7322 -0.1642 -1.3365
19718TIP3    H280570   0.843   4.111   6.367 -0.8360 -2.6141 -0.7589
19719TIP3   OH280571   0.082   6.513   0.809 -0.2095 -0.0359 -0.0635
19719TIP3    H180572   0.036   6.560   0.877 -1.7491  0.4574 -1.3900
19719TIP3    H280573   0.152   6.573   0.782  1.9479 -1.1441  2.5655
19720TIP3   OH280574   3.117   0.262   4.481 -0.1118 -0.4822  0.5155
19720TIP3    H180575   3.206   0.286   4.452  0.5137 -1.4848  1.5470
19720TIP3    H280576   3.131   0.195   4.547 -1.6876 -1.1041  0.2419
19721TIP3   OH280577   2.728   6.617  11.509 -0.0978  0.4891  0.4531
19721TIP3    H180578   2.729   6.532  11.553 -0.1755  0.8527  1.1624
19721TIP3    H280579   2.757   6.679  11.576  1.0558  0.8788 -0.3753
19722TIP3   OH280580   0.663   3.912  14.222  0.8863  0.4719 -0.0438
19722TIP3    H180581   0.730   3.843  14.216 -0.2797 -0.5928 -3.1688
19722TIP3    H280582   0.696   3.982  14.166  0.1038  0.5949 -0.3598
19723TIP3   OH280583   2.917   4.420   1.307 -0.1778 -0.0774  0.1783
19723TIP3    H180584   2.881   4.507   1.286 -0.6008 -0.1453  0.5969
19723TIP3    H280585   2.913   4.372   1.224 -0.6872  0.0498  0.1264
19724TIP3   OH280586   1.623   5.889  14.904  0.1921  0.0487 -0.7923
19724TIP3    H180587   1.574   5.893  14.822 -0.2557  0.5097 -0.5062
19724TIP3    H280588   1.687   5.960  14.898 -0.0130  0.2491 -0.6371
19725TIP3   OH280589   1.594   2.466  16.770  0.0367  0.0535 -0.1410
19725TIP3    H180590   1.508   2.506  16.777  1.0195  2.1833  0.6244
19725TIP3    H280591   1.621   2.450  16.861  0.7834  0.1993 -0.3291
19726TIP3   OH280592   0.955   5.252  14.067 -0.7567 -0.2500  0.3510
19726TIP3    H180593   0.928   5.331  14.019  0.2904 -0.0584  0.0358
19726TIP3    H280594   0.898   5.183  14.033  0.0720 -0.1604 -1.3547
19727TIP3   OH280595   5.370   1.928   3.098 -0.4642 -0.4821 -0.0489
19727TIP3    H180596   5.430   1.991   3.058 -2.8319  1.1217 -1.2923
19727TIP3    H280597   5.286   1.945   3.057 -1.8299 -2.6237  1.6210
19728TIP3   OH280598   0.217   2.998   5.430  0.2438  0.0382 -0.7163
19728TIP3    H180599   0.252   3.024   5.345  0.5695 -0.1236 -0.6353
19728TIP3    H280600   0.282   2.936   5.465 -0.6727 -1.1548 -1.0497
19729TIP3   OH280601   2.850   3.357   5.288 -0.5537 -0.2305 -0.1877
19729TIP3    H180602   2.809   3.271   5.290 -0.3577 -0.4576 -2.8885
19729TIP3    H280603   2.833   3.390   5.200  1.4148  1.4814 -0.0091
19730TIP3   OH280604   3.452   1.202   4.911  0.7190  0.3030  0.9147
19730TIP3    H180605   3.371   1.248   4.894  0.5396 -0.3291 -0.0424
19730TIP3    H280606   3.518   1.271   4.921  0.7731  0.8170 -2.0427
19731TIP3   OH280607   3.485   2.569  11.085 -0.0147  0.1768 -0.6626
19731TIP3    H180608   3.447   2.482  11.084  0.8748 -0.2246 -0.2361
19731TIP3    H280609   3.420   2.623  11.130 -0.5622 -0.2622 -0.9196
19732TIP3   OH280610   6.583   4.492   6.695  0.9923 -0.3355  0.5891
19732TIP3    H180611   6.568   4.431   6.624  0.1508  0.6729 -0.1269
19732TIP3    H280612   6.538   4.453   6.770 -3.1256  1.2229 -0.8007
19733TIP3   OH280613   0.192   4.839  16.181 -0.3569 -0.0929 -0.4135
19733TIP3    H180614   0.228   4.870  16.264  0.7200 -0.1018 -0.8596
19733TIP3    H280615   0.240   4.889  16.114 -1.5139  0.2380 -1.0272
19734TIP3   OH280616   1.759   3.612  10.715  0.2658 -0.3836  0.5331
19734TIP3    H180617   1.665   3.597  10.702  0.2460  0.4885 -0.4188
19734TIP3    H280618   1.763   3.662  10.797  0.0094 -1.5606  1.2794
19735TIP3   OH280619   3.221   6.629  16.592  0.2650 -0.2393  0.4436
19735TIP3    H180620   3.165   6.606  16.665  0.9456 -0.5804  0.8672
19735TIP3    H280621   3.221   6.725  16.590 -0.3920 -0.2354  0.3780
19736TIP3   OH280622   4.751   1.639  16.592 -0.5299  0.2530  0.4473
19736TIP3    H180623   4.668   1.596  16.570 -0.2170  0.3084 -0.8870
19736TIP3    H280624   4.731   1.733  16.590  0.0428  0.3980 -2.1829
19737TIP3   OH280625   3.121   2.003  13.552 -0.7504  0.0216  0.5869
19737TIP3    H180626   3.030   1.983  13.572 -0.8885  0.9986  1.0090
19737TIP3    H280627   3.124   2.009  13.456 -0.9949 -0.5904  0.5407
19738TIP3   OH280628   0.630   4.042   3.429 -0.0744 -0.0754 -0.4271
19738TIP3    H180629   0.695   4.110   3.409 -1.5276  2.1517  1.7902
19738TIP3    H280630   0.573   4.040   3.352  0.7162  0.2907 -1.0422
19739TIP3   OH280631   4.621   3.548   1.236 -0.6187  0.3917  0.8109
19739TIP3    H180632   4.680   3.623   1.235 -0.1105  0.0394 -1.2285
19739TIP3    H280633   4.635   3.508   1.321 -0.3257  2.1504  1.6369
19740TIP3   OH280634   0.778   3.629  16.820 -0.4623  0.5600  0.2452
19740TIP3    H180635   0.684   3.645  16.827 -0.2827  1.3271  1.0994
19740TIP3    H280636   0.809   3.692  16.756 -0.7201 -0.6052 -1.0819
19741TIP3   OH280637   3.049   6.742  14.541  0.0971 -0.3512 -0.1816
19741TIP3    H180638   3.017   6.666  14.492  1.2207 -1.7008  1.0877
19741TIP3    H280639   2.973   6.775  14.588 -0.2081 -1.2310 -0.0583
19742TIP3   OH280640   0.093   3.053  10.983  0.8737  0.5310  0.5015
19742TIP3    H180641   0.035   3.129  10.976  0.1821 -0.0701 -0.4722
19742TIP3    H280642   0.179   3.087  10.959  0.4061  0.8290 -0.8307
19743TIP3   OH280643   5.136   4.107  14.655  0.2681 -0.4312 -0.5179
19743TIP3    H180644   5.057   4.128  14.705 -0.7427 -1.7026 -1.5227
19743TIP3    H280645   5.171   4.028  14.698 -0.3372 -1.2455 -1.4839
19744TIP3   OH280646   1.390   0.504  11.998  0.0730 -0.3188 -0.2189
19744TIP3    H180647   1.336   0.476  11.925 -1.5301  1.2814  0.2728
19744TIP3    H280648   1.348   0.466  12.075 -0.8777  1.5371  0.2415
19745TIP3   OH280649   2.705   3.361   3.719  0.4158 -0.7436 -0.3051
19745TIP3    H180650   2.719   3.395   3.631  0.0703  0.4785  0.0888
19745TIP3    H280651   2.617   3.324   3.717 -0.5485  1.3818  0.1116
19746TIP3   OH280652   2.808   5.492   2.206  0.3700 -0.3467 -0.1941
19746TIP3    H180653   2.723   5.508   2.247  0.8154 -0.8014  0.9365
19746TIP3    H280654   2.789   5.427   2.137 -0.2062 -0.3941 -0.0000
19747TIP3   OH280655   6.556   1.214   2.410  0.2871  0.5527 -0.1345
19747TIP3    H180656   6.562   1.290   2.467 -0.4107 -0.0011  0.6851
19747TIP3    H280657   6.632   1.222   2.352 -0.2927  2.3798 -0.7028
19748TIP3   OH280658   3.897   4.530  15.783  0.8139 -0.8400  0.1473
19748TIP3    H180659   3.988   4.502  15.779  0.1898 -2.9704 -0.4989
19748TIP3    H280660   3.847   4.452  15.761 -1.2126  0.0617  1.2764
19749TIP3   OH280661   5.918   3.800  16.832 -0.0014  0.1281 -1.2192
19749TIP3    H180662   5.884   3.872  16.885  2.0081  0.6026 -0.5019
19749TIP3    H280663   5.893   3.822  16.742 -1.9924  0.1624 -0.7027
19750TIP3   OH280664   2.059   3.224   2.627 -0.5740 -0.0225 -0.1838
19750TIP3    H180665   2.116   3.210   2.551  0.2523  0.9877  0.2282
19750TIP3    H280666   2.054   3.138   2.669  0.7761 -0.1230 -0.1622
19751TIP3   OH280667   1.803   0.101   4.189 -0.0943  0.4831  0.3594
19751TIP3    H180668   1.724   0.108   4.136 -0.2040  1.4955  0.6278
19751TIP3    H280669   1.874   0.090   4.125 -0.4242 -0.2064  0.1097
19752TIP3   OH280670   5.679   5.534  16.812  0.2140  0.1347  0.0307
19752TIP3    H180671   5.750   5.470  16.806  1.5066  1.3690  1.3961
19752TIP3    H280672   5.627   5.520  16.732  3.4663  0.9183 -2.4065
19753TIP3   OH280673   2.094   1.136   5.034 -0.0156 -0.6388 -0.4198
19753TIP3    H180674   2.077   1.074   4.964 -0.0410 -0.6532 -0.4006
19753TIP3    H280675   2.061   1.094   5.113 -1.8155  0.1992 -0.6812
19754TIP3   OH280676   4.448   6.254   2.514  0.8607 -0.3315 -0.1372
19754TIP3    H180677   4.420   6.205   2.591 -2.3549  0.7454 -0.4335
19754TIP3    H280678   4.387   6.228   2.445  0.6162  2.1498 -0.9787
19755TIP3   OH280679   1.403   5.844   2.220 -0.3454 -0.3849  0.0642
19755TIP3    H180680   1.427   5.916   2.162 -0.8308 -0.4312 -0.2046
19755TIP3    H280681   1.384   5.886   2.304 -2.0228 -0.0028 -0.4655
19756TIP3   OH280682   3.476   6.333   4.814  0.3235  0.0993  0.4453
19756TIP3    H180683   3.437   6.406   4.862 -0.7873 -0.6998  0.8090
19756TIP3    H280684   3.401   6.276   4.793  0.9003 -0.0387 -1.4070
19757TIP3   OH280685   3.571   5.372   5.599  0.0331  0.3503 -0.5065
19757TIP3    H180686   3.624   5.300   5.565 -0.4295 -0.2168 -0.0464
19757TIP3    H280687   3.513   5.396   5.526  0.1143  0.1827 -0.6255
19758TIP3   OH280688   0.999   3.074  11.534 -0.0272 -0.0399 -0.1605
19758TIP3    H180689   1.006   2.995  11.587 -0.7738 -0.1525 -0.2143
19758TIP3    H280690   0.938   3.130  11.582 -0.0137  0.2300 -0.4535
19759TIP3   OH280691   1.457   4.835   3.010 -0.3847 -0.5276 -0.1026
19759TIP3    H180692   1.448   4.751   2.966  0.2723 -1.4198  1.3848
19759TIP3    H280693   1.378   4.842   3.064 -1.4575  0.8140 -1.7378
19760TIP3   OH280694   2.613   3.217   0.833 -0.0938  0.5564 -0.0926
19760TIP3    H180695   2.624   3.207   0.927  0.0145  0.1774 -0.1434
19760TIP3    H280696   2.653   3.138   0.796  0.5867  1.0728 -0.4985
19761TIP3   OH280697   3.780   1.556  14.165 -0.2621 -0.7032 -0.7426
19761TIP3    H180698   3.744   1.503  14.237 -1.1169 -0.8202 -1.2347
19761TIP3    H280699   3.744   1.516  14.086  1.1157 -0.9185 -1.2882
19762TIP3   OH280700   4.442   2.056   2.048  0.3852  0.7475 -0.3729
19762TIP3    H180701   4.448   2.015   2.134  0.5964  0.9173 -0.3069
19762TIP3    H280702   4.533   2.068   2.020  0.3177 -0.0187 -0.9608
19763TIP3   OH280703   4.332   0.865   5.068  0.0346 -0.2059  0.4765
19763TIP3    H180704   4.285   0.926   5.125 -1.6212 -1.6271  0.7563
19763TIP3    H280705   4.263   0.828   5.012  0.9745 -1.6740  0.2256
19764TIP3   OH280706   4.501   0.225   6.367  0.1240 -0.5732 -0.0046
19764TIP3    H180707   4.448   0.243   6.289  0.3517  1.5334  0.2628
19764TIP3    H280708   4.581   0.276   6.353 -0.2751  0.7504  2.0422
19765TIP3   OH280709   1.496   5.840   0.477  0.0796  0.0759  0.0323
19765TIP3    H180710   1.408   5.875   0.461  0.4998  1.6264  0.9104
19765TIP3    H280711   1.490   5.747   0.454 -2.5576 -0.5505  2.6327
19766TIP3   OH280712   2.187   2.812   0.263  0.3641  0.1699  0.0011
19766TIP3    H180713   2.118   2.753   0.234  0.0027  0.3588  0.4591
19766TIP3    H280714   2.213   2.858   0.184 -0.2125  0.2705 -0.1396
19767TIP3   OH280715   2.794   1.267  13.675 -0.6490 -0.3610  0.1794
19767TIP3    H180716   2.869   1.317  13.643  0.0587 -1.7785 -0.4688
19767TIP3    H280717   2.800   1.274  13.770 -0.2886  0.3763  0.1136
19768TIP3   OH280718   0.335   5.305   2.914  0.9877  0.2541 -0.1394
19768TIP3    H180719   0.321   5.296   2.819 -0.2894  2.9211 -0.3098
19768TIP3    H280720   0.257   5.267   2.954  0.6068  0.8591 -0.2882
19769TIP3   OH280721   5.224   6.537   2.284  0.1303 -0.4375 -0.2426
19769TIP3    H180722   5.309   6.565   2.319 -1.0034  1.6113  1.1230
19769TIP3    H280723   5.189   6.477   2.350 -1.1044  1.8224  1.3371
19770TIP3   OH280724   3.355   3.530   2.316  0.5378 -0.0444  0.3025
19770TIP3    H180725   3.372   3.448   2.363 -1.0919 -1.1234 -0.9051
19770TIP3    H280726   3.311   3.503   2.236  2.3605  1.8072 -1.4415
19771TIP3   OH280727   3.657   0.876   4.397  0.0813  0.0746  0.3776
19771TIP3    H180728   3.586   0.813   4.411 -0.3786  0.5591  0.2425
19771TIP3    H280729   3.695   0.888   4.485 -1.2543  1.2756  0.8199
19772TIP3   OH280730   0.780   5.121   2.176  0.3638 -0.2068  0.2455
19772TIP3    H180731   0.719   5.063   2.220 -0.1635 -0.4163 -0.7330
19772TIP3    H280732   0.853   5.130   2.237  0.4688 -1.9085  0.4174
19773TIP3   OH280733   1.544   4.324   5.841 -0.2586 -0.2845 -0.0516
19773TIP3    H180734   1.570   4.302   5.752 -1.6974 -1.1776 -0.2931
19773TIP3    H280735   1.554   4.418   5.847  0.1679 -0.2574 -1.0619
19774TIP3   OH280736   1.925   0.122   1.124  0.7134 -0.0238 -0.1259
19774TIP3    H180737   1.896   0.041   1.165  0.9710  0.8570  1.9213
19774TIP3    H280738   1.994   0.155   1.182  1.4961  1.0398 -1.5815
19775TIP3   OH280739   0.908   0.983   4.897 -0.5257  0.0014  0.1882
19775TIP3    H180740   0.890   1.073   4.870 -0.4964 -0.0692 -0.0736
19775TIP3    H280741   0.840   0.963   4.961 -0.0579  0.4802  0.8528
19776TIP3   OH280742   6.268   1.893   4.434 -0.2702  0.0778 -0.0388
19776TIP3    H180743   6.316   1.976   4.445  1.6787 -0.9969  0.0058
19776TIP3    H280744   6.181   1.920   4.405  0.8689  2.0829 -1.8946
19777TIP3   OH280745   3.024   2.564   4.992  0.5105  0.3224 -0.2780
19777TIP3    H180746   2.946   2.544   4.941  1.0773 -0.0087 -1.0393
19777TIP3    H280747   3.065   2.478   5.007 -0.1226  0.2966  1.5526
19778TIP3   OH280748   5.937   5.812  13.515  0.0085 -0.0652 -0.6993
19778TIP3    H180749   6.032   5.804  13.506  0.0302  0.6332 -1.1608
19778TIP3    H280750   5.904   5.814  13.425 -0.6326 -2.1406 -0.5771
19779TIP3   OH280751   2.017   1.248   2.217  0.7008 -0.0763  0.5049
19779TIP3    H180752   1.980   1.275   2.300  0.8763  0.5118  0.4027
19779TIP3    H280753   1.943   1.243   2.157  0.7286  0.7968  0.3766
19780TIP3   OH280754   3.193   5.041  13.434 -0.3735 -0.2545  0.1893
19780TIP3    H180755   3.227   4.961  13.394  1.4674  1.4088 -1.8402
19780TIP3    H280756   3.099   5.038  13.419 -0.6277 -2.7775  1.7082
19781TIP3   OH280757   4.866   1.152   0.072 -0.1366  0.1062 -0.1721
19781TIP3    H180758   4.933   1.092   0.104 -0.7510 -0.7444 -0.4267
19781TIP3    H280759   4.806   1.162   0.146  0.1616  0.7062 -0.0088
19782TIP3   OH280760   1.954   3.768   2.316 -0.1395 -0.1678 -0.2296
19782TIP3    H180761   1.972   3.839   2.254  1.4871 -2.0116 -2.0306
19782TIP3    H280762   1.908   3.811   2.388  1.0736  2.7791 -1.0275
19783TIP3   OH280763   6.705   4.138   6.585 -0.0111  0.2456 -0.2281
19783TIP3    H180764   6.689   4.076   6.514  1.5692  0.3213 -0.6969
19783TIP3    H280765   6.664   4.219   6.556  1.5939  0.6065 -1.6286
19784TIP3   OH280766   1.912   0.309  12.759  0.0636 -0.1320  0.0048
19784TIP3    H180767   1.980   0.277  12.699 -0.2483 -1.3297  0.2638
19784TIP3    H280768   1.928   0.261  12.840  1.0421  2.1087  1.2291
19785TIP3   OH280769   4.731   1.842  14.239 -0.7921  0.1347 -0.1417
19785TIP3    H180770   4.709   1.930  14.269 -0.3224  0.0258  0.5323
19785TIP3    H280771   4.706   1.785  14.311  0.8397 -0.0832  0.2801
19786TIP3   OH280772   2.021   1.133   5.692 -0.9613  0.2272  0.2342
19786TIP3    H180773   2.051   1.206   5.746  0.6295 -0.1260 -0.1266
19786TIP3    H280774   1.926   1.131   5.704 -1.0214  2.2620  0.3631
19787TIP3   OH280775   4.259   1.029   0.392  0.2568 -0.9875  0.3758
19787TIP3    H180776   4.345   1.051   0.427  0.4526  0.9430 -1.1472
19787TIP3    H280777   4.276   0.962   0.326  0.4583 -1.2652  0.7072
19788TIP3   OH280778   5.997   0.830   0.341  0.1586  0.2444 -0.1701
19788TIP3    H180779   6.021   0.738   0.355  0.1072  0.1088 -0.9296
19788TIP3    H280780   5.914   0.826   0.293 -1.1439  0.6972  1.8615
19789TIP3   OH280781   2.006   4.623   1.063  0.0509  0.0851 -0.0986
19789TIP3    H180782   1.942   4.694   1.070  0.2848  0.4873 -1.6754
19789TIP3    H280783   2.067   4.639   1.135 -0.5358  0.8038  0.2576
19790TIP3   OH280784   4.611   5.605  13.289 -0.4780  0.4148  0.2305
19790TIP3    H180785   4.659   5.523  13.293 -2.0342 -0.5311  0.4135
19790TIP3    H280786   4.550   5.594  13.215  2.8731  3.5241 -3.4726
19791TIP3   OH280787   5.889   2.445   3.181 -0.4589  0.5065 -0.0736
19791TIP3    H180788   5.890   2.491   3.097  0.1264  2.3319  0.8638
19791TIP3    H280789   5.933   2.361   3.163 -1.3129  0.3826 -1.7995
19792TIP3   OH280790   1.725   0.799  15.699 -0.2835  0.0982  0.1087
19792TIP3    H180791   1.811   0.776  15.665 -0.8439 -0.3857 -1.0567
19792TIP3    H280792   1.697   0.721  15.748 -0.4044 -0.0643 -0.2178
19793TIP3   OH280793   1.691   5.646  11.887  0.3811  0.6278 -0.1280
19793TIP3    H180794   1.727   5.581  11.947 -1.3793  0.9442  1.3594
19793TIP3    H280795   1.751   5.721  11.895  0.5428  0.4209  0.7236
19794TIP3   OH280796   3.520   3.697   5.471 -0.1450 -0.4352 -0.2180
19794TIP3    H180797   3.587   3.742   5.521  0.7450 -2.0834  0.1339
19794TIP3    H280798   3.483   3.633   5.532 -0.4300 -1.1189 -1.0879
19795TIP3   OH280799   2.182   6.469   3.642  0.3105  0.0376 -0.2731
19795TIP3    H180800   2.091   6.469   3.612  0.3195  2.2088 -0.4642
19795TIP3    H280801   2.194   6.383   3.683 -2.0590 -0.0070  0.4630
19796TIP3   OH280802   1.464   3.034  16.771  0.4294 -0.0075  0.0579
19796TIP3    H180803   1.482   3.124  16.744 -1.4864  1.0312  1.9929
19796TIP3    H280804   1.526   3.017  16.841 -1.2001  1.0036  1.8318
19797TIP3   OH280805   2.280   6.516   2.968  0.2202  0.9867 -0.1441
19797TIP3    H180806   2.283   6.436   3.022  1.2074  2.1678  1.6513
19797TIP3    H280807   2.224   6.492   2.894  1.1791 -1.6440 -0.1501
19798TIP3   OH280808   3.242   4.138   5.342  0.1807 -0.2705  0.6322
19798TIP3    H180809   3.229   4.053   5.383 -0.9422 -0.8913 -0.9522
19798TIP3    H280810   3.160   4.185   5.356  0.5798  0.3537  0.9720
19799TIP3   OH280811   3.581   3.957   3.871 -0.0873 -0.0094 -0.2914
19799TIP3    H180812   3.564   3.941   3.778  1.6771 -0.3458 -0.6067
19799TIP3    H280813   3.628   4.040   3.873  0.7599 -0.4830  0.1746
19800TIP3   OH280814   3.364   1.051  13.713  0.4884  0.0340  0.2055
19800TIP3    H180815   3.418   1.118  13.755  0.4699 -0.0966  0.4398
19800TIP3    H280816   3.416   1.021  13.638  0.3019  0.6283 -0.1632
19801TIP3   OH280817   5.429   6.083  16.855 -0.0393 -0.7414  0.0603
19801TIP3    H180818   5.421   6.035  16.773 -0.8815  0.2079 -0.4318
19801TIP3    H280819   5.520   6.071  16.881  0.7320  0.4107 -1.9397
19802TIP3   OH280820   0.547   1.658  10.969  0.0732  0.2254 -0.4573
19802TIP3    H180821   0.472   1.637  11.024 -0.0160  1.2296 -0.1688
19802TIP3    H280822   0.510   1.668  10.881 -0.3964  2.0546 -0.0957
19803TIP3   OH280823   1.005   6.368  14.871 -0.0162  0.5059  0.2468
19803TIP3    H180824   1.057   6.300  14.915  0.6534 -0.3155 -1.7197
19803TIP3    H280825   1.070   6.426  14.832 -0.5695  2.5396  2.1356
19804TIP3   OH280826   1.406   5.384  14.609 -0.0785 -0.2182 -0.6973
19804TIP3    H180827   1.444   5.427  14.532 -2.5602  1.0025 -1.3584
19804TIP3    H280828   1.332   5.440  14.634 -0.8801 -1.9213  1.0361
19805TIP3   OH280829   6.205   5.602  11.407 -0.0725  0.5329 -0.3263
19805TIP3    H180830   6.191   5.642  11.322 -0.8857 -2.1596 -1.5788
19805TIP3    H280831   6.283   5.547  11.395 -0.5699 -0.3689  0.4374
19806TIP3   OH280832   2.476   1.274   2.768 -0.4257 -0.0454 -0.9264
19806TIP3    H180833   2.543   1.277   2.700 -2.2465  2.2334 -2.7738
19806TIP3    H280834   2.451   1.365   2.782 -2.5786 -0.7361  0.2511
19807TIP3   OH280835   1.545   6.215  14.757 -0.7753 -0.5101 -0.8632
19807TIP3    H180836   1.636   6.238  14.776 -0.7527 -0.6874 -0.7460
19807TIP3    H280837   1.535   6.229  14.663 -0.9174  0.4930 -0.7051
19808TIP3   OH280838   3.663   2.835   1.357 -0.2549 -0.4522  0.0422
19808TIP3    H180839   3.661   2.822   1.262  2.3560  3.6133 -0.8228
19808TIP3    H280840   3.571   2.845   1.382 -0.9225  0.2345 -2.4110
19809TIP3   OH280841   0.576   5.585  12.404 -0.2601  0.2656  0.0516
19809TIP3    H180842   0.555   5.664  12.454  0.4663 -0.5419  1.7011
19809TIP3    H280843   0.500   5.528  12.417 -1.0438  0.8567 -1.6105
19810TIP3   OH280844   5.782   4.128  13.699  0.0189  0.1972  0.1443
19810TIP3    H180845   5.746   4.207  13.740 -1.4698  1.1966 -2.8128
19810TIP3    H280846   5.717   4.060  13.718  0.6065 -0.0105  1.5100
19811TIP3   OH280847   1.733   1.457  14.216 -0.2194  0.2745 -0.0467
19811TIP3    H180848   1.764   1.499  14.135  0.5513 -1.1525 -0.5267
19811TIP3    H280849   1.801   1.475  14.280 -0.0680  0.0744 -0.1507
19812TIP3   OH280850   1.732   3.030  12.657  0.1011  0.9865  0.3028
19812TIP3    H180851   1.791   3.001  12.587 -0.5589  1.1708 -0.3383
19812TIP3    H280852   1.661   3.076  12.612  0.6521  2.8491  1.2175
19813TIP3   OH280853   5.049   5.999   4.434 -0.4965 -0.4826 -0.7515
19813TIP3    H180854   5.093   5.931   4.485 -0.3764 -1.1438 -1.7108
19813TIP3    H280855   4.957   5.972   4.431 -0.9256  0.6327  0.8190
19814TIP3   OH280856   4.281   3.834   3.115 -0.0656  0.0375 -0.0805
19814TIP3    H180857   4.330   3.752   3.112 -0.7190 -0.3284 -1.0034
19814TIP3    H280858   4.250   3.847   3.026 -0.7843  0.7900  0.2679
19815TIP3   OH280859   6.391   0.032  13.298  0.0576  0.0676 -0.1564
19815TIP3    H180860   6.461   0.052  13.360  0.8066 -0.0233 -0.9535
19815TIP3    H280861   6.318   0.088  13.325  1.0754  1.6201 -0.4782
19816TIP3   OH280862   4.774   0.462   2.627 -0.6036  0.3153  0.0810
19816TIP3    H180863   4.830   0.425   2.696 -1.4486  1.1459  1.2457
19816TIP3    H280864   4.704   0.506   2.674 -1.1044  1.0778 -1.3243
19817TIP3   OH280865   2.305   3.762   2.871  0.4306 -0.3132  0.0221
19817TIP3    H180866   2.335   3.817   2.944  1.5685 -1.8893  0.7876
19817TIP3    H280867   2.226   3.720   2.903 -0.0063  0.2486 -0.2876
19818TIP3   OH280868   1.800   1.912  15.557  0.6021 -0.0899  0.1595
19818TIP3    H180869   1.829   1.894  15.646  0.5072 -0.7934  0.0512
19818TIP3    H280870   1.791   2.007  15.553 -1.6547 -0.1726  1.6078
19819TIP3   OH280871   0.270   6.729  12.506  0.1776  0.3968  0.1292
19819TIP3    H180872   0.200   6.665  12.493  1.2418 -0.6620 -0.7162
19819TIP3    H280873   0.296   6.753  12.417  1.6436 -0.1191  0.3889
19820TIP3   OH280874   4.541   6.780   5.653  0.1130 -0.5412 -0.0537
19820TIP3    H180875   4.615   6.840   5.651 -0.1582 -0.1835 -2.2132
19820TIP3    H280876   4.488   6.808   5.727  0.2207  1.6305 -0.7487
19821TIP3   OH280877   6.598   3.986  15.735 -0.5056 -0.0838  0.5776
19821TIP3    H180878   6.515   4.033  15.738 -0.9424 -0.8380  0.3194
19821TIP3    H280879   6.575   3.894  15.745  0.0651 -0.5539 -1.8384
19822TIP3   OH280880   0.561   5.040   2.314  0.3829  0.0343  1.2433
19822TIP3    H180881   0.513   5.108   2.362 -0.0404  1.0949 -0.5981
19822TIP3    H280882   0.586   4.977   2.381 -1.5419  0.6396  2.6269
19823TIP3   OH280883   6.684   0.070   0.026  0.0078  0.1520  1.0660
19823TIP3    H180884   6.768   0.100  -0.009 -1.0676  0.7747 -1.0981
19823TIP3    H280885   6.659  -0.003  -0.030  0.4518 -2.0814  3.5616
19824TIP3   OH280886   4.204   5.850  13.911  0.6541  0.6269 -0.2272
19824TIP3    H180887   4.182   5.804  13.992 -0.5377 -0.9829 -1.4039
19824TIP3    H280888   4.161   5.935  13.921  1.0973  0.7301  1.0886
19825TIP3   OH280889   1.919   2.993  13.729  0.3453 -0.1145  0.3508
19825TIP3    H180890   1.903   3.081  13.762  0.0899  0.2693 -0.7775
19825TIP3    H280891   1.856   2.938  13.776 -0.9022  0.6256 -0.3963
19826TIP3   OH280892   4.219   6.206   5.649  0.4907 -0.5382  0.6133
19826TIP3    H180893   4.164   6.151   5.594 -0.8325  0.3136  1.0236
19826TIP3    H280894   4.174   6.208   5.734  2.1517 -1.3066  1.5501
19827TIP3   OH280895   0.424   2.093   3.550 -0.1515 -0.1897 -0.0291
19827TIP3    H180896   0.429   2.060   3.460 -0.3159  0.7454 -0.3977
19827TIP3    H280897   0.335   2.073   3.578 -0.9380  1.7162 -0.9928
19828TIP3   OH280898   5.944   5.565  16.694  0.0101  0.6371  0.2522
19828TIP3    H180899   5.963   5.488  16.641 -0.1785  0.9750 -0.3227
19828TIP3    H280900   6.026   5.583  16.740 -0.3608 -0.7424  1.5229
19829TIP3   OH280901   6.720   2.694  13.234 -0.4163  0.2631 -0.3227
19829TIP3    H180902   6.627   2.698  13.255 -0.1913 -1.2296  1.2012
19829TIP3    H280903   6.741   2.600  13.235  1.5370  0.6319  1.6508
19830TIP3   OH280904   3.541   1.905  13.300  0.0654 -0.4953 -0.3624
19830TIP3    H180905   3.585   1.952  13.230 -1.7270  1.3910 -0.3330
19830TIP3    H280906   3.457   1.878  13.262 -1.4062  1.4645  1.2370
19831TIP3   OH280907   2.482   4.445  14.196 -0.3832  0.2055 -0.2445
19831TIP3    H180908   2.506   4.457  14.288 -0.7901  2.0936 -0.3587
19831TIP3    H280909   2.392   4.476  14.189 -0.2562  0.3863 -1.3468
19832TIP3   OH280910   1.887   0.388  16.135 -0.0732  0.1799  0.1354
19832TIP3    H180911   1.970   0.396  16.182  0.8142 -0.1523 -1.3114
19832TIP3    H280912   1.834   0.330  16.189  1.2148 -0.8344  0.3483
19833TIP3   OH280913   3.832   3.066  12.457  0.6237  0.1857 -0.1386
19833TIP3    H180914   3.895   3.133  12.432  0.3998  0.3644 -0.2299
19833TIP3    H280915   3.854   2.991  12.403  0.2524  0.5103 -0.7561
19834TIP3   OH280916   0.247   4.633  12.088  0.2056 -0.3074 -0.3447
19834TIP3    H180917   0.321   4.573  12.073  1.1819  1.1119 -1.4191
19834TIP3    H280918   0.206   4.642  12.002 -1.5976 -1.4896  0.3399
19835TIP3   OH280919   3.893   0.347  11.014 -0.4323  0.2697 -0.3733
19835TIP3    H180920   3.976   0.328  11.057 -0.1887  0.1109 -0.9044
19835TIP3    H280921   3.888   0.284  10.942 -1.0307  0.2512 -0.3211
19836TIP3   OH280922   3.438   2.986  14.304 -0.4486 -0.1166  0.1576
19836TIP3    H180923   3.479   2.962  14.220  0.1831  0.4075  0.3090
19836TIP3    H280924   3.348   2.955  14.296 -0.8054  1.1905 -1.2877
19837TIP3   OH280925   4.411   0.498  10.764 -0.2752 -0.0810 -0.1495
19837TIP3    H180926   4.378   0.455  10.843  0.0670  0.2497  0.1769
19837TIP3    H280927   4.506   0.490  10.772 -0.2083  0.7531 -0.0777
19838TIP3   OH280928   5.852   0.485   3.364  0.0288  0.0710  0.2868
19838TIP3    H180929   5.947   0.482   3.376 -0.0498  0.4183  1.0530
19838TIP3    H280930   5.822   0.549   3.428 -0.7745 -0.3684  0.3553
19839TIP3   OH280931   2.517   5.216  10.265 -0.4718  0.3147 -0.1319
19839TIP3    H180932   2.508   5.122  10.278 -1.1090  0.2864 -0.7056
19839TIP3    H280933   2.593   5.226  10.208  0.2439  0.2294  0.7740
19840TIP3   OH280934   2.710   2.879  10.468  0.5352  0.8186 -0.5112
19840TIP3    H180935   2.660   2.932  10.531 -0.7154 -0.1662 -0.6307
19840TIP3    H280936   2.743   2.942  10.404 -1.9719  1.3610 -1.3612
19841TIP3   OH280937   4.202   1.338  15.992  0.5011 -0.1339 -0.3837
19841TIP3    H180938   4.141   1.291  15.937 -1.6579  0.2431  1.5309
19841TIP3    H280939   4.248   1.270  16.042 -0.2857 -0.3505  0.0576
19842TIP3   OH280940   6.345   6.315   5.757  0.1613 -0.4133  0.2835
19842TIP3    H180941   6.381   6.300   5.844 -1.0052 -0.2350  0.8128
19842TIP3    H280942   6.363   6.407   5.738 -0.0958 -0.3029  0.5790
19843TIP3   OH280943   4.758   5.592  16.122 -0.0249 -0.1637 -0.9643
19843TIP3    H180944   4.778   5.682  16.147 -1.4808  0.6849 -2.5651
19843TIP3    H280945   4.837   5.561  16.078  0.9730 -0.1803  0.7671
19844TIP3   OH280946   2.159   5.224  13.429 -0.2068 -0.1778  0.7271
19844TIP3    H180947   2.088   5.160  13.437 -0.4052 -0.3653 -1.9124
19844TIP3    H280948   2.233   5.183  13.473 -1.3079 -0.5686  2.3358
19845TIP3   OH280949   6.458   3.006  11.047  0.5099 -0.2245 -0.3018
19845TIP3    H180950   6.517   2.990  11.120 -0.1930  0.5356  0.4617
19845TIP3    H280951   6.409   3.084  11.073 -0.6821 -0.7135 -0.9972
19846TIP3   OH280952   5.899   0.027  15.338 -0.2960 -0.4713  0.0183
19846TIP3    H180953   5.983  -0.014  15.360  0.7522  0.9175 -1.1840
19846TIP3    H280954   5.879   0.082  15.414  0.0660 -0.5505  0.1746
19847TIP3   OH280955   1.949   6.634   2.107 -0.0438 -0.1982 -0.1143
19847TIP3    H180956   1.996   6.570   2.053  0.3135 -0.0022 -0.0424
19847TIP3    H280957   2.011   6.706   2.116 -0.8012  0.5803 -1.0023
19848TIP3   OH280958   2.173   4.855   0.817  0.0069  0.0688 -0.0663
19848TIP3    H180959   2.216   4.837   0.901  0.9091 -0.6506 -0.6517
19848TIP3    H280960   2.170   4.950   0.811  2.6440  0.2124 -0.4881
19849TIP3   OH280961   3.463   5.743  13.474  0.1503 -0.5220 -0.3090
19849TIP3    H180962   3.522   5.682  13.517  0.5976  0.3979  0.4352
19849TIP3    H280963   3.376   5.708  13.492  0.4302 -1.5771 -0.9246
19850TIP3   OH280964   4.342   6.259   0.398 -0.0928 -0.3493 -0.7367
19850TIP3    H180965   4.258   6.300   0.375 -0.7942 -1.3986 -0.1015
19850TIP3    H280966   4.389   6.326   0.448 -0.6689  0.1386 -0.8411
19851TIP3   OH280967   4.838   0.194   5.101 -0.2718 -0.5409 -0.1361
19851TIP3    H180968   4.775   0.156   5.162  0.6745 -1.3184  0.3836
19851TIP3    H280969   4.909   0.226   5.157 -0.5395  1.0494 -0.6424
19852TIP3   OH280970   0.410   0.481  13.940  0.2165  0.3560  0.1978
19852TIP3    H180971   0.393   0.541  14.012  0.6722 -1.0614  1.5382
19852TIP3    H280972   0.329   0.432  13.929 -0.2853  1.4272 -1.1503
19853TIP3   OH280973   1.618   1.013  16.952  0.0026  0.1855 -0.2047
19853TIP3    H180974   1.630   0.936  17.008  1.2872 -0.8676 -1.8102
19853TIP3    H280975   1.523   1.022  16.944 -0.1824 -0.4026  1.0882
19854TIP3   OH280976   2.507   0.240  16.318 -0.2813 -0.0100  0.1191
19854TIP3    H180977   2.537   0.323  16.356 -2.9071  2.0095 -1.8043
19854TIP3    H280978   2.475   0.190  16.392  0.3926  1.1332  1.2387
19855TIP3   OH280979   2.212   0.194   3.472  0.3747 -0.0498 -0.6918
19855TIP3    H180980   2.306   0.212   3.475  0.1973  1.0216  2.0292
19855TIP3    H280981   2.174   0.258   3.532 -1.7780 -2.0854  0.2856
19856TIP3   OH280982   6.636   2.681  14.555  0.2588 -0.1531  0.1350
19856TIP3    H180983   6.696   2.606  14.551  1.1087  0.5373 -0.1705
19856TIP3    H280984   6.668   2.741  14.489 -0.1620  0.6765  0.6761
19857TIP3   OH280985   0.014   2.163   5.546  0.0165  0.7780 -0.0543
19857TIP3    H180986   0.096   2.162   5.497 -0.3546  4.1911 -0.9927
19857TIP3    H280987  -0.052   2.132   5.483  0.2284  0.5358 -0.1569
19858TIP3   OH280988   2.029   2.116  11.130  0.3384 -0.4308 -0.0780
19858TIP3    H180989   1.999   2.180  11.194 -0.6846  0.3126 -1.2324
19858TIP3    H280990   2.117   2.145  11.105  0.6973 -0.6662  0.8847
19859TIP3   OH280991   1.597   2.071  14.460  0.0932  0.0255  0.9434
19859TIP3    H180992   1.518   2.022  14.484  0.8836 -1.2026  1.1601
19859TIP3    H280993   1.574   2.117  14.379 -0.5129 -1.1867  0.4024
19860TIP3   OH280994   0.936   5.297   5.183 -0.3096 -0.3233 -0.0281
19860TIP3    H180995   0.965   5.248   5.261 -1.7131 -0.9163  0.1564
19860TIP3    H280996   0.875   5.362   5.218 -1.7667 -1.2730 -0.7003
19861TIP3   OH280997   6.065   0.755   1.269 -0.1514 -0.1981 -0.3105
19861TIP3    H180998   6.118   0.833   1.282 -0.6189  0.0197  0.3545
19861TIP3    H280999   6.055   0.718   1.357 -0.6485 -0.5310 -0.5037
19862TIP3   OH281000   5.944   2.074   2.847 -0.3024 -0.2622  0.1982
19862TIP3    H181001   5.958   2.039   2.936  1.2920 -2.5991 -0.8600
19862TIP3    H281002   6.006   2.026   2.793 -0.7847  1.5658 -2.1231
19863TIP3   OH281003   4.191   2.253  15.842 -0.2365 -0.0764 -0.3657
19863TIP3    H181004   4.157   2.234  15.929 -0.7649 -0.9587 -0.7588
19863TIP3    H281005   4.114   2.257  15.786 -0.1698  2.8838 -0.4151
19864TIP3   OH281006   2.085   1.756  16.184  0.2185  0.4267  0.4268
19864TIP3    H181007   2.165   1.732  16.232 -0.8486 -2.4853  0.9832
19864TIP3    H281008   2.016   1.754  16.251 -0.6965  0.2665 -0.4997
19865TIP3   OH281009   3.367   3.907   5.188 -0.7326  0.3811 -0.0745
19865TIP3    H181010   3.285   3.858   5.193 -0.6664  0.2208 -0.5212
19865TIP3    H281011   3.378   3.944   5.276 -1.2498  0.3535  0.0077
19866TIP3   OH281012   4.611   6.481   5.701  0.3583 -0.5288 -0.0550
19866TIP3    H181013   4.604   6.400   5.750 -1.2459 -1.2683 -1.3980
19866TIP3    H281014   4.520   6.507   5.684  0.7521 -0.7054 -3.1218
19867TIP3   OH281015   1.654   6.049   2.048 -0.1086  0.7545 -0.0248
19867TIP3    H181016   1.712   6.070   2.121  0.8736  1.5737 -1.0065
19867TIP3    H281017   1.676   5.959   2.024  0.9147  1.1206 -0.5048
19868TIP3   OH281018   6.036   3.219   5.767 -0.2136 -0.1441 -0.1013
19868TIP3    H181019   6.008   3.148   5.709  0.9205 -1.2707  0.6945
19868TIP3    H281020   5.980   3.210   5.844 -1.0150  0.7252 -0.5433
19869TIP3   OH281021   1.760   5.298   0.517 -0.2217  1.1002 -0.0390
19869TIP3    H181022   1.718   5.287   0.602  1.1512  0.1807  0.5595
19869TIP3    H281023   1.813   5.377   0.526 -0.5812  1.3727 -0.2715
19870TIP3   OH281024   1.745   2.686   4.167 -0.1916 -0.2889 -0.8603
19870TIP3    H181025   1.741   2.591   4.178  0.8407 -0.4013 -1.3001
19870TIP3    H281026   1.833   2.702   4.134 -0.9346  0.6486 -2.4841
19871TIP3   OH281027   1.286   6.120  11.620  0.3784 -0.2183  0.0750
19871TIP3    H181028   1.242   6.107  11.704 -0.6235 -0.1409 -0.4177
19871TIP3    H281029   1.227   6.080  11.556  0.1877  1.3684 -0.7986
19872TIP3   OH281030   2.225   0.680  13.204 -0.0725  0.1681  0.0635
19872TIP3    H181031   2.150   0.694  13.262  0.2933  1.4122  0.2674
19872TIP3    H281032   2.187   0.666  13.118 -0.6018 -1.1666  0.4780
19873TIP3   OH281033   5.967   6.286   0.677 -0.1012 -0.1066  0.5448
19873TIP3    H181034   5.958   6.242   0.592  1.5018 -0.5576  0.5774
19873TIP3    H281035   5.950   6.217   0.741 -0.5797  0.0617  0.6062
19874TIP3   OH281036   2.236   1.887  14.385 -0.5552 -0.6076 -0.4036
19874TIP3    H181037   2.205   1.973  14.359 -1.6920 -1.3638 -1.7308
19874TIP3    H281038   2.156   1.837  14.403  0.1206 -1.0418  1.6496
19875TIP3   OH281039   4.076   2.721   2.075  0.2764  0.3584 -0.1250
19875TIP3    H181040   4.160   2.712   2.030  0.8455 -0.5400  1.0763
19875TIP3    H281041   4.097   2.717   2.168 -1.2070 -1.0309  0.1987
19876TIP3   OH281042   6.222   0.197   1.913  0.2803 -0.4942  0.0734
19876TIP3    H181043   6.300   0.195   1.968  0.4460 -0.6792 -0.1656
19876TIP3    H281044   6.181   0.112   1.926 -0.2431 -0.1445  0.7147
19877TIP3   OH281045   0.541   2.405  16.989  0.2189 -0.2674 -0.3507
19877TIP3    H181046   0.634   2.425  16.983  0.2973 -0.4315  0.2127
19877TIP3    H281047   0.513   2.447  17.071  0.6196 -3.1630  1.4454
19878TIP3   OH281048   3.590   1.977  16.457  0.3752 -0.1094 -0.6768
19878TIP3    H181049   3.662   1.915  16.469  0.5678  0.2232 -0.0925
19878TIP3    H281050   3.559   1.961  16.368 -1.0556 -2.6278  0.1582
19879TIP3   OH281051   4.932   5.352   0.923  0.1328  0.2142 -0.7024
19879TIP3    H181052   4.873   5.294   0.972  0.2780 -0.6203 -1.4719
19879TIP3    H281053   4.965   5.414   0.987 -0.2440 -0.3962  0.0936
19880TIP3   OH281054   0.799   3.875  17.096  0.0142 -0.7700  0.4068
19880TIP3    H181055   0.839   3.789  17.110 -0.6241 -1.0755  0.4146
19880TIP3    H281056   0.851   3.935  17.149  1.9326 -0.7383 -1.3839
19881TIP3   OH281057   4.680   3.542   4.715 -0.1925  0.0478 -0.6645
19881TIP3    H181058   4.621   3.600   4.762 -1.2680 -1.6514  0.1848
19881TIP3    H281059   4.654   3.549   4.624  0.7425  2.0516 -0.8128
19882TIP3   OH281060   2.449   2.132   2.204 -0.3766 -0.4807  0.1977
19882TIP3    H181061   2.372   2.185   2.184  0.5940  0.9961  0.2112
19882TIP3    H281062   2.477   2.097   2.119  1.3559  2.4552 -0.5943
19883TIP3   OH281063   0.630   6.308   1.024  0.5624  0.1369  0.0759
19883TIP3    H181064   0.552   6.253   1.019 -0.4415  1.4943  0.2113
19883TIP3    H281065   0.669   6.288   1.109 -0.6824  0.7560  0.8235
19884TIP3   OH281066   4.366   1.980  16.369  0.3060 -0.3813 -0.3463
19884TIP3    H181067   4.351   2.027  16.287 -3.0744 -2.2921 -0.9950
19884TIP3    H281068   4.392   1.892  16.342  0.9743 -0.5223  0.7015
19885TIP3   OH281069   2.116   1.502  11.015  0.5717  0.1983  0.7550
19885TIP3    H181070   2.113   1.407  11.027  0.8073  0.2979  1.7545
19885TIP3    H281071   2.067   1.537  11.090  0.1846  0.8572  0.2014
19886TIP3   OH281072   0.280   6.363   1.595 -0.6745 -0.0934 -0.2015
19886TIP3    H181073   0.268   6.449   1.555  0.4082  0.4520  0.5895
19886TIP3    H281074   0.259   6.301   1.526 -1.0345  0.8057 -0.9190
19887TIP3   OH281075   3.011   3.014   0.436 -0.5707 -0.3937 -0.2350
19887TIP3    H181076   3.084   3.061   0.396 -0.7699 -1.2142 -1.6526
19887TIP3    H281077   2.933   3.060   0.405 -0.6735  0.5912  1.4233
19888TIP3   OH281078   0.298   4.231  15.739 -0.2520 -0.2309  0.5116
19888TIP3    H181079   0.297   4.326  15.728 -1.0029 -0.2655  0.1903
19888TIP3    H281080   0.245   4.216  15.818 -1.7829 -0.4814 -0.5094
19889TIP3   OH281081   1.825   4.209   5.473  0.2615  0.7131  0.4214
19889TIP3    H181082   1.912   4.250   5.476  0.7366 -0.2062 -0.3873
19889TIP3    H281083   1.832   4.143   5.404 -1.2068  0.8940  0.0709
19890TIP3   OH281084   5.662   2.841  11.289  0.2885  0.1992  0.0130
19890TIP3    H181085   5.658   2.878  11.378  0.2357  0.3538 -0.0536
19890TIP3    H281086   5.571   2.834  11.262  0.2758 -0.4109  0.2013
19891TIP3   OH281087   2.420   0.356   3.357  0.1707 -0.6486 -0.5462
19891TIP3    H181088   2.481   0.428   3.374 -0.5295 -0.2290  0.2570
19891TIP3    H281089   2.473   0.290   3.311  0.8833  0.2667 -1.0703
19892TIP3   OH281090   2.547   0.583   3.486  0.3955  0.5635 -0.3141
19892TIP3    H181091   2.628   0.599   3.438  0.7452  0.0331  0.0983
19892TIP3    H281092   2.570   0.519   3.552 -0.6094 -0.4154 -0.8770
19893TIP3   OH281093   6.125   3.450   1.727 -0.1869 -0.5780  0.0901
19893TIP3    H181094   6.087   3.405   1.803 -2.4684  0.2832 -0.4598
19893TIP3    H281095   6.126   3.384   1.658 -1.3545 -0.4554 -0.0670
19894TIP3   OH281096   2.235   4.540  14.296  0.1953 -0.2808 -0.0601
19894TIP3    H181097   2.151   4.562  14.256 -0.5334  0.2741  1.6667
19894TIP3    H281098   2.213   4.510  14.384  1.8532  0.7953  0.7827
19895TIP3   OH281099   0.804   2.382  16.970  0.0181  0.3897  0.8445
19895TIP3    H181100   0.773   2.313  16.911  1.6758  1.0220 -0.8746
19895TIP3    H281101   0.827   2.337  17.051  1.7866 -1.2625 -0.4942
19896TIP3   OH281102   6.099   2.329   2.148 -0.0776 -0.7340  0.0660
19896TIP3    H181103   6.107   2.236   2.127  0.0033 -1.2152  2.0822
19896TIP3    H281104   6.173   2.348   2.206  0.0693  0.6727 -0.5229
19897TIP3   OH281105   2.270   0.364   3.100 -0.6655 -0.8895  0.0921
19897TIP3    H181106   2.324   0.366   3.179  0.5003 -2.7441 -0.5881
19897TIP3    H281107   2.186   0.329   3.129 -0.0409 -2.1478  0.4242
19898TIP3   OH281108   5.053   5.851   2.439  0.2502  0.3774  0.0659
19898TIP3    H181109   4.987   5.863   2.507 -0.7509 -0.9279 -0.6280
19898TIP3    H281110   5.022   5.776   2.388  2.3623 -0.3930 -0.1860
19899TIP3   OH281111   1.911   5.297  16.870 -0.0397 -0.0952  0.1463
19899TIP3    H181112   1.828   5.300  16.917  0.0582  1.0869  0.2614
19899TIP3    H281113   1.934   5.389  16.854  1.0953 -0.4086 -0.1434
19900TIP3   OH281114   4.216   1.895   1.993 -0.6382  0.1233 -0.0260
19900TIP3    H181115   4.280   1.954   2.031  0.2925 -0.3210 -0.8736
19900TIP3    H281116   4.143   1.895   2.056  1.5729 -2.0819  2.8357
19901TIP3   OH281117   4.552   1.690  14.872 -0.1972 -0.1640 -0.0756
19901TIP3    H181118   4.529   1.772  14.915 -1.5138  0.3619 -1.6612
19901TIP3    H281119   4.469   1.658  14.836  0.6971 -0.9079 -1.5798
19902TIP3   OH281120   5.611   5.068   2.053 -0.2755 -0.3873  0.0651
19902TIP3    H181121   5.536   5.009   2.053  0.5567 -1.4959  0.8476
19902TIP3    H281122   5.627   5.087   1.961 -0.7490 -1.1608 -0.1830
19903TIP3   OH281123   0.436   3.790   1.279  0.2152 -0.0787 -0.3322
19903TIP3    H181124   0.347   3.769   1.250  0.0745  1.4068 -1.0686
19903TIP3    H281125   0.423   3.850   1.353  0.5284  2.1904 -1.9988
19904TIP3   OH281126   4.396   3.934   4.561  0.3120 -0.3036  0.3691
19904TIP3    H181127   4.314   3.980   4.541  1.6617  2.2757  0.3793
19904TIP3    H281128   4.447   3.939   4.480  0.4454 -2.0841  0.2940
19905TIP3   OH281129   3.553   5.959  14.637  0.3925 -0.1828 -0.4186
19905TIP3    H181130   3.596   5.956  14.552 -0.3815  3.2161 -1.0933
19905TIP3    H281131   3.461   5.942  14.618 -0.1439  2.5352 -0.7430
19906TIP3   OH281132   4.753   1.479   0.278 -0.3748 -0.0040 -0.4152
19906TIP3    H181133   4.797   1.431   0.207  0.7155 -1.2961  1.0383
19906TIP3    H281134   4.823   1.496   0.342 -0.9460  2.7282 -0.4100
19907TIP3   OH281135   4.791   5.409  15.140 -0.3403  1.0486  0.7894
19907TIP3    H181136   4.806   5.469  15.213 -0.6533  1.4779  0.5056
19907TIP3    H281137   4.805   5.463  15.062  0.1877  0.5491  0.5262
19908TIP3   OH281138   3.407   0.418  14.206 -0.1349 -0.4794 -0.1022
19908TIP3    H181139   3.441   0.354  14.144  0.8621  0.8451 -0.9838
19908TIP3    H281140   3.435   0.385  14.292  0.1561 -1.3410 -0.5194
19909TIP3   OH281141   6.013   2.489   6.084 -0.3732 -0.0573 -0.2295
19909TIP3    H181142   5.953   2.529   6.020 -2.6412  0.9243  2.3033
19909TIP3    H281143   5.971   2.407   6.108  0.6485 -0.5960 -0.2504
19910TIP3   OH281144   3.457   6.152  10.538 -0.5956 -0.4527 -0.2128
19910TIP3    H181145   3.370   6.140  10.576 -0.7947  1.1225 -0.1393
19910TIP3    H281146   3.502   6.069  10.555 -1.7370 -0.9131  0.6452
19911TIP3   OH281147   1.789   3.916   2.806  0.1095  0.7593 -0.1000
19911TIP3    H181148   1.869   3.865   2.795  0.7964  1.6183  0.6832
19911TIP3    H281149   1.719   3.860   2.773  1.0023 -0.1100 -0.5600
19912TIP3   OH281150   3.787   5.519  10.690  0.0048  0.5480 -0.1572
19912TIP3    H181151   3.749   5.490  10.607  1.3217  0.9596 -0.9321
19912TIP3    H281152   3.882   5.507  10.678  0.2051  0.4858  1.3408
19913TIP3   OH281153   0.879   1.435  13.949 -0.3277  0.8813 -0.6901
19913TIP3    H181154   0.867   1.356  13.896 -1.9246  0.1824  0.6188
19913TIP3    H281155   0.974   1.443  13.958 -0.1204 -1.3818 -0.2116
19914TIP3   OH281156   3.742   3.423  13.722 -0.0136 -0.5999 -0.2330
19914TIP3    H181157   3.704   3.469  13.647  1.1041 -1.9567 -1.7027
19914TIP3    H281158   3.797   3.488  13.765  0.0479 -0.0344 -1.1362
19915TIP3   OH281159   3.043   1.413  13.636  0.1174  0.5272  0.1401
19915TIP3    H181160   3.104   1.392  13.565 -1.2026  0.3944 -1.0134
19915TIP3    H281161   3.013   1.502  13.615 -0.2802  0.4865  0.5340
19916TIP3   OH281162   0.509   1.971  12.256 -0.4865  0.6111  0.4342
19916TIP3    H181163   0.471   1.885  12.273 -2.1958  1.3080  0.3942
19916TIP3    H281164   0.465   2.002  12.177  0.7162  1.1824 -0.0384
19917TIP3   OH281165   1.009   1.628  12.461 -0.2469  0.1322 -0.2541
19917TIP3    H181166   1.049   1.611  12.376  0.3851  0.1829  0.0247
19917TIP3    H281167   1.064   1.579  12.523 -1.0386 -0.3694  0.0617
19918TIP3   OH281168   6.239   5.954  13.726 -0.2432 -0.1537 -0.0662
19918TIP3    H181169   6.156   6.000  13.738  1.1538  1.9683  2.3702
19918TIP3    H281170   6.248   5.900  13.804  1.4704  1.0958  0.6572
19919TIP3   OH281171   2.365   2.878  10.382  0.4346  0.1102 -0.0691
19919TIP3    H181172   2.398   2.961  10.415  2.0732 -0.2540 -0.6935
19919TIP3    H281173   2.443   2.829  10.356 -0.6040 -0.3927 -2.6087
19920TIP3   OH281174   5.028   0.878  11.570  0.5181  0.0897  0.4477
19920TIP3    H181175   5.005   0.892  11.662  2.2276 -0.1940  0.9620
19920TIP3    H281176   5.094   0.809  11.572 -0.0330 -0.5136 -1.0826
19921TIP3   OH281177   4.597   3.998  13.151 -0.0789  0.1785 -0.0519
19921TIP3    H181178   4.671   3.941  13.172 -0.1575  0.1284  0.0902
19921TIP3    H281179   4.628   4.051  13.077 -0.3601 -0.7598 -0.8619
19922TIP3   OH281180   1.669   1.759  16.678  0.5780 -0.2008 -0.1712
19922TIP3    H181181   1.669   1.829  16.613  2.0852 -0.2090 -0.2113
19922TIP3    H281182   1.623   1.795  16.753 -2.4197 -0.6337 -1.6385
19923TIP3   OH281183   5.553   1.919  13.028  0.3337  0.3764 -0.0690
19923TIP3    H181184   5.581   1.961  12.947 -1.1924 -0.2824 -0.9710
19923TIP3    H281185   5.564   1.826  13.013  0.9097  0.2764  0.8475
19924TIP3   OH281186   6.766   5.993   1.230  0.0431  0.2152 -0.1821
19924TIP3    H181187   6.828   5.921   1.235 -0.6441 -0.3759 -0.0598
19924TIP3    H281188   6.784   6.035   1.146 -1.4747 -1.8909 -1.6577
19925TIP3   OH281189   1.646   6.114  13.553 -0.1984  0.2794  0.2247
19925TIP3    H181190   1.621   6.030  13.592 -0.3007  0.0857 -0.2472
19925TIP3    H281191   1.584   6.177  13.589 -0.0428  0.1770  0.6788
19926TIP3   OH281192   4.096   3.386  14.658 -0.3815 -0.0277 -0.0088
19926TIP3    H181193   4.175   3.440  14.655 -0.2507 -0.2747 -1.1350
19926TIP3    H281194   4.103   3.328  14.583 -1.0343 -0.9118  0.5947
19927TIP3   OH281195   6.769   6.299   1.290 -0.0229  0.0180  0.1257
19927TIP3    H181196   6.763   6.244   1.369 -0.9744  2.6436  2.0351
19927TIP3    H281197   6.685   6.286   1.246 -1.3938  1.8483  2.0224
19928TIP3   OH281198   5.963   0.004  15.865 -0.0228 -0.4755  0.0035
19928TIP3    H181199   5.922  -0.081  15.879  0.5835 -0.6197  1.0643
19928TIP3    H281200   5.995   0.029  15.952 -2.9793  2.3259  0.4747
19929TIP3   OH281201   5.461   2.007  11.230  0.4587 -0.0394  0.2076
19929TIP3    H181202   5.552   1.985  11.211  0.3970  0.2560 -0.4472
19929TIP3    H281203   5.449   1.981  11.321  0.6794 -1.7548 -0.2182
19930TIP3   OH281204   0.851   3.623   2.650  0.8029  0.0418 -0.0341
19930TIP3    H181205   0.905   3.558   2.695  0.6628 -0.5616 -0.7358
19930TIP3    H281206   0.808   3.670   2.721  2.2927  0.5991  0.5546
19931TIP3   OH281207   3.937   1.697   4.877  1.0464 -0.2663 -0.6151
19931TIP3    H181208   3.954   1.619   4.825 -1.8116 -0.0865 -2.0435
19931TIP3    H281209   3.921   1.766   4.812 -2.6558 -0.0174  0.3314
19932TIP3   OH281210   1.813   5.226  10.223 -0.1977 -0.4405 -0.1166
19932TIP3    H181211   1.775   5.140  10.207  0.1791 -0.4846 -0.8171
19932TIP3    H281212   1.905   5.209  10.242 -0.6990 -0.4341  2.6944
19933TIP3   OH281213   4.399   5.481   2.454  0.2791 -0.5043 -0.3655
19933TIP3    H181214   4.439   5.567   2.439  0.7884 -0.7736 -0.5765
19933TIP3    H281215   4.429   5.455   2.541 -0.8714  0.0667  0.2289
19934TIP3   OH281216   5.999   1.896   3.541 -0.0395 -0.0426 -0.1453
19934TIP3    H181217   6.079   1.948   3.532  0.0024  0.2377  1.4756
19934TIP3    H281218   5.988   1.886   3.636 -1.8624 -0.1909 -0.3406
19935TIP3   OH281219   0.177   5.613  12.724  0.0698  0.1332  0.4759
19935TIP3    H181220   0.128   5.534  12.700  0.2101 -0.0026  0.6344
19935TIP3    H281221   0.126   5.685  12.687  0.4409 -0.0850 -0.5093
19936TIP3   OH281222   6.472   0.930  13.147  0.1791 -0.1070 -0.2460
19936TIP3    H181223   6.538   0.999  13.158  1.0285 -1.0554  0.9556
19936TIP3    H281224   6.390   0.971  13.175  0.7954  0.2294  1.1452
19937TIP3   OH281225   2.824   0.205  12.175  0.3227 -0.6670  0.3882
19937TIP3    H181226   2.832   0.294  12.209  0.7202 -0.7962  0.6393
19937TIP3    H281227   2.738   0.176  12.203  0.6943 -0.8163  1.3997
19938TIP3   OH281228   2.930   3.088  10.820 -0.0840 -0.5989 -0.3818
19938TIP3    H181229   2.901   2.997  10.820 -1.7759 -0.1136  1.0221
19938TIP3    H281230   2.870   3.133  10.879 -0.4627  1.8161 -2.4277
19939TIP3   OH281231   0.971   3.132   5.954 -0.2567  0.3286  0.5534
19939TIP3    H181232   0.895   3.144   5.898 -2.0828  1.5034  3.0948
19939TIP3    H281233   1.036   3.194   5.920 -1.4389  1.2610 -0.0539
19940TIP3   OH281234   5.031   6.452  16.293  0.3601 -0.4630 -0.0314
19940TIP3    H181235   5.074   6.484  16.214  1.1699  1.1008  0.9985
19940TIP3    H281236   4.939   6.442  16.267  0.5730  0.1993 -1.1309
19941TIP3   OH281237   6.748   5.080   1.133  0.2411 -0.2615 -0.1175
19941TIP3    H181238   6.784   5.019   1.198 -0.7855 -1.0822 -0.2913
19941TIP3    H281239   6.667   5.112   1.173  0.4375  0.4845 -0.3104
19942TIP3   OH281240   5.212   4.676   5.010  0.0528 -0.2105 -0.3699
19942TIP3    H181241   5.180   4.716   5.091 -1.2544 -0.9026 -0.5197
19942TIP3    H281242   5.299   4.713   4.998 -0.2412  0.8856  0.6703
19943TIP3   OH281243   4.462   2.401  14.498  0.7080 -0.4738 -0.3740
19943TIP3    H181244   4.476   2.454  14.576 -1.0572  0.2119 -0.4857
19943TIP3    H281245   4.515   2.444  14.431  0.5795  0.1841 -0.0638
19944TIP3   OH281246   0.663   0.973  14.628  0.2041 -0.3492  0.1730
19944TIP3    H181247   0.642   1.062  14.600  0.8328  0.0683  0.9654
19944TIP3    H281248   0.585   0.921  14.607  0.3816  0.0727 -1.6358
19945TIP3   OH281249   6.032   4.934  13.946 -0.0124 -0.5265 -0.2935
19945TIP3    H181250   6.050   4.928  14.040  0.1172 -0.2966 -0.3031
19945TIP3    H281251   5.936   4.933  13.940 -0.0942  1.3534 -0.0164
19946TIP3   OH281252   4.146   6.512  15.521 -0.0985 -0.1034  0.2594
19946TIP3    H181253   4.166   6.550  15.606  0.7753  1.5183 -0.6116
19946TIP3    H281254   4.134   6.588  15.463  1.0998 -1.1338 -1.4261
19947TIP3   OH281255   3.572   1.534   6.348  0.4230 -0.2479  0.5661
19947TIP3    H181256   3.642   1.537   6.414  0.1462  1.2837  0.8322
19947TIP3    H281257   3.597   1.462   6.290  3.6765  1.8110 -0.9026
19948TIP3   OH281258   2.196   1.435  13.697  0.7363 -0.2679  0.0639
19948TIP3    H181259   2.175   1.418  13.605 -0.2451 -2.4246  0.6178
19948TIP3    H281260   2.240   1.355  13.726 -2.1644 -1.1777  2.3757
19949TIP3   OH281261   2.371   1.415  12.442 -0.3801 -0.8351  0.4474
19949TIP3    H181262   2.403   1.490  12.391  0.9329 -0.7791  1.3363
19949TIP3    H281263   2.298   1.381  12.389 -1.9442  1.8695  0.6563
19950TIP3   OH281264   6.727   4.000  15.972 -0.0758  0.1838  0.1530
19950TIP3    H181265   6.691   3.965  15.890  1.5249 -0.0223 -0.5135
19950TIP3    H281266   6.738   4.094  15.955  2.4755 -0.1993 -0.8373
19951TIP3   OH281267   1.716   1.355  14.534 -0.0720 -0.4271  0.0012
19951TIP3    H181268   1.807   1.358  14.563  0.8068  0.2521 -2.5564
19951TIP3    H281269   1.709   1.274  14.484 -0.2747  0.4087 -1.4046
19952TIP3   OH281270   5.705   2.169  16.593 -0.3845 -0.2892  0.1838
19952TIP3    H181271   5.737   2.085  16.624  1.6309  0.3780  0.0382
19952TIP3    H281272   5.719   2.229  16.667 -0.7279  0.1609 -0.1111
19953TIP3   OH281273   3.976   5.809   2.474  0.0168  0.4475 -0.4399
19953TIP3    H181274   4.063   5.849   2.469  0.8826 -1.2423  0.3824
19953TIP3    H281275   3.925   5.869   2.528  1.0543  0.8154  0.1589
19954TIP3   OH281276   1.950   4.394  11.136  0.1646 -0.4975 -0.6142
19954TIP3    H181277   2.011   4.357  11.073  0.3913  0.3285 -0.8943
19954TIP3    H281278   1.865   4.358  11.111  0.7151 -3.1171  0.8857
19955TIP3   OH281279   0.964   4.787  16.119  0.0093 -0.4556  0.1400
19955TIP3    H181280   1.058   4.803  16.129  0.1977 -1.8773  0.8960
19955TIP3    H281281   0.954   4.693  16.135 -1.4590 -0.4602 -0.6328
19956TIP3   OH281282   6.049   6.234  16.215 -1.1031 -0.2046 -0.0296
19956TIP3    H181283   6.060   6.218  16.121 -1.9907 -0.5415 -0.0811
19956TIP3    H281284   5.965   6.194  16.236  0.0698 -2.1549  1.3696
19957TIP3   OH281285   3.688   2.987   1.897  0.1593 -0.7565 -0.2298
19957TIP3    H181286   3.742   3.067   1.898  2.7255 -2.3339 -1.6844
19957TIP3    H281287   3.671   2.967   1.989  1.0011  0.4764  0.2128
19958TIP3   OH281288   0.844   0.893  11.718  0.0662  0.4048  0.1018
19958TIP3    H181289   0.835   0.981  11.683  0.3289  0.6686  0.6861
19958TIP3    H281290   0.836   0.836  11.641 -1.1050  0.8740 -0.1504
19959TIP3   OH281291   3.155   2.161   4.161 -0.1817 -0.1035  0.3382
19959TIP3    H181292   3.095   2.180   4.089 -0.8650  1.4583  1.2579
19959TIP3    H281293   3.098   2.147   4.237  0.5654  0.1316  0.9649
19960TIP3   OH281294   1.763   4.349   6.463  0.4374  0.4578 -0.2600
19960TIP3    H181295   1.851   4.319   6.487  0.5708  1.5848  0.7775
19960TIP3    H281296   1.709   4.270   6.466  1.0136  0.0865  1.1847
19961TIP3   OH281297   3.532   6.200  10.062 -0.2632 -0.6571 -0.0744
19961TIP3    H181298   3.512   6.169  10.151  0.6349 -1.6828 -0.2001
19961TIP3    H281299   3.620   6.167  10.046  0.8591  2.1804 -0.1829
19962TIP3   OH281300   0.973   5.346   4.717 -0.0140 -0.6956 -0.0044
19962TIP3    H181301   1.031   5.375   4.647 -0.3719  0.6439  0.2353
19962TIP3    H281302   0.894   5.400   4.707 -0.0399 -0.4264  1.4760
19963TIP3   OH281303   5.774   3.581   4.848  0.4395  0.0009  0.0635
19963TIP3    H181304   5.731   3.658   4.810 -0.0232 -0.1366  0.3142
19963TIP3    H281305   5.867   3.593   4.825  0.0338 -0.7072 -2.2190
19964TIP3   OH281306   3.151   2.374  16.166  0.1139 -0.4357  0.2182
19964TIP3    H181307   3.243   2.377  16.194  0.3989 -0.6440 -0.6706
19964TIP3    H281308   3.153   2.395  16.073 -0.6449 -1.3113 -0.0119
19965TIP3   OH281309   2.839   2.738  11.547  0.6977 -0.1095  0.1414
19965TIP3    H181310   2.792   2.661  11.580  1.7024  0.1962  2.4461
19965TIP3    H281311   2.771   2.793  11.508 -0.7122 -0.2294  2.3022
19966TIP3   OH281312   0.398   2.270  13.652 -0.4392 -0.0138 -0.0002
19966TIP3    H181313   0.327   2.219  13.691 -1.1401  1.3099  0.5214
19966TIP3    H281314   0.417   2.338  13.717  0.4780  0.3835 -0.6618
19967TIP3   OH281315   2.220   0.301  14.739  0.3178 -0.4045 -0.0954
19967TIP3    H181316   2.231   0.301  14.644  0.4000 -1.1990 -0.0902
19967TIP3    H281317   2.299   0.260  14.773  0.3891  0.0735  0.3368
19968TIP3   OH281318   1.391   2.982  14.941 -0.0189  0.0203 -0.3931
19968TIP3    H181319   1.426   3.064  14.907  1.0211  0.4499  1.5780
19968TIP3    H281320   1.392   2.923  14.866  0.9989  1.2572 -1.3996
19969TIP3   OH281321   1.439   0.508  11.258 -0.0102 -0.0153 -0.0208
19969TIP3    H181322   1.406   0.421  11.279 -0.8741  0.4091  0.4098
19969TIP3    H281323   1.368   0.550  11.209  1.0531 -0.1400 -1.7423
19970TIP3   OH281324   3.720   5.590  13.009 -0.1793  0.5241  0.2211
19970TIP3    H181325   3.679   5.641  12.940 -0.9539  1.4663  1.3400
19970TIP3    H281326   3.652   5.580  13.076  0.8771  0.6166  1.3544
19971TIP3   OH281327   1.764   2.717   3.805 -0.8720 -0.4034 -0.2210
19971TIP3    H181328   1.717   2.800   3.806 -1.6713 -0.8423  0.4316
19971TIP3    H281329   1.827   2.725   3.876 -1.3491 -0.5548  0.2338
19972TIP3   OH281330   6.325   2.122  10.168 -0.6669  0.2026  0.1951
19972TIP3    H181331   6.304   2.067  10.243 -1.1031  1.4026  0.9751
19972TIP3    H281332   6.241   2.152  10.135 -0.6476 -1.9527 -2.1142
19973TIP3   OH281333   4.981   5.218  15.026 -0.5377 -0.1786  0.1202
19973TIP3    H181334   4.941   5.192  14.943  0.7701 -1.1181 -0.2640
19973TIP3    H281335   4.919   5.279  15.065 -1.3599 -0.0083 -1.3728
19974TIP3   OH281336   5.223   0.166   5.143 -0.4123 -0.0900  0.0884
19974TIP3    H181337   5.246   0.074   5.148 -0.6654 -0.2416 -1.2122
19974TIP3    H281338   5.183   0.177   5.057 -0.9865  1.1003  0.4726
19975TIP3   OH281339   0.075   5.564  16.290 -0.1823  0.1295 -0.8380
19975TIP3    H181340   0.089   5.651  16.328  1.5737  0.2574 -1.6849
19975TIP3    H281341   0.070   5.505  16.365 -0.4858  0.8316 -0.2964
19976TIP3   OH281342   4.433   2.425   0.218  0.5272  0.3830 -0.5537
19976TIP3    H181343   4.482   2.411   0.137  0.0018 -0.8192 -0.6811
19976TIP3    H281344   4.490   2.389   0.286 -0.3405 -1.4145 -0.7512
19977TIP3   OH281345   2.510   0.067   3.467  0.4618 -0.1162 -0.2722
19977TIP3    H181346   2.469  -0.002   3.519  0.9561 -0.1911  0.0234
19977TIP3    H281347   2.528   0.026   3.382 -1.7205  0.4345 -1.0558
19978LIG     O181348   3.255   3.154  16.512 -0.3632  0.1692 -0.4207
19978LIG     O281349   3.269   3.380  16.532  0.4636  0.9794 -0.3558
19978LIG     O381350   3.400   3.484  16.702  0.1349  0.8054 -0.5700
19978LIG     O481351   3.459   3.199  16.275  0.6021 -0.1460 -0.0237
19978LIG     O581352   3.193   3.188  16.159 -0.1027  0.4057  0.5630
19978LIG     O681353   3.216   3.630  16.412  0.6399 -0.1564 -0.8215
19978LIG     O781354   3.043   3.525  16.624  0.2698 -0.2685 -0.4844
19978LIG     O881355   3.094   3.580  16.896 -0.2329  0.0181 -0.2046
19978LIG     O981356   3.462   3.205  16.706 -0.0639  0.4090 -0.1018
19978LIG    O1081357   2.972   3.112  16.394 -0.1671 -0.0061  0.6002
19978LIG    O1181358   3.412   3.328  16.980  0.1906 -0.1321  0.3069
19978LIG     C181359   3.339   3.265  16.486 -0.6830  0.4344 -0.2281
19978LIG     C281360   3.347   3.279  16.336 -0.0818 -0.2840 -0.3689
19978LIG     C381361   3.214   3.218  16.298  0.0277 -0.9441 -0.6580
19978LIG     C481362   3.215   3.093  16.390  0.2938 -0.6163 -0.9650
19978LIG     C581363   3.347   3.495  16.567 -0.2551  0.6818 -0.7656
19978LIG     C681364   3.260   3.620  16.548  0.6544 -0.3928 -0.9144
19978LIG     C781365   3.147   3.625  16.655 -0.2976 -0.3554 -0.2222
19978LIG     C881366   3.205   3.591  16.802 -0.1831  0.3818  0.3082
19978LIG     C981367   3.295   3.470  16.799  0.8259  0.2268  0.3770
19978LIG    C1081368   3.473   3.231  16.567  0.7422 -0.0574  0.4223
19978LIG    C1181369   3.083   3.022  16.403 -0.2858  0.3491 -0.0672
19978LIG    C1281370   3.364   3.453  16.943 -0.4261 -0.9689 -0.5227
19978LIG     H181371   3.371   3.380  16.301  0.8058  0.4114  2.1111
19978LIG     H281372   3.135   3.283  16.337  2.7211  1.5559  1.0936
19978LIG     H381373   3.293   3.023  16.357 -1.1226 -1.2397 -3.2550
19978LIG     H481374   3.435   3.507  16.501  0.5729 -2.6063 -0.4163
19978LIG     H581375   3.324   3.709  16.565 -0.2011 -0.0006  0.4370
19978LIG     H681376   3.113   3.730  16.664  0.7345 -0.1770  2.2018
19978LIG     H781377   3.268   3.679  16.828  0.5891 -0.2699  0.7064
19978LIG     H881378   3.239   3.375  16.783  1.6383 -0.2555  0.3488
19978LIG     H981379   3.520   3.142  16.519 -1.3009 -0.4874 -0.8981
19978LIG    H1081380   3.533   3.324  16.558 -1.5995  1.5978  1.0071
19978LIG    H1181381   3.081   2.941  16.327 -0.9021 -0.2036  0.5282
19978LIG    H1281382   3.077   2.978  16.504  3.0690 -1.3489 -0.4392
19978LIG    H1381383   3.439   3.535  16.954 -0.3472 -1.0702 -0.2994
19978LIG    H1481384   3.277   3.477  17.008 -0.1088  0.9809 -0.7328
19978LIG    H1581385   3.497   3.255  16.207 -0.7702  2.3135  1.0877
19978LIG    H1681386   3.250   3.116  16.133 -1.3049  0.7849 -3.8727
19978LIG    H1781387   3.140   3.688  16.397  0.4385 -0.7511 -2.3644
19978LIG    H1881388   3.001   3.563  16.547  0.4468  1.1279  0.0740
19978LIG    H1981389   3.040   3.659  16.896 -0.3398 -0.0521  0.1961
19978LIG    H2081390   3.420   3.283  16.744 -1.4035 -1.1358  1.8505
19978LIG    H2181391   2.979   3.155  16.308 -1.4295 -2.0027 -0.5641
19978LIG    H2281392   3.480   3.341  17.046  1.2651 -0.8566 -0.6220
   6.78632   6.78632  17.19800
